Title
81370
    1CHL1    C3    1   4.940   1.017  10.234  0.4020 -0.5987  0.0077
    1CHL1    H3    2   5.020   1.091  10.214  0.2115 -0.5909 -0.8042
    1CHL1    O3    3   4.901   1.018  10.373 -0.4692 -0.1727  0.4586
    1CHL1   H3'    4   4.837   0.946  10.379 -0.2435 -0.3943  0.1876
    1CHL1    C4    5   4.816   1.058  10.153  0.1555  0.4143 -0.1589
    1CHL1   H4A    6   4.738   0.985  10.182  0.5642  0.0932  0.1326
    1CHL1   H4B    7   4.780   1.154  10.196 -0.4530  0.1994 -0.1775
    1CHL1    C5    8   4.838   1.062  10.001 -0.0955  0.2557  0.2446
    1CHL1    C6    9   4.821   1.177   9.930  0.5323  0.2276 -0.2238
    1CHL1    H6   10   4.771   1.260   9.982  1.7243  1.2626 -0.6794
    1CHL1    C7   11   4.858   1.189   9.787  0.4437  0.0400 -0.4216
    1CHL1   H7A   12   4.776   1.245   9.736  0.1838 -0.9008 -1.0706
    1CHL1   H7B   13   4.951   1.249   9.780  0.5918 -0.3213 -1.9768
    1CHL1    C8   14   4.896   1.058   9.712 -0.0578  0.2614 -0.2389
    1CHL1    H8   15   4.807   0.996   9.686  1.5117 -1.4603 -1.8042
    1CHL1   C14   16   4.971   1.082   9.584 -0.1612 -0.2995  0.5457
    1CHL1   H14   17   5.070   1.122   9.616  0.8039 -0.3860 -2.0610
    1CHL1   C15   18   4.906   1.177   9.482  0.1149  0.2085 -0.0983
    1CHL1  H15A   19   4.799   1.147   9.489  0.1301 -1.0838 -3.6537
    1CHL1  H15B   20   4.918   1.283   9.514 -3.4777  0.0996  2.2899
    1CHL1   C16   21   4.969   1.136   9.348  0.2724  0.4104  0.6762
    1CHL1  H16A   22   4.883   1.097   9.288  1.4370 -1.5653  0.2055
    1CHL1  H16B   23   5.031   1.213   9.296  0.5980  0.0275  0.4886
    1CHL1   C17   24   5.057   1.008   9.367  0.1677  0.2614 -0.6818
    1CHL1   H17   25   5.153   1.060   9.388 -1.0012  1.9315  0.8696
    1CHL1   C13   26   5.009   0.952   9.507  0.3520 -0.9071  0.3794
    1CHL1   C18   27   4.887   0.860   9.487 -0.2946 -0.6431  0.0371
    1CHL1  H18A   28   4.810   0.916   9.429  2.1987  2.7254 -0.2981
    1CHL1  H18B   29   4.920   0.768   9.435 -1.1772 -1.6869  1.2573
    1CHL1  H18C   30   4.829   0.829   9.577  1.3436 -0.3779  1.2269
    1CHL1   C12   31   5.111   0.877   9.591  0.0045 -0.1598 -0.7126
    1CHL1  H12A   32   5.129   0.775   9.551 -1.0604 -0.9554  0.7648
    1CHL1  H12B   33   5.205   0.931   9.618  0.5409 -2.0647  1.5198
    1CHL1   C11   34   5.053   0.850   9.728 -0.0246  0.7266 -0.5136
    1CHL1  H11A   35   4.971   0.776   9.722 -0.8950  1.7948 -3.2231
    1CHL1  H11B   36   5.140   0.806   9.781 -2.2285 -2.2950  0.8678
    1CHL1    C9   37   4.987   0.969   9.803  0.7081 -0.1389 -0.2131
    1CHL1    H9   38   5.073   1.035   9.826  0.3658  0.5162 -0.7848
    1CHL1   C10   39   4.922   0.941   9.950 -0.1929 -0.2097  0.1931
    1CHL1   C19   40   4.812   0.834   9.937 -0.0661  0.0070  0.0786
    1CHL1  H19A   41   4.756   0.807  10.029 -0.7905  0.6966 -0.1397
    1CHL1  H19B   42   4.731   0.861   9.865 -0.3626 -1.5209 -0.1889
    1CHL1  H19C   43   4.853   0.737   9.904 -0.4698 -0.0647 -0.2142
    1CHL1    C1   44   5.030   0.886  10.051 -0.2158 -0.8554  0.1013
    1CHL1   H1A   45   5.062   0.785  10.017 -2.0742 -0.8977 -1.7228
    1CHL1   H1B   46   5.121   0.949  10.040 -1.3799  0.9078  0.1824
    1CHL1    C2   47   4.979   0.883  10.192 -0.3323  0.4085 -0.0258
    1CHL1   H2A   48   5.055   0.850  10.267 -0.6160 -0.1984  0.0018
    1CHL1   H2B   49   4.901   0.806  10.206 -0.1951  0.1428 -0.6949
    1CHL1   C20   50   5.077   0.918   9.237  0.4007 -0.1091  0.1551
    1CHL1   H20   51   4.978   0.880   9.203  0.0274  0.2335  0.8247
    1CHL1   C21   52   5.162   0.796   9.271  0.1662 -0.4248 -0.7615
    1CHL1  H21A   53   5.257   0.816   9.325 -0.5403  1.2141 -0.0534
    1CHL1  H21B   54   5.181   0.733   9.181  0.1564 -1.8807  0.2264
    1CHL1  H21C   55   5.100   0.725   9.329  1.0913 -0.0295  0.7563
    1CHL1   C22   56   5.142   0.996   9.120 -0.3111  0.8983  0.1771
    1CHL1  H22A   57   5.078   1.083   9.098 -0.6694  1.1716  2.1829
    1CHL1  H22B   58   5.241   1.027   9.160 -0.6306  2.1237  0.0584
    1CHL1   C23   59   5.153   0.927   8.985  0.0785  0.1744  0.0879
    1CHL1  H23A   60   5.224   0.977   8.917 -0.4576  0.8202 -0.0083
    1CHL1  H23B   61   5.194   0.825   9.001  0.2087  0.3570  1.0091
    1CHL1   C24   62   5.022   0.921   8.898  0.0606 -0.2041 -0.5456
    1CHL1  H24A   63   4.942   0.874   8.960 -0.8962  0.0073 -1.5854
    1CHL1  H24B   64   4.989   1.023   8.868 -1.0951 -1.2065 -2.8541
    1CHL1   C25   65   5.029   0.843   8.763 -0.7687 -0.1822  0.1885
    1CHL1   H25   66   5.045   0.739   8.800 -2.5408 -0.4496  0.3037
    1CHL1   C26   67   4.895   0.849   8.684 -0.0927 -0.8896  0.0325
    1CHL1  H26A   68   4.892   0.774   8.603 -0.5883  0.2830 -1.0751
    1CHL1  H26B   69   4.810   0.830   8.753  0.1722  0.6924  0.8503
    1CHL1  H26C   70   4.890   0.947   8.630  1.5130 -1.3040 -0.9278
    1CHL1   C27   71   5.147   0.889   8.675  1.1301  0.1264  0.3256
    1CHL1  H27A   72   5.115   0.872   8.570  1.4966  1.9996 -0.1294
    1CHL1  H27B   73   5.143   0.996   8.703 -2.2256 -0.2207  1.5912
    1CHL1  H27C   74   5.249   0.851   8.697  0.8924 -0.9926 -0.4359
    2CHL1    C3   75   6.503   5.308   9.837  0.5458  0.1808 -0.2652
    2CHL1    H3   76   6.503   5.197   9.843  1.1468  0.2483  1.7310
    2CHL1    O3   77   6.440   5.371   9.948 -0.5247 -0.0737 -0.0017
    2CHL1   H3'   78   6.487   5.336  10.024 -0.9472 -0.6307  0.0042
    2CHL1    C4   79   6.641   5.362   9.815  0.3641  0.2958 -0.1352
    2CHL1   H4A   80   6.627   5.472   9.806  0.7061  0.5445  1.9121
    2CHL1   H4B   81   6.703   5.332   9.903  1.1245 -0.0286 -0.7718
    2CHL1    C5   82   6.705   5.311   9.693 -1.1742 -0.3465  0.3245
    2CHL1    C6   83   6.824   5.244   9.689 -0.1898  0.7973 -0.4448
    2CHL1    H6   84   6.876   5.226   9.785 -0.3451 -1.0132 -0.6615
    2CHL1    C7   85   6.908   5.213   9.570 -0.2493 -0.4114 -0.1963
    2CHL1   H7A   86   6.995   5.281   9.576  0.0069 -0.5542 -1.7094
    2CHL1   H7B   87   6.929   5.104   9.575 -0.4903 -0.4842 -0.7291
    2CHL1    C8   88   6.835   5.255   9.441 -0.3729  0.4050  0.4447
    2CHL1    H8   89   6.872   5.359   9.427  1.7115 -0.7466 -4.3520
    2CHL1   C14   90   6.886   5.180   9.315  0.5200 -0.1252 -0.8360
    2CHL1   H14   91   6.858   5.074   9.330  0.5019 -0.0743 -0.5000
    2CHL1   C15   92   7.044   5.171   9.303 -0.1845  0.2031 -0.4722
    2CHL1  H15A   93   7.093   5.271   9.311  0.5554 -0.1780 -0.0492
    2CHL1  H15B   94   7.088   5.096   9.372 -0.0116 -0.3070 -1.1290
    2CHL1   C16   95   7.062   5.121   9.163 -0.6279 -0.0413  0.5408
    2CHL1  H16A   96   7.130   5.193   9.114 -0.5110  0.2041  1.0611
    2CHL1  H16B   97   7.102   5.017   9.162 -2.0657 -0.6586 -1.9731
    2CHL1   C17   98   6.918   5.129   9.094  0.3318  0.2049  0.0116
    2CHL1   H17   99   6.868   5.031   9.105  0.8446 -0.2920 -1.7390
    2CHL1   C13  100   6.835   5.222   9.187  0.2879  0.3479  0.1546
    2CHL1   C18  101   6.872   5.371   9.159 -0.6417  0.2695  0.3296
    2CHL1  H18A  102   6.826   5.452   9.220 -0.6363  0.6232 -0.1294
    2CHL1  H18B  103   6.983   5.377   9.163 -0.6456  1.2389 -0.7004
    2CHL1  H18C  104   6.837   5.390   9.056  0.4352 -1.3816 -0.3804
    2CHL1   C12  105   6.682   5.203   9.188  0.2155 -0.2805 -0.7095
    2CHL1  H12A  106   6.643   5.237   9.090  1.3043  0.6334 -0.8431
    2CHL1  H12B  107   6.650   5.097   9.203 -0.1671 -0.1338 -0.4797
    2CHL1   C11  108   6.622   5.287   9.306  0.0265 -1.0344  0.2376
    2CHL1  H11A  109   6.640   5.392   9.277 -0.3765  0.2744  4.0656
    2CHL1  H11B  110   6.512   5.274   9.317 -0.3067  2.4696  3.1826
    2CHL1    C9  111   6.682   5.249   9.445 -0.3139  0.8970 -0.4808
    2CHL1    H9  112   6.656   5.141   9.453  0.6247  0.6289 -0.8683
    2CHL1   C10  113   6.621   5.339   9.563  0.2932 -0.5298  0.2400
    2CHL1   C19  114   6.628   5.492   9.524  0.0175  0.0665 -0.2076
    2CHL1  H19A  115   6.595   5.558   9.608 -0.2097 -2.3847  1.7286
    2CHL1  H19B  116   6.730   5.514   9.485 -0.1920  1.9631  0.2073
    2CHL1  H19C  117   6.552   5.511   9.445 -1.6661  0.5782  1.4408
    2CHL1    C1  118   6.473   5.299   9.584  0.2529 -0.5344 -0.4471
    2CHL1   H1A  119   6.415   5.353   9.507 -1.4000  0.6828  1.5379
    2CHL1   H1B  120   6.465   5.188   9.577  1.2434 -0.6846  0.5586
    2CHL1    C2  121   6.417   5.351   9.718  0.1738 -0.2477 -0.7226
    2CHL1   H2A  122   6.313   5.314   9.733 -0.0206  0.4983 -0.1142
    2CHL1   H2B  123   6.399   5.460   9.704 -3.0962 -0.7731 -1.4395
    2CHL1   C20  124   6.929   5.152   8.940 -0.6519 -0.2051 -0.8026
    2CHL1   H20  125   6.991   5.244   8.936 -0.0749 -0.6080 -1.3160
    2CHL1   C21  126   6.793   5.164   8.873 -0.2129  0.0640 -0.2098
    2CHL1  H21A  127   6.751   5.259   8.911  0.8274  0.4254  0.0713
    2CHL1  H21B  128   6.725   5.076   8.883 -1.4690  0.8227 -1.7091
    2CHL1  H21C  129   6.815   5.190   8.768 -1.2999  4.8711  0.5181
    2CHL1   C22  130   6.998   5.026   8.880  0.0325 -0.6123  0.6829
    2CHL1  H22A  131   7.087   5.000   8.941 -0.1140 -2.5189  0.1338
    2CHL1  H22B  132   6.923   4.944   8.886  0.4411 -1.1487 -1.0949
    2CHL1   C23  133   7.067   5.043   8.737  0.7068  0.5899 -0.8581
    2CHL1  H23A  134   6.990   5.070   8.662 -0.9287  0.8247  0.8484
    2CHL1  H23B  135   7.130   5.133   8.751  1.3849  0.1056 -0.6995
    2CHL1   C24  136   7.145   4.933   8.666  0.5627 -0.6561 -0.1952
    2CHL1  H24A  137   7.227   4.895   8.730  0.2150 -0.9700  0.0718
    2CHL1  H24B  138   7.071   4.850   8.658 -1.7173  1.2558 -0.3922
    2CHL1   C25  139   7.189   4.954   8.524 -0.1887 -0.1129  0.1656
    2CHL1   H25  140   7.105   4.997   8.466 -0.3817  0.1025  0.6022
    2CHL1   C26  141   7.304   5.054   8.528  0.4742  0.0724  0.1596
    2CHL1  H26A  142   7.383   4.997   8.582  0.6851 -1.0245 -1.2609
    2CHL1  H26B  143   7.334   5.089   8.427  0.6739 -0.7780 -0.0899
    2CHL1  H26C  144   7.284   5.145   8.589  1.3960  0.7425 -0.5094
    2CHL1   C27  145   7.228   4.819   8.451 -0.2917 -0.0372  0.0196
    2CHL1  H27A  146   7.259   4.834   8.346 -0.8721  1.5083  0.0416
    2CHL1  H27B  147   7.316   4.774   8.502 -1.0169 -1.3062  0.1837
    2CHL1  H27C  148   7.144   4.747   8.457 -0.1523 -0.1675  0.4661
    3CHL1    C3  149   5.065   4.806  10.135 -0.7839 -0.1181 -1.3818
    3CHL1    H3  150   5.018   4.905  10.118 -0.8969  0.1356  0.2456
    3CHL1    O3  151   5.062   4.787  10.276 -0.2047  0.1089  0.2244
    3CHL1   H3'  152   5.090   4.696  10.291  0.5854  0.2738 -0.1743
    3CHL1    C4  153   4.983   4.694  10.076 -0.3054  0.2347 -0.0285
    3CHL1   H4A  154   5.022   4.593  10.100  1.0123  0.8852  0.6914
    3CHL1   H4B  155   4.879   4.695  10.115  0.0551 -1.3776  1.0553
    3CHL1    C5  156   4.973   4.719   9.927 -0.0453  0.3083  0.2211
    3CHL1    C6  157   4.853   4.731   9.855 -0.9401  0.1809 -0.6878
    3CHL1    H6  158   4.757   4.719   9.908 -0.5843  0.3948  0.0251
    3CHL1    C7  159   4.844   4.753   9.705  0.0127 -0.4369  0.2529
    3CHL1   H7A  160   4.765   4.698   9.651 -0.1213  2.1826 -2.4503
    3CHL1   H7B  161   4.824   4.860   9.685 -0.7020 -0.5462  0.3564
    3CHL1    C8  162   4.974   4.719   9.629  0.2863  0.5126 -0.3159
    3CHL1    H8  163   4.990   4.609   9.642  0.1500  0.4888 -0.3463
    3CHL1   C14  164   4.968   4.760   9.479  0.0510 -0.1867 -0.2240
    3CHL1   H14  165   4.960   4.870   9.482  0.2173 -0.1084 -1.7369
    3CHL1   C15  166   4.844   4.715   9.400  0.6398 -0.0817 -0.7526
    3CHL1  H15A  167   4.822   4.607   9.416  4.2253 -1.5435 -3.9676
    3CHL1  H15B  168   4.757   4.776   9.432  0.9502  0.2729 -0.5751
    3CHL1   C16  169   4.879   4.738   9.258  0.8072 -0.4284  0.7645
    3CHL1  H16A  170   4.881   4.643   9.201  2.8554  0.6687 -1.1613
    3CHL1  H16B  171   4.822   4.822   9.212 -1.1517 -1.4625  1.2003
    3CHL1   C17  172   5.036   4.766   9.255 -0.6735 -0.5806  0.5551
    3CHL1   H17  173   5.053   4.876   9.261  0.1923 -0.6792  0.1791
    3CHL1   C13  174   5.085   4.722   9.396  0.3933  0.9915  0.4592
    3CHL1   C18  175   5.114   4.567   9.396 -0.4774  0.7920 -0.0446
    3CHL1  H18A  176   5.121   4.533   9.502 -1.9474 -0.7723 -0.4037
    3CHL1  H18B  177   5.035   4.508   9.346 -0.1969 -1.0305  1.5338
    3CHL1  H18C  178   5.215   4.543   9.356 -0.1808  3.6471 -1.2678
    3CHL1   C12  179   5.209   4.804   9.457  0.2592  0.0367 -0.4182
    3CHL1  H12A  180   5.301   4.773   9.402  1.5055  1.2421  0.9093
    3CHL1  H12B  181   5.195   4.914   9.454  0.5324  0.1532  1.3557
    3CHL1   C11  182   5.232   4.780   9.608 -0.0592  0.4373 -0.4381
    3CHL1  H11A  183   5.276   4.678   9.610  1.8155  1.1955  1.9873
    3CHL1  H11B  184   5.304   4.850   9.656  0.2741  0.0771 -0.4044
    3CHL1    C9  185   5.098   4.788   9.699  1.0775  0.3059 -0.0942
    3CHL1    H9  186   5.061   4.892   9.700 -0.9443 -0.3657  0.8921
    3CHL1   C10  187   5.110   4.739   9.851 -0.1373 -0.8420 -0.4261
    3CHL1   C19  188   5.184   4.605   9.843 -0.2259 -0.0514 -0.2523
    3CHL1  H19A  189   5.290   4.625   9.815  0.4044  0.5943  2.2641
    3CHL1  H19B  190   5.184   4.546   9.937  0.4036 -0.8493 -0.7391
    3CHL1  H19C  191   5.130   4.535   9.777 -2.0081  0.1774  0.8879
    3CHL1    C1  192   5.196   4.834   9.929 -0.1602 -0.8177  0.6671
    3CHL1   H1A  193   5.299   4.822   9.891  0.5568  1.2098  1.8356
    3CHL1   H1B  194   5.175   4.942   9.918 -1.2852 -1.1025 -0.1566
    3CHL1    C2  195   5.206   4.810  10.082  0.6578 -0.1966  0.3540
    3CHL1   H2A  196   5.269   4.882  10.138  0.2490 -1.6267  2.7846
    3CHL1   H2B  197   5.252   4.711  10.103 -2.0513 -2.0264 -1.5200
    3CHL1   C20  198   5.103   4.719   9.128  0.6244 -0.7380 -0.4436
    3CHL1   H20  199   5.071   4.616   9.100  0.4162 -0.2370 -2.1424
    3CHL1   C21  200   5.250   4.726   9.135 -0.1340  0.0385 -0.5533
    3CHL1  H21A  201   5.283   4.823   9.178  1.5046  0.4389 -2.5664
    3CHL1  H21B  202   5.286   4.711   9.031  0.1826 -2.4373 -0.1420
    3CHL1  H21C  203   5.296   4.651   9.203  1.9647  1.7699  0.0773
    3CHL1   C22  204   5.057   4.823   9.014  0.4832  0.3180  0.6491
    3CHL1  H22A  205   4.949   4.841   9.031  0.1014  1.8078 -2.5854
    3CHL1  H22B  206   5.093   4.926   9.036 -1.6401  1.2212  0.1261
    3CHL1   C23  207   5.080   4.777   8.868  0.4327 -0.1340 -0.2372
    3CHL1  H23A  208   5.185   4.782   8.832  0.5611  0.5615  0.2276
    3CHL1  H23B  209   5.043   4.673   8.876  0.1314 -0.0255 -0.2182
    3CHL1   C24  210   4.994   4.860   8.769 -0.8140  0.4035 -0.0101
    3CHL1  H24A  211   4.889   4.850   8.803 -0.4418 -1.3691  0.7632
    3CHL1  H24B  212   5.015   4.968   8.782  0.5733  0.1596 -0.0874
    3CHL1   C25  213   5.006   4.814   8.615  0.0366  0.0688 -0.3810
    3CHL1   H25  214   5.094   4.868   8.574 -1.7509  4.8300  1.3554
    3CHL1   C26  215   5.016   4.661   8.598 -0.1402 -0.3534 -0.2185
    3CHL1  H26A  216   4.935   4.613   8.657  0.4098  1.3690  2.0761
    3CHL1  H26B  217   5.021   4.642   8.488  0.0145  0.3550 -0.3383
    3CHL1  H26C  218   5.112   4.619   8.634  0.0577  0.2813  0.0040
    3CHL1   C27  219   4.897   4.877   8.525 -0.0284  0.3457  0.1781
    3CHL1  H27A  220   4.804   4.817   8.519  1.3992 -1.8555 -2.4508
    3CHL1  H27B  221   4.867   4.971   8.575 -1.0785  0.9317 -1.4787
    3CHL1  H27C  222   4.939   4.911   8.428 -0.9915  1.4276  0.1273
    4CHL1    C3  223   5.877   1.399  10.254 -1.5781 -0.2886  1.4899
    4CHL1    H3  224   5.887   1.296  10.295 -0.4046 -1.0172 -0.4725
    4CHL1    O3  225   5.848   1.484  10.362 -0.0644  0.2284 -0.0756
    4CHL1   H3'  226   5.848   1.573  10.327  2.3954  1.8340  3.4536
    4CHL1    C4  227   6.012   1.450  10.197 -0.2394  0.1472 -0.6050
    4CHL1   H4A  228   6.013   1.561  10.189  2.3211  0.0645 -3.0458
    4CHL1   H4B  229   6.091   1.434  10.274 -0.6946 -0.4517 -0.2614
    4CHL1    C5  230   6.046   1.396  10.060 -0.0509 -0.6013 -0.7945
    4CHL1    C6  231   6.169   1.354  10.039 -0.6687  0.9006  0.0789
    4CHL1    H6  232   6.246   1.352  10.118 -1.8272 -0.1980  1.2221
    4CHL1    C7  233   6.213   1.300   9.910 -0.0319  0.7721  0.4692
    4CHL1   H7A  234   6.312   1.339   9.880  2.2691 -4.2650  0.5362
    4CHL1   H7B  235   6.226   1.192   9.933 -0.2836 -0.2429 -3.4669
    4CHL1    C8  236   6.117   1.329   9.790 -0.2322 -0.1431 -0.4207
    4CHL1    H8  237   6.142   1.430   9.752 -1.0089 -0.1027 -0.8359
    4CHL1   C14  238   6.149   1.232   9.673 -0.2271  0.2507  0.0654
    4CHL1   H14  239   6.121   1.132   9.712 -1.9779  1.2436  1.4895
    4CHL1   C15  240   6.289   1.209   9.630  0.8206  0.0878  0.6566
    4CHL1  H15A  241   6.343   1.306   9.624 -0.9955  1.0393 -1.3120
    4CHL1  H15B  242   6.353   1.149   9.699  0.2379  0.0642  1.1957
    4CHL1   C16  243   6.269   1.149   9.488 -0.4837 -0.1459 -0.2247
    4CHL1  H16A  244   6.321   1.207   9.409 -1.5165  0.3021 -0.5823
    4CHL1  H16B  245   6.316   1.048   9.483 -1.8790 -0.8849  0.8835
    4CHL1   C17  246   6.118   1.144   9.461  0.6410 -0.4918  0.3974
    4CHL1   H17  247   6.068   1.061   9.517 -1.6344  0.9405  0.6039
    4CHL1   C13  248   6.066   1.261   9.546 -0.5275  0.0161 -0.6969
    4CHL1   C18  249   6.096   1.395   9.480 -0.1189 -0.2949  0.6030
    4CHL1  H18A  250   6.201   1.405   9.447 -0.7788  1.0124 -1.2436
    4CHL1  H18B  251   6.031   1.419   9.393 -1.0587  0.0983  1.3892
    4CHL1  H18C  252   6.090   1.485   9.546  2.4550 -0.6175  1.3928
    4CHL1   C12  253   5.914   1.253   9.587 -1.0683  0.0101 -0.3612
    4CHL1  H12A  254   5.851   1.285   9.501 -0.9043  2.4542  0.3610
    4CHL1  H12B  255   5.871   1.153   9.612 -3.3998  0.3099 -2.7001
    4CHL1   C11  256   5.876   1.340   9.706  0.3337 -0.0247 -0.5836
    4CHL1  H11A  257   5.897   1.444   9.674  3.4882 -0.3130  0.2952
    4CHL1  H11B  258   5.770   1.329   9.739  0.1613  2.4347 -0.1251
    4CHL1    C9  259   5.970   1.318   9.831 -0.4020  0.1006  0.2041
    4CHL1    H9  260   5.955   1.210   9.851  1.4494 -0.0981  0.6510
    4CHL1   C10  261   5.939   1.396   9.957  0.4838 -0.1196 -0.0497
    4CHL1   C19  262   5.911   1.550   9.925  0.1823  0.4002 -0.3874
    4CHL1  H19A  263   5.978   1.579   9.842  1.3030 -0.3294  0.2355
    4CHL1  H19B  264   5.805   1.558   9.891  0.7692  3.0725 -1.8712
    4CHL1  H19C  265   5.945   1.624  10.001 -1.1075 -0.2294  0.8657
    4CHL1    C1  266   5.813   1.324  10.024 -0.3417 -0.3882  0.1160
    4CHL1   H1A  267   5.733   1.321   9.947 -0.7474  1.6081  0.4011
    4CHL1   H1B  268   5.839   1.222  10.059  0.2024  0.5636  2.7124
    4CHL1    C2  269   5.765   1.394  10.150  0.1438 -0.3112  0.0133
    4CHL1   H2A  270   5.683   1.334  10.195 -0.7245  0.3690 -0.6375
    4CHL1   H2B  271   5.721   1.492  10.123  1.2398  0.6379  1.5409
    4CHL1   C20  272   6.054   1.144   9.317  0.4809  0.0759 -0.4327
    4CHL1   H20  273   5.947   1.174   9.317  0.1675 -0.9781 -1.2364
    4CHL1   C21  274   6.045   0.993   9.274  0.1084 -0.2152  0.8758
    4CHL1  H21A  275   6.147   0.956   9.251 -0.9037 -2.1258 -0.8925
    4CHL1  H21B  276   5.980   0.978   9.185  0.5990 -0.5947  0.5781
    4CHL1  H21C  277   6.006   0.930   9.356 -2.5127 -0.4355 -0.4409
    4CHL1   C22  278   6.142   1.223   9.208 -0.1694  0.2818 -0.0312
    4CHL1  H22A  279   6.152   1.330   9.236 -0.7453  0.4807 -0.5543
    4CHL1  H22B  280   6.239   1.173   9.189  0.2205  1.2317 -0.5972
    4CHL1   C23  281   6.067   1.231   9.068 -0.0471 -0.3401  0.1292
    4CHL1  H23A  282   6.068   1.143   9.001  2.8030  1.6084 -2.7272
    4CHL1  H23B  283   5.962   1.246   9.099 -0.6402  0.3401 -2.0404
    4CHL1   C24  284   6.106   1.355   8.984 -0.0861  0.5950 -0.2435
    4CHL1  H24A  285   6.043   1.348   8.893  0.0049  0.3043 -0.2819
    4CHL1  H24B  286   6.071   1.448   9.036 -1.5384  0.7423 -1.4147
    4CHL1   C25  287   6.255   1.352   8.942 -0.1685 -0.0849 -0.4415
    4CHL1   H25  288   6.318   1.338   9.033  3.4939  0.7693 -2.6450
    4CHL1   C26  289   6.286   1.233   8.855 -0.2558  0.4973 -0.2845
    4CHL1  H26A  290   6.258   1.252   8.749 -1.3584  1.4073  0.1474
    4CHL1  H26B  291   6.393   1.204   8.853 -0.6239 -1.1356  1.3715
    4CHL1  H26C  292   6.239   1.141   8.894  0.8573  0.4365  0.9594
    4CHL1   C27  293   6.301   1.486   8.883  0.3228 -0.3292  0.4052
    4CHL1  H27A  294   6.404   1.474   8.844 -0.2043 -1.8340 -0.6282
    4CHL1  H27B  295   6.233   1.511   8.799  0.2205  0.2718  0.6598
    4CHL1  H27C  296   6.307   1.573   8.952  1.2201  1.2723 -1.5814
    5CHL1    C3  297   1.607   4.504  10.066  0.2758  0.5068 -1.0321
    5CHL1    H3  298   1.514   4.565  10.056 -1.8994 -2.4294  0.0437
    5CHL1    O3  299   1.617   4.464  10.207  0.4602 -0.0656  0.7937
    5CHL1   H3'  300   1.670   4.384  10.208 -0.1164 -0.6111  4.7898
    5CHL1    C4  301   1.601   4.385   9.971 -0.0479 -0.1212  0.6982
    5CHL1   H4A  302   1.694   4.325   9.986  0.5142  0.2123 -1.1800
    5CHL1   H4B  303   1.513   4.322   9.996 -0.4720  0.5261  0.8804
    5CHL1    C5  304   1.605   4.421   9.822  0.0272  0.0091 -0.1017
    5CHL1    C6  305   1.513   4.377   9.737 -0.0743 -0.4257 -0.0263
    5CHL1    H6  306   1.445   4.296   9.769  2.2504 -1.9886  1.2753
    5CHL1    C7  307   1.504   4.408   9.595 -0.1903 -0.1500  0.3110
    5CHL1   H7A  308   1.485   4.317   9.535 -2.2232  0.6261 -0.3033
    5CHL1   H7B  309   1.421   4.482   9.588  0.8264  0.8416 -3.8338
    5CHL1    C8  310   1.630   4.486   9.547  1.0832  0.2499  0.1188
    5CHL1    H8  311   1.710   4.412   9.523 -0.5146 -2.0901  1.5090
    5CHL1   C14  312   1.605   4.547   9.416 -0.1954  0.2068 -0.3373
    5CHL1   H14  313   1.531   4.629   9.431 -0.0668  0.2731 -0.0703
    5CHL1   C15  314   1.539   4.464   9.303 -0.4939  0.9159  0.1756
    5CHL1  H15A  315   1.594   4.367   9.313  1.0414  1.7845  0.4691
    5CHL1  H15B  316   1.433   4.437   9.320 -0.3124 -0.9002 -1.2864
    5CHL1   C16  317   1.582   4.536   9.171  0.2085  0.5262  0.0363
    5CHL1  H16A  318   1.650   4.469   9.114 -2.5568 -1.7310 -0.8232
    5CHL1  H16B  319   1.502   4.564   9.100  1.6524 -0.0090 -1.8792
    5CHL1   C17  320   1.662   4.666   9.214  0.4289  0.0637  0.7791
    5CHL1   H17  321   1.586   4.745   9.234 -1.5887 -1.6265  0.1757
    5CHL1   C13  322   1.728   4.621   9.349 -0.1986  0.3252  0.4404
    5CHL1   C18  323   1.852   4.536   9.320  0.3173  0.2045 -0.0439
    5CHL1  H18A  324   1.826   4.457   9.246  3.9511  2.4787 -4.2303
    5CHL1  H18B  325   1.924   4.607   9.272 -2.9806  2.9315 -1.3714
    5CHL1  H18C  326   1.894   4.486   9.409  2.0573 -0.6518 -1.2712
    5CHL1   C12  327   1.759   4.734   9.448 -0.4675 -0.5225  0.0625
    5CHL1  H12A  328   1.847   4.791   9.409 -1.2316  1.4188  1.0466
    5CHL1  H12B  329   1.671   4.802   9.452 -0.2886 -0.2692 -0.2346
    5CHL1   C11  330   1.782   4.689   9.592  0.8263 -0.0186 -0.5309
    5CHL1  H11A  331   1.881   4.638   9.588  1.4933  1.1513  0.1948
    5CHL1  H11B  332   1.797   4.776   9.659  2.7545 -0.4016 -0.3953
    5CHL1    C9  333   1.675   4.594   9.648  0.4190  0.1932  0.0421
    5CHL1    H9  334   1.587   4.658   9.671  1.2338  1.0263  0.8925
    5CHL1   C10  335   1.708   4.532   9.787 -0.0673  0.6507  0.5834
    5CHL1   C19  336   1.847   4.464   9.780 -0.2499  0.2497  0.3832
    5CHL1  H19A  337   1.851   4.417   9.680  0.8323  0.9644  0.0746
    5CHL1  H19B  338   1.924   4.544   9.783 -2.0237  2.0905 -0.7599
    5CHL1  H19C  339   1.879   4.400   9.865  0.0690  0.0563  0.1163
    5CHL1    C1  340   1.723   4.645   9.889 -0.3866  0.1468 -0.3073
    5CHL1   H1A  341   1.817   4.704   9.875 -0.3289 -0.2267 -1.6624
    5CHL1   H1B  342   1.644   4.723   9.885  1.0623  1.6187 -1.9916
    5CHL1    C2  343   1.732   4.593  10.027 -0.3157  0.4626 -0.6706
    5CHL1   H2A  344   1.741   4.678  10.099 -2.0546  0.0103  0.1322
    5CHL1   H2B  345   1.821   4.527  10.034 -0.4323  0.2732 -0.9348
    5CHL1   C20  346   1.744   4.727   9.095  0.5119 -0.3112 -0.5593
    5CHL1   H20  347   1.835   4.664   9.081  0.6190 -0.1381 -0.6474
    5CHL1   C21  348   1.786   4.872   9.133  0.4817  0.5462  0.5482
    5CHL1  H21A  349   1.698   4.934   9.163 -0.5267 -1.0451  1.0192
    5CHL1  H21B  350   1.841   4.923   9.052 -0.4536  0.4678 -0.1519
    5CHL1  H21C  351   1.850   4.866   9.224  0.9420  2.3083  0.3684
    5CHL1   C22  352   1.662   4.723   8.965 -0.2758 -0.8538  0.1979
    5CHL1  H22A  353   1.725   4.769   8.886 -1.9019  2.4235  0.6245
    5CHL1  H22B  354   1.640   4.621   8.928  1.5839 -1.3424  0.3008
    5CHL1   C23  355   1.545   4.822   8.967 -0.1455  0.0218 -0.5957
    5CHL1  H23A  356   1.481   4.800   9.055 -1.2022 -0.5760 -1.4896
    5CHL1  H23B  357   1.586   4.924   8.981  1.6812 -0.7498  0.0861
    5CHL1   C24  358   1.463   4.822   8.836 -0.4478 -0.1777 -0.2145
    5CHL1  H24A  359   1.516   4.772   8.753 -0.4938  2.2414 -1.7972
    5CHL1  H24B  360   1.378   4.758   8.867  0.2133 -0.1773  1.8150
    5CHL1   C25  361   1.404   4.961   8.799 -0.0650 -0.1869  0.1083
    5CHL1   H25  362   1.488   5.024   8.764  0.6734 -0.5938  1.1159
    5CHL1   C26  363   1.306   4.941   8.674 -0.2280  0.0559  0.2217
    5CHL1  H26A  364   1.237   5.028   8.662 -1.9999 -1.0596  1.7168
    5CHL1  H26B  365   1.359   4.923   8.578  0.6350 -1.0253  0.8839
    5CHL1  H26C  366   1.239   4.854   8.692  0.6927 -1.2842 -2.3093
    5CHL1   C27  367   1.325   5.035   8.907  0.2428  0.0579  0.0111
    5CHL1  H27A  368   1.389   5.041   8.997  0.6305  1.3409 -0.3226
    5CHL1  H27B  369   1.293   5.134   8.867  0.3430 -0.5039 -1.5208
    5CHL1  H27C  370   1.231   4.983   8.938 -0.6510  2.1480  0.9913
    6CHL1    C3  371   0.292   2.690  10.143 -0.0069  0.2534  0.6421
    6CHL1    H3  372   0.283   2.794  10.104  0.0595 -0.2920 -0.8724
    6CHL1    O3  373   0.273   2.688  10.284 -0.2584 -0.0442  0.2541
    6CHL1   H3'  374   0.273   2.598  10.318 -0.2274  1.0905  3.6832
    6CHL1    C4  375   0.167   2.610  10.094  0.5372  0.1399  0.6122
    6CHL1   H4A  376   0.158   2.512  10.146 -1.8739  1.1259  2.2545
    6CHL1   H4B  377   0.080   2.677  10.114  0.4749  0.5945 -1.0000
    6CHL1    C5  378   0.173   2.599   9.940 -0.0495 -0.0484  0.1773
    6CHL1    C6  379   0.062   2.637   9.875 -0.0038 -0.0721  0.5239
    6CHL1    H6  380  -0.020   2.683   9.932  0.8927 -0.3528  2.1059
    6CHL1    C7  381   0.055   2.629   9.727  0.2673 -0.8127 -0.0043
    6CHL1   H7A  382  -0.043   2.584   9.703 -0.4362 -0.5488  2.1688
    6CHL1   H7B  383   0.062   2.738   9.707 -1.7794 -0.4234  1.1134
    6CHL1    C8  384   0.176   2.558   9.663  0.7075  0.5588  0.0110
    6CHL1    H8  385   0.157   2.448   9.666  0.7865  0.5529  0.2919
    6CHL1   C14  386   0.174   2.608   9.521 -0.6380 -0.1288  0.7379
    6CHL1   H14  387   0.186   2.719   9.529 -2.1414  0.2281 -1.2208
    6CHL1   C15  388   0.043   2.600   9.437 -0.3549 -0.2581  0.3844
    6CHL1  H15A  389   0.011   2.494   9.429 -0.3420 -0.3235  1.1496
    6CHL1  H15B  390  -0.040   2.667   9.469 -0.1889  0.1641 -0.0605
    6CHL1   C16  391   0.090   2.652   9.299 -0.1123 -0.0112  0.1559
    6CHL1  H16A  392   0.045   2.597   9.214 -0.7204  1.5482 -0.5676
    6CHL1  H16B  393   0.069   2.761   9.297  1.7289  0.4143  1.2083
    6CHL1   C17  394   0.251   2.626   9.300  0.0493  0.8007  1.0328
    6CHL1   H17  395   0.285   2.732   9.308  1.0282  0.6869 -1.0084
    6CHL1   C13  396   0.284   2.556   9.430 -0.0905  0.1665 -0.1272
    6CHL1   C18  397   0.261   2.395   9.413  0.2524 -0.2499 -0.1135
    6CHL1  H18A  398   0.350   2.352   9.362  1.0875  1.2801  0.0034
    6CHL1  H18B  399   0.271   2.343   9.511 -0.2508 -0.9447 -0.4144
    6CHL1  H18C  400   0.166   2.374   9.359 -0.7261 -0.0248  1.4520
    6CHL1   C12  401   0.424   2.585   9.500  0.0639 -0.2406 -0.1829
    6CHL1  H12A  402   0.505   2.537   9.441  0.5726  0.4697 -0.0686
    6CHL1  H12B  403   0.446   2.693   9.483 -1.9318  0.3654  0.7671
    6CHL1   C11  404   0.429   2.547   9.650  0.0408 -0.6496  0.1174
    6CHL1  H11A  405   0.430   2.436   9.643 -2.4074 -0.6299 -3.3679
    6CHL1  H11B  406   0.521   2.592   9.691  0.2902 -1.1578  0.1263
    6CHL1    C9  407   0.305   2.599   9.732 -0.4599  0.7596 -0.8774
    6CHL1    H9  408   0.308   2.710   9.733 -1.7053  0.8259  0.9509
    6CHL1   C10  409   0.305   2.549   9.877  0.5481 -0.0206  0.2122
    6CHL1   C19  410   0.301   2.397   9.893  0.2351 -0.7764  0.2355
    6CHL1  H19A  411   0.384   2.343   9.842  1.5247  1.0134  0.3526
    6CHL1  H19B  412   0.317   2.381  10.002 -0.9484  1.9451  0.8910
    6CHL1  H19C  413   0.207   2.350   9.856  0.7942 -0.2071 -2.0202
    6CHL1    C1  414   0.430   2.604   9.945 -0.1428 -0.6817 -0.1441
    6CHL1   H1A  415   0.509   2.528   9.924  0.1026 -1.1819  2.2675
    6CHL1   H1B  416   0.442   2.704   9.897  2.5160  0.2163  2.1265
    6CHL1    C2  417   0.430   2.632  10.098  0.3463  0.1388 -0.2498
    6CHL1   H2A  418   0.516   2.693  10.132 -0.3202  1.7608 -1.3253
    6CHL1   H2B  419   0.450   2.538  10.155 -1.1660  0.5474  1.0249
    6CHL1   C20  420   0.313   2.572   9.169  0.2618 -0.6437 -0.4237
    6CHL1   H20  421   0.263   2.474   9.159 -0.0537 -0.7402  1.7652
    6CHL1   C21  422   0.467   2.541   9.174  0.7574  0.1311  0.5803
    6CHL1  H21A  423   0.523   2.633   9.200  2.3017 -0.1909 -1.3689
    6CHL1  H21B  424   0.509   2.511   9.075  1.6266 -0.7543  1.1910
    6CHL1  H21C  425   0.490   2.462   9.249  2.7815 -0.7438 -0.8798
    6CHL1   C22  426   0.282   2.654   9.047 -0.2764 -0.6307  0.3924
    6CHL1  H22A  427   0.191   2.717   9.051  0.9969  1.3092  0.4903
    6CHL1  H22B  428   0.364   2.730   9.045  0.0245 -0.9725 -0.4096
    6CHL1   C23  429   0.273   2.572   8.915 -0.9805 -0.4485 -0.3602
    6CHL1  H23A  430   0.376   2.551   8.879 -0.6932  0.5973 -0.1955
    6CHL1  H23B  431   0.220   2.475   8.929 -2.4192  0.2358 -0.9060
    6CHL1   C24  432   0.198   2.655   8.808  0.1703  0.4657  0.1776
    6CHL1  H24A  433   0.094   2.665   8.845  0.1324 -1.4243  0.7234
    6CHL1  H24B  434   0.248   2.752   8.790  0.3930  0.4967  0.9545
    6CHL1   C25  435   0.200   2.588   8.670  0.0991  0.0292  0.2478
    6CHL1   H25  436   0.180   2.479   8.673  0.5659 -0.0551  0.3431
    6CHL1   C26  437   0.091   2.645   8.591  0.6276  0.1126  0.3696
    6CHL1  H26A  438   0.075   2.752   8.567  2.3684  0.6484  1.4731
    6CHL1  H26B  439   0.092   2.595   8.491 -3.2226 -0.6197  0.5087
    6CHL1  H26C  440  -0.006   2.596   8.616  0.5425 -0.4282 -0.9316
    6CHL1   C27  441   0.330   2.608   8.598  0.0498  0.0593 -0.1507
    6CHL1  H27A  442   0.333   2.557   8.500 -1.4473 -0.3359 -0.0093
    6CHL1  H27B  443   0.353   2.713   8.573 -1.4123 -0.0573 -2.2098
    6CHL1  H27C  444   0.412   2.551   8.648 -0.6887 -1.6641 -0.8256
    7CHL1    C3  445   0.982   6.487  10.512  0.0326 -0.1701 -0.2946
    7CHL1    H3  446   1.044   6.405  10.471 -0.7080 -1.2208  0.6341
    7CHL1    O3  447   1.012   6.522  10.644 -0.3085  0.1792 -0.1464
    7CHL1   H3'  448   1.015   6.618  10.648  1.0062  0.1165  1.7715
    7CHL1    C4  449   0.989   6.616  10.429 -0.0927 -0.3916  0.4301
    7CHL1   H4A  450   0.908   6.679  10.474 -1.5130 -0.9718 -1.1901
    7CHL1   H4B  451   1.084   6.671  10.443  0.8136 -1.9762  0.6564
    7CHL1    C5  452   0.958   6.582  10.281 -0.4640  0.0958 -0.1226
    7CHL1    C6  453   1.032   6.625  10.176 -0.1165 -0.5990  0.0832
    7CHL1    H6  454   1.130   6.674  10.188  1.0899 -2.4176 -1.6283
    7CHL1    C7  455   1.009   6.598  10.028  0.4821  0.1888 -0.3148
    7CHL1   H7A  456   1.029   6.681   9.956  1.3122 -1.7552 -2.4516
    7CHL1   H7B  457   1.076   6.516   9.994 -1.2671 -0.8552 -1.4071
    7CHL1    C8  458   0.863   6.548  10.007  0.3889 -0.1438  0.1849
    7CHL1    H8  459   0.789   6.631  10.007 -1.0527 -1.3799 -0.3908
    7CHL1   C14  460   0.850   6.492   9.865  0.1965 -1.5584  0.4543
    7CHL1   H14  461   0.916   6.402   9.861  2.0603 -0.2193 -0.1353
    7CHL1   C15  462   0.889   6.587   9.748 -0.1947 -0.4715 -0.9444
    7CHL1  H15A  463   0.866   6.694   9.768  1.4286 -0.2805  0.0418
    7CHL1  H15B  464   0.999   6.575   9.746  0.0228  1.3230 -1.0543
    7CHL1   C16  465   0.830   6.522   9.623  0.8797 -0.5211  0.1744
    7CHL1  H16A  466   0.779   6.599   9.562  0.5360 -1.6328 -0.9833
    7CHL1  H16B  467   0.915   6.477   9.566 -0.5867 -0.8077 -1.9182
    7CHL1   C17  468   0.728   6.417   9.669  0.0604 -0.5218 -0.0434
    7CHL1   H17  469   0.770   6.314   9.669 -1.8571 -1.3778  1.5860
    7CHL1   C13  470   0.711   6.441   9.827 -0.8300 -0.0558  0.6713
    7CHL1   C18  471   0.605   6.547   9.844  0.1301 -0.5681 -0.3350
    7CHL1  H18A  472   0.503   6.513   9.817  0.9277 -2.3507 -1.3282
    7CHL1  H18B  473   0.606   6.586   9.948  3.3471 -0.3607 -0.3476
    7CHL1  H18C  474   0.641   6.633   9.784  1.9627 -1.0355  0.0175
    7CHL1   C12  475   0.686   6.321   9.922 -0.6863  0.4073  0.3139
    7CHL1  H12A  476   0.598   6.267   9.882  2.5151 -4.8928 -0.4569
    7CHL1  H12B  477   0.771   6.253   9.900 -1.0794  0.4654 -1.5543
    7CHL1   C11  478   0.691   6.361  10.074  0.8529  0.4895  0.3748
    7CHL1  H11A  479   0.607   6.429  10.098 -0.2788 -0.2834 -1.2862
    7CHL1  H11B  480   0.677   6.274  10.142 -1.0038  1.4095  1.2405
    7CHL1    C9  481   0.814   6.444  10.111 -0.3318 -0.0122  0.1786
    7CHL1    H9  482   0.894   6.367  10.110 -0.7681 -0.4617 -0.1296
    7CHL1   C10  483   0.821   6.506  10.251 -0.4287  0.1178 -0.3808
    7CHL1   C19  484   0.705   6.607  10.260 -0.1599 -0.8376 -0.2679
    7CHL1  H19A  485   0.702   6.659  10.359 -1.4952 -0.3363 -0.5552
    7CHL1  H19B  486   0.712   6.691  10.187 -0.0418 -0.4178  0.2138
    7CHL1  H19C  487   0.603   6.564  10.251  0.1794 -1.3117 -2.1701
    7CHL1    C1  488   0.797   6.400  10.367 -0.4857  0.2156  0.2275
    7CHL1   H1A  489   0.697   6.350  10.371 -0.4914 -0.1499 -2.4845
    7CHL1   H1B  490   0.858   6.309  10.347  2.4249  1.4995  2.4949
    7CHL1    C2  491   0.836   6.444  10.515  0.3807  0.0082  0.1510
    7CHL1   H2A  492   0.831   6.349  10.571  2.4889 -0.7171 -0.8113
    7CHL1   H2B  493   0.755   6.513  10.547  1.1886  1.1477 -0.2140
    7CHL1   C20  494   0.604   6.404   9.573  0.1805  0.3864 -0.1385
    7CHL1   H20  495   0.546   6.497   9.590 -1.5337 -0.1008 -2.6893
    7CHL1   C21  496   0.512   6.288   9.622  0.3168 -0.5576 -0.4626
    7CHL1  H21A  497   0.572   6.197   9.644 -1.2186 -1.2200  1.1779
    7CHL1  H21B  498   0.435   6.258   9.547  0.2303  0.1598 -0.6758
    7CHL1  H21C  499   0.458   6.304   9.717 -2.4459 -0.0674 -2.0036
    7CHL1   C22  500   0.652   6.384   9.425 -0.0239 -0.1024  0.4021
    7CHL1  H22A  501   0.566   6.345   9.366  0.0788 -0.7059  0.6427
    7CHL1  H22B  502   0.669   6.487   9.387  0.5422 -0.3951 -0.1697
    7CHL1   C23  503   0.764   6.293   9.385 -0.0548  0.1664 -0.5737
    7CHL1  H23A  504   0.860   6.338   9.416 -0.8634  0.3332  1.9247
    7CHL1  H23B  505   0.764   6.202   9.450  1.9137  1.1232  0.8820
    7CHL1   C24  506   0.768   6.244   9.238  0.1135  0.5312  0.1922
    7CHL1  H24A  507   0.868   6.195   9.233  0.4809  1.3489 -0.9763
    7CHL1  H24B  508   0.680   6.180   9.220  0.4761 -0.5896  2.2032
    7CHL1   C25  509   0.763   6.356   9.127 -0.2884  0.2872  0.5415
    7CHL1   H25  510   0.662   6.401   9.115 -0.8571 -0.7045  1.4475
    7CHL1   C26  511   0.869   6.463   9.147 -0.2296 -0.6609 -0.0081
    7CHL1  H26A  512   0.868   6.540   9.067  2.5347 -1.1844 -0.6499
    7CHL1  H26B  513   0.856   6.514   9.245 -0.8563  1.1405 -0.9792
    7CHL1  H26C  514   0.971   6.420   9.146 -1.2744 -3.7732 -4.1891
    7CHL1   C27  515   0.804   6.290   8.993 -0.1790 -0.4285  0.0203
    7CHL1  H27A  516   0.742   6.199   8.986  1.0114 -1.2900  0.2448
    7CHL1  H27B  517   0.793   6.358   8.906  2.1544 -3.0790 -2.5949
    7CHL1  H27C  518   0.907   6.247   8.993 -0.8811 -2.2997  2.0876
    8CHL1    C3  519   6.710   2.035   9.976 -0.0088  0.3761 -0.6481
    8CHL1    H3  520   6.609   2.008   9.936 -1.5844  2.5396  1.5491
    8CHL1    O3  521   6.715   2.039  10.117  0.3912 -0.2649 -0.7990
    8CHL1   H3'  522   6.662   2.114  10.144  0.7241 -0.6484  1.1094
    8CHL1    C4  523   6.814   1.938   9.926  0.2354 -0.2761  0.6766
    8CHL1   H4A  524   6.913   1.964   9.969  0.6231 -0.0072 -0.3604
    8CHL1   H4B  525   6.794   1.836   9.965  1.2843 -1.9633 -2.7818
    8CHL1    C5  526   6.824   1.931   9.774  0.1530 -0.3884  0.2941
    8CHL1    C6  527   6.810   1.816   9.710 -0.5857  0.4497 -0.0269
    8CHL1    H6  528   6.790   1.726   9.770 -0.4617  1.0160  0.8950
    8CHL1    C7  529   6.821   1.795   9.558 -0.1416 -0.2982 -0.5488
    8CHL1   H7A  530   6.885   1.709   9.527  0.9508  0.0701  0.6075
    8CHL1   H7B  531   6.719   1.776   9.517 -0.2450  0.0371 -0.4480
    8CHL1    C8  532   6.858   1.927   9.479  0.0561 -0.1465 -0.1596
    8CHL1    H8  533   6.969   1.930   9.493  0.3194 -1.1214 -1.7264
    8CHL1   C14  534   6.823   1.917   9.329 -0.1062 -0.0866  0.3532
    8CHL1   H14  535   6.712   1.912   9.328 -0.2141  0.9526 -2.2198
    8CHL1   C15  536   6.869   1.801   9.250  0.0129  0.7149  0.4338
    8CHL1  H15A  537   6.976   1.790   9.278  0.3485  0.1812 -1.0220
    8CHL1  H15B  538   6.810   1.710   9.274  0.6270 -0.0162 -0.7473
    8CHL1   C16  539   6.853   1.850   9.106  0.0858 -0.6345 -0.2835
    8CHL1  H16A  540   6.953   1.836   9.060  1.5131  2.0858  1.6810
    8CHL1  H16B  541   6.776   1.795   9.049 -0.8278 -0.4189  0.7164
    8CHL1   C17  542   6.815   1.997   9.114 -0.4491  0.1507 -0.1354
    8CHL1   H17  543   6.704   1.997   9.118 -0.5342  0.3965 -1.8721
    8CHL1   C13  544   6.852   2.046   9.253  0.2484 -0.0988  0.0886
    8CHL1   C18  545   7.001   2.072   9.255  0.0334  0.3206  1.2378
    8CHL1  H18A  546   7.059   2.004   9.189  0.0094  0.8070  0.7103
    8CHL1  H18B  547   7.022   2.173   9.215  2.4042 -0.9679 -1.1133
    8CHL1  H18C  548   7.048   2.075   9.356  1.2505  0.4312  0.6819
    8CHL1   C12  549   6.777   2.162   9.318  0.7511 -0.0845  0.6943
    8CHL1  H12A  550   6.797   2.260   9.271  0.3742 -0.2343  0.2070
    8CHL1  H12B  551   6.667   2.150   9.308  0.7849  0.2719 -0.2148
    8CHL1   C11  552   6.819   2.177   9.464  0.6397  0.4353 -0.1238
    8CHL1  H11A  553   6.927   2.197   9.478  0.9878 -0.0714 -1.9481
    8CHL1  H11B  554   6.762   2.263   9.505 -2.0274  0.4659 -3.4556
    8CHL1    C9  555   6.796   2.046   9.551  0.2455  0.8699  0.2658
    8CHL1    H9  556   6.685   2.032   9.547 -0.0462  2.8076 -3.1740
    8CHL1   C10  557   6.837   2.065   9.703  0.2819 -0.1947  0.0356
    8CHL1   C19  558   6.984   2.117   9.723 -0.3890 -0.0689  1.0001
    8CHL1  H19A  559   6.995   2.218   9.679  2.3215 -0.4135  0.7044
    8CHL1  H19B  560   7.021   2.105   9.827 -0.6839 -1.5698  0.9532
    8CHL1  H19C  561   7.047   2.056   9.654 -0.1156 -0.4328  1.5656
    8CHL1    C1  562   6.737   2.167   9.770 -0.1718  0.0154  0.0583
    8CHL1   H1A  563   6.749   2.271   9.731  0.0196  0.1517  0.4734
    8CHL1   H1B  564   6.633   2.141   9.741  0.0544  0.1039 -0.8599
    8CHL1    C2  565   6.745   2.181   9.922 -0.1909  0.2873 -0.1438
    8CHL1   H2A  566   6.669   2.253   9.960 -1.5654 -0.9332 -0.4511
    8CHL1   H2B  567   6.847   2.216   9.944 -0.1322  0.9972 -1.4552
    8CHL1   C20  568   6.861   2.079   8.988  0.2413 -0.0670  0.1749
    8CHL1   H20  569   6.971   2.066   8.983  0.1368 -2.1637  1.7686
    8CHL1   C21  570   6.820   2.226   9.004  0.4086 -0.2908  0.1802
    8CHL1  H21A  571   6.847   2.284   8.913  1.9762  2.1715  2.0761
    8CHL1  H21B  572   6.880   2.266   9.088 -0.1213  0.5486  0.1738
    8CHL1  H21C  573   6.709   2.223   9.012  0.2785  0.1904 -1.1784
    8CHL1   C22  574   6.807   2.010   8.849  0.0616  0.7958 -0.7342
    8CHL1  H22A  575   6.708   1.967   8.877 -0.7347  1.5550 -2.2577
    8CHL1  H22B  576   6.792   2.094   8.777 -0.8046  0.4821 -0.9315
    8CHL1   C23  577   6.888   1.898   8.796  0.0854 -0.1559 -0.1473
    8CHL1  H23A  578   6.996   1.925   8.801 -0.0920  0.3793  1.4901
    8CHL1  H23B  579   6.888   1.805   8.857  1.4723  0.3520  0.6712
    8CHL1   C24  580   6.852   1.869   8.650 -0.4108 -0.0100  0.0719
    8CHL1  H24A  581   6.749   1.899   8.621 -1.2692 -1.7057  1.1795
    8CHL1  H24B  582   6.919   1.935   8.591 -0.1004 -2.4084 -2.4861
    8CHL1   C25  583   6.866   1.723   8.606  0.3015  0.7592  0.2566
    8CHL1   H25  584   6.801   1.668   8.677 -0.1604  1.5810  0.4861
    8CHL1   C26  585   6.815   1.706   8.468 -0.5088 -0.3925  0.1614
    8CHL1  H26A  586   6.714   1.745   8.442 -0.8540 -0.4843  1.3325
    8CHL1  H26B  587   6.886   1.748   8.394  2.1385 -0.2064  2.6418
    8CHL1  H26C  588   6.824   1.598   8.445  2.2296 -0.2086  0.0776
    8CHL1   C27  589   7.017   1.664   8.621  0.0971  1.4503 -0.5721
    8CHL1  H27A  590   7.082   1.703   8.540 -0.9914  0.6662 -1.8737
    8CHL1  H27B  591   7.058   1.663   8.724  0.3419 -3.4093 -0.4434
    8CHL1  H27C  592   7.002   1.556   8.598 -0.1854  1.1418  0.9477
    9CHL1    C3  593   5.034   3.228  10.216  0.5362  0.3248  0.5739
    9CHL1    H3  594   5.099   3.151  10.168  0.4841  0.1794  0.7338
    9CHL1    O3  595   5.084   3.247  10.349 -0.0827 -0.0156  0.2891
    9CHL1   H3'  596   5.023   3.300  10.399  0.2174  1.1542 -0.5469
    9CHL1    C4  597   5.038   3.358  10.140 -0.1570 -0.0288  0.3645
    9CHL1   H4A  598   4.980   3.440  10.188  1.4298  1.5987 -0.3416
    9CHL1   H4B  599   5.141   3.401  10.149 -1.0709  1.9668  2.1404
    9CHL1    C5  600   4.994   3.345   9.996 -0.1848 -0.0024 -0.3711
    9CHL1    C6  601   5.078   3.374   9.896  0.3399 -0.0901  0.0212
    9CHL1    H6  602   5.182   3.405   9.915  1.1038 -1.0571 -2.2368
    9CHL1    C7  603   5.032   3.369   9.754 -0.5695  0.1319 -0.4710
    9CHL1   H7A  604   5.078   3.461   9.709 -0.4307  0.6898  0.7774
    9CHL1   H7B  605   5.073   3.282   9.699 -1.0278 -0.7673  0.5935
    9CHL1    C8  606   4.878   3.368   9.738  0.0932 -0.3239  0.1648
    9CHL1    H8  607   4.834   3.468   9.759 -1.0894 -0.9139  0.6255
    9CHL1   C14  608   4.843   3.333   9.595  0.0149 -0.8230 -0.1465
    9CHL1   H14  609   4.886   3.233   9.578 -1.0553 -1.6057  1.4120
    9CHL1   C15  610   4.900   3.435   9.491  0.0969  0.1758  0.4249
    9CHL1  H15A  611   4.890   3.540   9.527 -0.4907 -0.5691  2.5666
    9CHL1  H15B  612   5.010   3.422   9.479 -0.0561 -0.7905  0.0291
    9CHL1   C16  613   4.820   3.400   9.362  0.3912  0.5761 -0.4890
    9CHL1  H16A  614   4.787   3.497   9.318  0.7660  0.0557 -1.9670
    9CHL1  H16B  615   4.872   3.331   9.293 -1.3256  0.5536 -1.8360
    9CHL1   C17  616   4.690   3.326   9.407 -0.1824  0.2771  0.3152
    9CHL1   H17  617   4.720   3.225   9.374  1.3835  1.6223 -2.7848
    9CHL1   C13  618   4.690   3.329   9.570 -0.3939  1.0978  0.1237
    9CHL1   C18  619   4.622   3.459   9.622  0.7924  0.2202 -0.1956
    9CHL1  H18A  620   4.604   3.457   9.731 -0.3213  2.0496 -0.3096
    9CHL1  H18B  621   4.680   3.547   9.587 -0.0228  0.6889 -0.3907
    9CHL1  H18C  622   4.523   3.480   9.576  0.3940  3.5785  1.8307
    9CHL1   C12  623   4.635   3.203   9.657 -0.0689 -0.7907  0.5107
    9CHL1  H12A  624   4.527   3.187   9.633 -0.0003 -0.4322 -0.0591
    9CHL1  H12B  625   4.687   3.113   9.620  1.1587  0.0539  0.1072
    9CHL1   C11  626   4.667   3.217   9.800 -0.3129 -0.4103 -0.4068
    9CHL1  H11A  627   4.595   3.294   9.837  0.7590  1.0366 -1.2379
    9CHL1  H11B  628   4.645   3.127   9.862  1.0493 -1.0572 -0.8221
    9CHL1    C9  629   4.815   3.254   9.825 -0.2036 -1.0682  0.1273
    9CHL1    H9  630   4.866   3.160   9.794 -0.0433 -0.1640 -2.5571
    9CHL1   C10  631   4.846   3.291   9.981 -0.2615  0.9828 -0.2094
    9CHL1   C19  632   4.745   3.393  10.031 -0.1572 -0.1513  1.0815
    9CHL1  H19A  633   4.646   3.346  10.048 -1.5142  1.5805 -1.4515
    9CHL1  H19B  634   4.777   3.452  10.120  0.0360  2.0714 -0.3940
    9CHL1  H19C  635   4.737   3.472   9.954  0.0197 -0.9781  0.1878
    9CHL1    C1  636   4.844   3.167  10.070  0.6418  0.6818 -0.6131
    9CHL1   H1A  637   4.738   3.136  10.079  0.4931  0.9496 -1.3201
    9CHL1   H1B  638   4.902   3.082  10.028 -0.0365 -0.6144  0.9526
    9CHL1    C2  639   4.893   3.177  10.211  0.1969  0.0745  0.6046
    9CHL1   H2A  640   4.873   3.079  10.259 -2.9919  0.4345  0.2616
    9CHL1   H2B  641   4.830   3.247  10.271  0.7069  1.1763 -0.1143
    9CHL1   C20  642   4.557   3.368   9.335 -0.2499  0.2660  0.0404
    9CHL1   H20  643   4.540   3.476   9.355  1.0810  0.6181 -0.6313
    9CHL1   C21  644   4.441   3.279   9.388 -0.1517 -0.2408  0.3859
    9CHL1  H21A  645   4.347   3.272   9.328 -0.3916 -1.2373  0.8635
    9CHL1  H21B  646   4.422   3.313   9.492  1.2392 -1.0907  0.9501
    9CHL1  H21C  647   4.476   3.174   9.390 -2.4202 -1.0658  0.3768
    9CHL1   C22  648   4.571   3.349   9.179 -0.2691  0.7601  0.7312
    9CHL1  H22A  649   4.481   3.396   9.132  0.3431  2.0961  0.8352
    9CHL1  H22B  650   4.653   3.412   9.138 -1.7260  2.6187  0.5248
    9CHL1   C23  651   4.575   3.200   9.127 -0.1638 -0.5469  0.8476
    9CHL1  H23A  652   4.631   3.135   9.197  1.0559  0.6998  1.0817
    9CHL1  H23B  653   4.469   3.168   9.122 -0.5467  0.8341 -1.0684
    9CHL1   C24  654   4.630   3.203   8.982  0.3085  0.5266  0.4788
    9CHL1  H24A  655   4.595   3.111   8.932  0.9573  0.1527  0.6960
    9CHL1  H24B  656   4.588   3.290   8.928  0.9650  1.8392  1.9846
    9CHL1   C25  657   4.780   3.213   8.975 -0.1302  0.3221  0.3490
    9CHL1   H25  658   4.800   3.308   9.028 -0.9581  1.5557 -1.4496
    9CHL1   C26  659   4.841   3.099   9.045  0.4309  0.1432  0.1995
    9CHL1  H26A  660   4.829   3.122   9.153  0.7403  0.0289  0.2578
    9CHL1  H26B  661   4.798   3.000   9.019 -0.9079  0.3565  1.4596
    9CHL1  H26C  662   4.949   3.098   9.019  0.3631  2.7370 -0.4441
    9CHL1   C27  663   4.819   3.220   8.829  0.5642  0.5290 -0.4567
    9CHL1  H27A  664   4.929   3.229   8.819  0.4215  0.0895 -3.0366
    9CHL1  H27B  665   4.789   3.126   8.777  0.9106 -0.9083  1.7928
    9CHL1  H27C  666   4.784   3.317   8.789  2.2074  1.8827  1.2298
   10CHL1    C3  667   4.296   6.119  10.020  0.4914 -0.4836 -0.0700
   10CHL1    H3  668   4.398   6.160  10.031  0.7694 -1.1509 -0.1465
   10CHL1    O3  669   4.245   6.127  10.150 -0.7891 -0.3724  0.2018
   10CHL1   H3'  670   4.327   6.127  10.200  0.4915  0.6994 -1.7988
   10CHL1    C4  671   4.196   6.192   9.932  0.0783 -0.0451  0.5715
   10CHL1   H4A  672   4.091   6.155   9.926  0.7134 -1.8761  0.0977
   10CHL1   H4B  673   4.196   6.299   9.962 -0.1246  0.2763 -0.4977
   10CHL1    C5  674   4.233   6.181   9.782 -0.0687  0.2953 -0.0233
   10CHL1    C6  675   4.258   6.291   9.715 -0.7383 -0.6265 -0.2029
   10CHL1    H6  676   4.247   6.391   9.761 -0.7393 -1.7968  2.5207
   10CHL1    C7  677   4.293   6.285   9.566 -0.3135  0.2924 -0.2893
   10CHL1   H7A  678   4.227   6.358   9.515  0.4748  1.6857  0.6296
   10CHL1   H7B  679   4.396   6.317   9.543  0.3965 -1.8575 -0.3221
   10CHL1    C8  680   4.266   6.145   9.501 -0.5142 -0.2441 -0.4854
   10CHL1    H8  681   4.158   6.117   9.498 -0.3798 -0.7438 -0.6090
   10CHL1   C14  682   4.320   6.141   9.356  0.3895  0.3356  0.0581
   10CHL1   H14  683   4.428   6.164   9.373 -0.0624  3.0929 -0.3604
   10CHL1   C15  684   4.263   6.239   9.257  0.0826 -0.2736  0.3548
   10CHL1  H15A  685   4.154   6.240   9.241  0.0058 -3.8243 -0.1853
   10CHL1  H15B  686   4.293   6.343   9.284  1.5000 -0.7823  0.8310
   10CHL1   C16  687   4.323   6.185   9.121  0.1282 -0.1540 -0.4546
   10CHL1  H16A  688   4.239   6.189   9.048 -1.6858  1.2124  1.6163
   10CHL1  H16B  689   4.402   6.252   9.082 -1.9404  3.2638  0.7970
   10CHL1   C17  690   4.376   6.039   9.149  0.8218 -0.2889  0.4743
   10CHL1   H17  691   4.486   6.040   9.165  1.2711  1.2378 -2.1469
   10CHL1   C13  692   4.318   6.002   9.286  0.0383 -0.2353 -0.9072
   10CHL1   C18  693   4.176   5.955   9.263 -0.0716  0.7269 -0.6598
   10CHL1  H18A  694   4.176   5.846   9.241 -0.3838  1.0294 -2.2501
   10CHL1  H18B  695   4.127   5.953   9.363 -0.2827 -2.1741 -0.7226
   10CHL1  H18C  696   4.132   6.016   9.183 -1.0901  0.3098 -0.4290
   10CHL1   C12  697   4.400   5.908   9.374  0.1180 -0.7103  0.0098
   10CHL1  H12A  698   4.392   5.801   9.344 -1.8436 -0.5517 -0.1666
   10CHL1  H12B  699   4.507   5.935   9.372 -0.8376  3.8203 -0.9573
   10CHL1   C11  700   4.355   5.906   9.521 -0.0050  0.1478 -0.3156
   10CHL1  H11A  701   4.249   5.872   9.511 -0.4094  1.6818 -1.8405
   10CHL1  H11B  702   4.407   5.831   9.583  0.5667 -0.0645 -1.0371
   10CHL1    C9  703   4.329   6.047   9.590  0.0063  0.2091  0.4815
   10CHL1    H9  704   4.433   6.083   9.605  0.3791 -1.1691  1.4294
   10CHL1   C10  705   4.260   6.036   9.728 -0.2118 -0.4123  0.1394
   10CHL1   C19  706   4.124   5.948   9.713  0.2050  0.0651 -0.5721
   10CHL1  H19A  707   4.147   5.841   9.690 -1.4344 -0.0305 -1.9389
   10CHL1  H19B  708   4.071   5.953   9.811  0.0027  2.4521 -0.7669
   10CHL1  H19C  709   4.055   5.977   9.632 -0.2377 -0.2412 -0.3123
   10CHL1    C1  710   4.357   5.969   9.831  0.0109  0.1649 -0.2332
   10CHL1   H1A  711   4.349   5.862   9.801 -2.0831 -0.2866  1.6762
   10CHL1   H1B  712   4.459   6.010   9.817 -0.3535  0.8094 -1.1622
   10CHL1    C2  713   4.302   5.975   9.977 -0.1080  0.0951  0.8493
   10CHL1   H2A  714   4.376   5.923  10.042  1.3804 -1.6679 -2.0569
   10CHL1   H2B  715   4.205   5.923   9.991  0.0061 -0.2260  0.4652
   10CHL1   C20  716   4.351   5.945   9.033 -0.8291  0.2954 -0.6538
   10CHL1   H20  717   4.247   5.908   9.016 -0.7342  0.0995 -0.8177
   10CHL1   C21  718   4.440   5.822   9.065 -0.1602 -0.3786 -0.7253
   10CHL1  H21A  719   4.444   5.767   8.968 -2.5532  0.3545 -1.3068
   10CHL1  H21B  720   4.392   5.755   9.140 -0.0173  1.3746  1.0157
   10CHL1  H21C  721   4.544   5.852   9.090  1.2777 -3.8578 -1.7727
   10CHL1   C22  722   4.387   6.019   8.900  0.1494  0.3480  0.1524
   10CHL1  H22A  723   4.315   6.097   8.868  0.4696  0.1498 -1.0803
   10CHL1  H22B  724   4.479   6.078   8.915  1.4169 -0.3732 -3.7606
   10CHL1   C23  725   4.407   5.935   8.775  0.7963  0.4909  0.3207
   10CHL1  H23A  726   4.418   6.007   8.691  0.4712 -0.1354 -0.2607
   10CHL1  H23B  727   4.496   5.871   8.792 -0.2349 -1.2643 -0.6171
   10CHL1   C24  728   4.294   5.844   8.733 -0.0460  0.1385  0.5462
   10CHL1  H24A  729   4.266   5.778   8.818  0.6549  0.4924  1.0583
   10CHL1  H24B  730   4.208   5.905   8.697 -0.0617 -1.2298 -1.9380
   10CHL1   C25  731   4.321   5.746   8.611  0.3565 -0.4240 -0.3068
   10CHL1   H25  732   4.223   5.699   8.587 -0.8733  0.4225  2.6227
   10CHL1   C26  733   4.373   5.813   8.486 -0.4762  0.3838 -0.0243
   10CHL1  H26A  734   4.293   5.876   8.441 -1.3417 -0.0238  0.8981
   10CHL1  H26B  735   4.454   5.886   8.505  0.2928  0.0176 -1.6938
   10CHL1  H26C  736   4.409   5.739   8.411 -0.2777  0.1593  0.2897
   10CHL1   C27  737   4.430   5.651   8.648  0.1269  0.7682 -0.0999
   10CHL1  H27A  738   4.524   5.698   8.684 -0.8632  1.2038  2.0897
   10CHL1  H27B  739   4.395   5.587   8.733 -0.9174  0.1170 -0.9919
   10CHL1  H27C  740   4.454   5.588   8.560  0.4435  0.8354 -0.0607
   11CHL1    C3  741   6.118   5.144  10.055  0.0308 -0.5023 -0.3561
   11CHL1    H3  742   6.180   5.225  10.012 -1.7259  0.6229 -0.8739
   11CHL1    O3  743   6.096   5.150  10.194 -0.6069 -0.0099  0.7969
   11CHL1   H3'  744   6.069   5.239  10.216 -1.5339 -0.1990  0.4787
   11CHL1    C4  745   5.982   5.184   9.989 -1.0520  0.1336 -0.7448
   11CHL1   H4A  746   5.909   5.115  10.036  0.6333  0.5057  2.7346
   11CHL1   H4B  747   5.942   5.283  10.019 -3.4964 -1.2617  0.9933
   11CHL1    C5  748   5.984   5.164   9.837 -0.5146 -0.6259  0.2880
   11CHL1    C6  749   5.943   5.264   9.758 -0.2221  0.1361  0.6409
   11CHL1    H6  750   5.900   5.356   9.800 -0.8098  0.6687 -1.0361
   11CHL1    C7  751   5.945   5.257   9.613 -0.4692 -0.5088 -0.1688
   11CHL1   H7A  752   5.851   5.299   9.572 -0.6931 -0.9556 -0.1263
   11CHL1   H7B  753   6.019   5.330   9.575 -0.9919  1.7856  2.8407
   11CHL1    C8  754   5.979   5.123   9.549 -0.1588 -0.0805 -0.1751
   11CHL1    H8  755   5.886   5.062   9.555 -1.6834  2.1572  0.1375
   11CHL1   C14  756   6.009   5.137   9.401  0.1094 -0.4370 -0.8737
   11CHL1   H14  757   6.098   5.202   9.393  0.7047 -0.7735  1.7698
   11CHL1   C15  758   5.914   5.211   9.312 -0.5700  0.3680  0.1796
   11CHL1  H15A  759   5.816   5.160   9.327 -0.1129 -1.0180 -1.1915
   11CHL1  H15B  760   5.911   5.318   9.339  0.0780 -0.1884  2.7922
   11CHL1   C16  761   5.970   5.176   9.173 -0.3371 -0.3650 -0.2549
   11CHL1  H16A  762   5.899   5.141   9.095  1.5966  0.2324 -2.3991
   11CHL1  H16B  763   6.028   5.260   9.130 -3.4131  1.7038 -0.6468
   11CHL1   C17  764   6.075   5.061   9.191  0.0206  0.2095 -0.2149
   11CHL1   H17  765   6.177   5.105   9.204  1.3388 -2.6122 -0.3406
   11CHL1   C13  766   6.043   5.008   9.336 -0.5147  0.4392  0.4645
   11CHL1   C18  767   5.915   4.917   9.324 -0.2349 -0.1290  0.3397
   11CHL1  H18A  768   5.832   4.971   9.273 -0.7934 -0.1663  1.1730
   11CHL1  H18B  769   5.933   4.820   9.273 -0.6165 -0.0106 -0.0282
   11CHL1  H18C  770   5.868   4.895   9.422 -0.5333  0.4086  0.3252
   11CHL1   C12  771   6.158   4.950   9.411  0.5273  0.9356 -0.2227
   11CHL1  H12A  772   6.192   4.860   9.355  1.2824  0.8591  0.3396
   11CHL1  H12B  773   6.245   5.017   9.395  0.4595  0.9419 -0.5806
   11CHL1   C11  774   6.133   4.925   9.562 -0.1674  0.5292  0.0030
   11CHL1  H11A  775   6.053   4.848   9.563 -2.2306  2.5558  0.3038
   11CHL1  H11B  776   6.227   4.886   9.607 -0.6525 -2.6569 -1.4669
   11CHL1    C9  777   6.088   5.058   9.631 -0.2114 -0.4633  0.1278
   11CHL1    H9  778   6.174   5.128   9.622 -0.5372 -0.0179  0.4640
   11CHL1   C10  779   6.053   5.037   9.783  0.4855 -0.1221 -0.3475
   11CHL1   C19  780   5.957   4.917   9.797 -1.0492 -0.1539 -0.2216
   11CHL1  H19A  781   6.020   4.826   9.804 -0.9344 -0.4261 -3.3768
   11CHL1  H19B  782   5.909   4.926   9.897 -0.4748  0.7877 -0.0113
   11CHL1  H19C  783   5.884   4.906   9.714 -0.2633 -2.2560 -0.6903
   11CHL1    C1  784   6.185   5.019   9.856 -0.6731  0.4358 -0.5137
   11CHL1   H1A  785   6.244   4.933   9.816 -0.1488  1.2210 -1.5001
   11CHL1   H1B  786   6.243   5.113   9.842 -1.0155  0.7803  0.3311
   11CHL1    C2  787   6.169   5.007  10.010  0.6063 -0.2083 -0.7827
   11CHL1   H2A  788   6.269   4.987  10.052  0.0471 -2.0098 -0.2338
   11CHL1   H2B  789   6.097   4.923  10.023 -0.6609  0.4613 -2.8860
   11CHL1   C20  790   6.078   4.974   9.072 -0.7007  0.9795  0.6808
   11CHL1   H20  791   5.981   4.920   9.064 -0.7313  1.0648  0.4554
   11CHL1   C21  792   6.178   4.862   9.090  0.0354  0.4043 -0.1693
   11CHL1  H21A  793   6.272   4.899   9.136 -0.0842  0.1036  0.3305
   11CHL1  H21B  794   6.208   4.810   8.997 -1.1409  1.5611 -1.2401
   11CHL1  H21C  795   6.136   4.787   9.161 -1.3262  0.5900 -0.7522
   11CHL1   C22  796   6.105   5.041   8.938 -0.0531 -0.0404  0.8089
   11CHL1  H22A  797   6.113   4.968   8.854  0.0810  0.3765  0.4552
   11CHL1  H22B  798   6.015   5.101   8.913 -0.4464 -1.8034 -2.5194
   11CHL1   C23  799   6.238   5.121   8.937 -0.2696 -0.1309  0.0576
   11CHL1  H23A  800   6.226   5.212   8.999  0.0251 -0.4675  0.6225
   11CHL1  H23B  801   6.318   5.076   9.000  0.4001  2.1563  0.9228
   11CHL1   C24  802   6.286   5.154   8.791  0.7075  0.2736  0.3101
   11CHL1  H24A  803   6.272   5.067   8.723 -3.8813  0.9294  0.0869
   11CHL1  H24B  804   6.221   5.238   8.757  1.3904  0.1663 -1.3762
   11CHL1   C25  805   6.431   5.206   8.787  0.1606 -0.7698 -1.0503
   11CHL1   H25  806   6.490   5.128   8.839  0.4134  0.8475  1.2197
   11CHL1   C26  807   6.485   5.248   8.646  0.1732  0.4391 -0.5762
   11CHL1  H26A  808   6.585   5.294   8.663  0.9717 -1.7428  1.0640
   11CHL1  H26B  809   6.491   5.160   8.578  1.8106 -0.6646  0.9237
   11CHL1  H26C  810   6.415   5.326   8.607  0.3750  0.9206  0.0121
   11CHL1   C27  811   6.441   5.325   8.880  0.2899  0.1234 -0.1831
   11CHL1  H27A  812   6.376   5.408   8.844 -1.1115 -1.4230 -1.3411
   11CHL1  H27B  813   6.433   5.302   8.989  1.5451  2.0069  0.3639
   11CHL1  H27C  814   6.544   5.365   8.868 -0.6418  2.6035 -0.4907
   12CHL1    C3  815   6.440   1.891  10.338 -0.9721  0.4974  0.0938
   12CHL1    H3  816   6.531   1.950  10.313  0.3117 -0.2706  2.6163
   12CHL1    O3  817   6.438   1.873  10.480  0.0510  0.0860 -0.2446
   12CHL1   H3'  818   6.461   1.955  10.525  3.3975 -0.7155 -0.1744
   12CHL1    C4  819   6.321   1.974  10.284 -0.2367 -0.3640 -0.2076
   12CHL1   H4A  820   6.228   1.932  10.328  0.1536  0.3260  1.3460
   12CHL1   H4B  821   6.338   2.068  10.341 -3.8503 -0.7037  1.7424
   12CHL1    C5  822   6.315   1.980  10.128  0.3357  0.1087  0.7345
   12CHL1    C6  823   6.309   2.098  10.067  0.4398 -0.1904  0.4939
   12CHL1    H6  824   6.302   2.188  10.130 -1.4402  0.7410 -0.9433
   12CHL1    C7  825   6.308   2.116   9.913  0.0371 -0.0606 -0.3687
   12CHL1   H7A  826   6.222   2.186   9.910 -0.4289 -0.5099  1.2961
   12CHL1   H7B  827   6.405   2.160   9.881 -0.0076  1.3438  1.2582
   12CHL1    C8  828   6.292   1.986   9.835  0.1948  0.1694 -0.1739
   12CHL1    H8  829   6.183   1.963   9.835  0.2414 -0.0764 -1.3401
   12CHL1   C14  830   6.344   1.982   9.687 -0.3525 -0.2619 -0.4386
   12CHL1   H14  831   6.452   1.967   9.709 -0.6157 -1.0681  0.3822
   12CHL1   C15  832   6.338   2.108   9.596  0.2529  0.0696  0.4656
   12CHL1  H15A  833   6.240   2.159   9.606  0.2452  0.0037  0.7327
   12CHL1  H15B  834   6.418   2.179   9.625 -0.5006  1.8957 -1.6692
   12CHL1   C16  835   6.349   2.066   9.452 -0.4801  0.7198  0.1755
   12CHL1  H16A  836   6.257   2.100   9.400  0.5992  0.9801 -1.6382
   12CHL1  H16B  837   6.434   2.113   9.397 -0.3263 -1.0846 -1.2060
   12CHL1   C17  838   6.369   1.906   9.455  0.3602  0.5030 -0.0043
   12CHL1   H17  839   6.477   1.882   9.458 -0.1753 -2.0114  1.9893
   12CHL1   C13  840   6.308   1.861   9.598  0.1602  0.5628  0.5823
   12CHL1   C18  841   6.149   1.850   9.597 -0.5536  0.4457  1.5309
   12CHL1  H18A  842   6.115   1.825   9.700  0.3259  0.2847  1.7889
   12CHL1  H18B  843   6.100   1.944   9.566 -0.3183 -0.4012 -1.7411
   12CHL1  H18C  844   6.121   1.777   9.518 -3.0895  1.0615  1.7914
   12CHL1   C12  845   6.371   1.736   9.661 -0.3088  0.3805 -0.5471
   12CHL1  H12A  846   6.353   1.638   9.614  0.5150 -0.1485  0.1969
   12CHL1  H12B  847   6.479   1.763   9.659  0.5571 -2.7217  0.0230
   12CHL1   C11  848   6.332   1.725   9.809  0.0372 -0.4589 -0.3160
   12CHL1  H11A  849   6.231   1.680   9.821 -0.5137  0.0402 -2.5712
   12CHL1  H11B  850   6.407   1.660   9.860 -1.0870 -0.5285  1.3121
   12CHL1    C9  851   6.356   1.861   9.900  0.4209  0.1371 -0.2574
   12CHL1    H9  852   6.465   1.879   9.898  0.4033  0.2787  0.0080
   12CHL1   C10  853   6.324   1.844  10.052 -0.3634 -0.3178 -0.1188
   12CHL1   C19  854   6.193   1.765  10.064  0.5491 -0.0067 -0.1208
   12CHL1  H19A  855   6.207   1.659  10.034  2.4493 -0.6068  2.5254
   12CHL1  H19B  856   6.149   1.754  10.166 -0.8050 -2.4196 -0.8770
   12CHL1  H19C  857   6.106   1.808  10.011  0.8753 -2.2128 -2.6534
   12CHL1    C1  858   6.446   1.756  10.124  0.4784  0.1507 -0.4385
   12CHL1   H1A  859   6.446   1.654  10.079  1.5566  0.4614 -1.1951
   12CHL1   H1B  860   6.543   1.797  10.091  0.1550 -0.3846 -2.1837
   12CHL1    C2  861   6.445   1.753  10.274  0.0772  0.5316 -0.1784
   12CHL1   H2A  862   6.534   1.701  10.315 -0.7775  1.0842  2.5340
   12CHL1   H2B  863   6.365   1.685  10.310 -0.6268  1.7999  0.7068
   12CHL1   C20  864   6.305   1.844   9.326  0.5400  0.2156 -0.8781
   12CHL1   H20  865   6.196   1.865   9.328  0.5231  0.4114  2.4313
   12CHL1   C21  866   6.314   1.688   9.325  0.7567  0.3637 -0.5099
   12CHL1  H21A  867   6.285   1.649   9.225 -3.0271 -0.6546  0.8325
   12CHL1  H21B  868   6.257   1.634   9.404 -2.0057  3.4715 -0.1635
   12CHL1  H21C  869   6.422   1.664   9.334  1.2096  1.5536 -2.1395
   12CHL1   C22  870   6.374   1.893   9.197 -0.5296 -0.5174  0.4732
   12CHL1  H22A  871   6.442   1.978   9.218 -0.4562 -0.0020 -1.6262
   12CHL1  H22B  872   6.430   1.809   9.150 -0.7818  0.9278 -2.6412
   12CHL1   C23  873   6.274   1.941   9.085  0.8834 -0.0557 -0.2918
   12CHL1  H23A  874   6.206   1.855   9.071  1.7569 -0.6253 -1.2016
   12CHL1  H23B  875   6.215   2.022   9.134  1.0161  0.2631 -0.6517
   12CHL1   C24  876   6.340   1.994   8.961 -0.3013  0.0345 -0.1789
   12CHL1  H24A  877   6.405   2.078   8.993 -2.3363  2.4693 -2.0235
   12CHL1  H24B  878   6.411   1.921   8.917  0.4149  0.7511 -0.2180
   12CHL1   C25  879   6.240   2.052   8.862  0.2594  0.3584  0.0061
   12CHL1   H25  880   6.174   2.122   8.918  0.6372 -0.6291  1.7305
   12CHL1   C26  881   6.305   2.135   8.755  0.4826  0.0306 -0.0807
   12CHL1  H26A  882   6.251   2.226   8.722  1.1947 -0.0620 -1.6109
   12CHL1  H26B  883   6.396   2.185   8.796  1.7735 -0.1986 -2.4828
   12CHL1  H26C  884   6.343   2.078   8.667  0.1695 -1.5221  0.7536
   12CHL1   C27  885   6.154   1.945   8.787  0.1171  0.4412  0.7782
   12CHL1  H27A  886   6.122   1.871   8.863  0.3427  0.5883  1.0199
   12CHL1  H27B  887   6.070   1.991   8.730 -1.4054 -1.0306  1.7529
   12CHL1  H27C  888   6.225   1.891   8.721 -0.6321  0.2382  0.1154
   13CHL1    C3  889   4.991   1.752   9.974  0.5534 -0.3039  0.3340
   13CHL1    H3  890   5.097   1.729   9.998  0.8077 -2.1526 -2.2580
   13CHL1    O3  891   4.911   1.741  10.090 -0.4468  0.2328  0.2051
   13CHL1   H3'  892   4.890   1.648  10.098 -2.0202  0.6316  1.3349
   13CHL1    C4  893   4.977   1.892   9.919 -0.1178 -0.2093 -0.2485
   13CHL1   H4A  894   4.872   1.908   9.886  0.1305  1.1921 -0.4062
   13CHL1   H4B  895   5.004   1.960  10.003 -1.9410  1.1684 -0.6971
   13CHL1    C5  896   5.066   1.913   9.795 -0.5645  0.0781 -0.3006
   13CHL1    C6  897   5.167   2.000   9.797  0.2757 -0.0505 -0.4075
   13CHL1    H6  898   5.179   2.070   9.881 -1.3308  0.2869 -0.4273
   13CHL1    C7  899   5.266   2.026   9.681  0.1143 -0.0594 -0.6410
   13CHL1   H7A  900   5.265   2.131   9.646 -1.5540  0.2371  0.1980
   13CHL1   H7B  901   5.366   1.987   9.709  0.2802  1.6097  1.3091
   13CHL1    C8  902   5.228   1.955   9.540  0.4432  0.0607  0.4050
   13CHL1    H8  903   5.140   2.008   9.498 -2.3732 -3.3690  1.4188
   13CHL1   C14  904   5.342   1.942   9.437 -0.6020 -0.7938  0.6460
   13CHL1   H14  905   5.420   1.877   9.480  0.6239 -0.5388 -1.0771
   13CHL1   C15  906   5.414   2.075   9.397  0.5418 -0.2874 -0.1967
   13CHL1  H15A  907   5.350   2.162   9.375  1.0849  0.2068  0.1550
   13CHL1  H15B  908   5.469   2.110   9.487  0.8612  1.0791 -0.9028
   13CHL1   C16  909   5.486   2.031   9.271  0.1207  0.5109 -0.1269
   13CHL1  H16A  910   5.475   2.106   9.190  0.1592  1.1840  0.4865
   13CHL1  H16B  911   5.591   2.016   9.305 -0.7118 -1.0765  1.9838
   13CHL1   C17  912   5.429   1.891   9.227 -0.4237 -1.1636  0.1009
   13CHL1   H17  913   5.497   1.816   9.274  0.1618  0.0809  1.3245
   13CHL1   C13  914   5.299   1.870   9.308  0.5622 -0.0644  0.7899
   13CHL1   C18  915   5.184   1.941   9.234 -0.2421 -0.3317 -0.1994
   13CHL1  H18A  916   5.095   1.969   9.294 -0.3815 -0.0881 -0.5202
   13CHL1  H18B  917   5.220   2.032   9.183 -1.8102 -0.0188 -0.8053
   13CHL1  H18C  918   5.138   1.878   9.155  0.4398 -1.9461  0.6234
   13CHL1   C12  919   5.273   1.728   9.353  0.1207  0.3684 -0.3671
   13CHL1  H12A  920   5.267   1.652   9.272  0.3097 -0.5143  0.4398
   13CHL1  H12B  921   5.359   1.697   9.416  1.5477  0.9403 -1.9345
   13CHL1   C11  922   5.150   1.723   9.447  0.0310 -0.1589  0.3609
   13CHL1  H11A  923   5.056   1.742   9.392  0.9612 -1.6255 -1.8524
   13CHL1  H11B  924   5.152   1.616   9.476 -0.0784 -0.3924 -0.4746
   13CHL1    C9  925   5.165   1.818   9.577  0.3971  0.2222 -0.2753
   13CHL1    H9  926   5.243   1.770   9.640 -0.8040  1.6502  2.4784
   13CHL1   C10  927   5.045   1.817   9.674 -0.1272 -0.0940  0.2758
   13CHL1   C19  928   4.913   1.846   9.602 -0.4696  0.1024  0.2141
   13CHL1  H19A  929   4.894   1.778   9.516 -3.8243 -0.2331  1.0794
   13CHL1  H19B  930   4.822   1.839   9.665  0.8738  0.1076  2.2575
   13CHL1  H19C  931   4.916   1.949   9.562 -2.5451  0.0447 -0.2240
   13CHL1    C1  932   5.040   1.676   9.735  0.2420 -0.8327 -0.0777
   13CHL1   H1A  933   5.003   1.605   9.657 -0.7072 -1.0018  0.5037
   13CHL1   H1B  934   5.143   1.635   9.745 -0.0056 -1.4110  0.2022
   13CHL1    C2  935   4.952   1.652   9.863  0.1085 -0.1233  0.0984
   13CHL1   H2A  936   4.959   1.549   9.902 -1.4784  0.0616  0.9150
   13CHL1   H2B  937   4.849   1.673   9.829 -0.2698 -3.0721 -0.8042
   13CHL1   C20  938   5.419   1.874   9.078  0.4803  0.3749 -0.4154
   13CHL1   H20  939   5.335   1.936   9.040  2.0376  1.9321 -1.4824
   13CHL1   C21  940   5.394   1.722   9.048 -0.7119 -0.7018 -0.3885
   13CHL1  H21A  941   5.438   1.699   8.949  0.3891  0.1687 -0.1201
   13CHL1  H21B  942   5.284   1.708   9.051 -1.0121  1.3063  3.0202
   13CHL1  H21C  943   5.435   1.653   9.125 -0.9196  1.2969  1.6339
   13CHL1   C22  944   5.552   1.918   9.005  0.1227 -0.5055  0.0017
   13CHL1  H22A  945   5.611   1.988   9.068 -1.2052  0.4975  0.1904
   13CHL1  H22B  946   5.613   1.829   8.979 -0.7426 -1.1064 -0.0163
   13CHL1   C23  947   5.531   1.992   8.870  1.2211 -0.1378 -0.5404
   13CHL1  H23A  948   5.462   1.939   8.802  2.2122 -0.3004 -1.4530
   13CHL1  H23B  949   5.471   2.082   8.893  0.4446 -0.9014  0.5058
   13CHL1   C24  950   5.653   2.025   8.791 -0.0731  0.5535 -0.0996
   13CHL1  H24A  951   5.724   2.073   8.862  1.7927 -2.5873  0.3192
   13CHL1  H24B  952   5.700   1.930   8.757 -0.1451  1.6027 -3.5090
   13CHL1   C25  953   5.629   2.105   8.669  0.0682  0.2272  0.1331
   13CHL1   H25  954   5.560   2.191   8.686  0.1185  1.1312 -3.4918
   13CHL1   C26  955   5.769   2.146   8.622 -0.9655  0.1146 -0.2715
   13CHL1  H26A  956   5.828   2.198   8.701  0.8410  0.1867 -1.6137
   13CHL1  H26B  957   5.826   2.055   8.595  1.5991  1.9641 -1.4557
   13CHL1  H26C  958   5.773   2.205   8.528 -0.4679 -0.2442 -0.4762
   13CHL1   C27  959   5.561   2.023   8.557 -0.1428  0.1615  0.0819
   13CHL1  H27A  960   5.465   1.984   8.597 -0.2603 -0.1688 -0.4987
   13CHL1  H27B  961   5.535   2.083   8.467 -0.6445  0.1936  0.2457
   13CHL1  H27C  962   5.623   1.933   8.537 -0.0501 -0.3419  2.3764
   14CHL1    C3  963   0.325   5.498  10.230  0.0037  0.4378  0.1153
   14CHL1    H3  964   0.425   5.451  10.216 -0.6302 -0.2395 -2.7611
   14CHL1    O3  965   0.295   5.471  10.366 -0.3522 -0.4158  0.1420
   14CHL1   H3'  966   0.208   5.431  10.375 -0.1872 -0.6389  0.8482
   14CHL1    C4  967   0.318   5.648  10.206 -0.3996 -0.3190  0.0910
   14CHL1   H4A  968   0.222   5.678  10.252  0.9598 -0.8421  3.5451
   14CHL1   H4B  969   0.393   5.706  10.263 -1.4107  1.8763 -0.6981
   14CHL1    C5  970   0.330   5.683  10.061 -0.2324  0.2639 -0.1492
   14CHL1    C6  971   0.419   5.784  10.027 -0.0986 -0.2474  0.0458
   14CHL1    H6  972   0.489   5.816  10.106  1.0577  2.9670 -2.1036
   14CHL1    C7  973   0.444   5.833   9.881  0.6602 -0.0009 -0.4018
   14CHL1   H7A  974   0.450   5.944   9.876  1.6399 -0.0319 -0.1424
   14CHL1   H7B  975   0.532   5.776   9.847  1.7719 -0.0505  2.3303
   14CHL1    C8  976   0.329   5.795   9.789 -0.2558  0.4821 -0.1937
   14CHL1    H8  977   0.234   5.851   9.801 -0.6899 -0.0299 -1.1351
   14CHL1   C14  978   0.369   5.819   9.647 -0.4301  0.3980  0.1466
   14CHL1   H14  979   0.452   5.748   9.627  1.0759  2.6151 -2.0126
   14CHL1   C15  980   0.431   5.953   9.614 -0.4041 -0.0599 -0.0098
   14CHL1  H15A  981   0.367   6.036   9.650 -0.3542 -1.3476  3.5212
   14CHL1  H15B  982   0.531   5.973   9.659 -0.6067 -0.8787  0.8521
   14CHL1   C16  983   0.437   5.949   9.460 -0.1970 -0.5724 -0.0838
   14CHL1  H16A  984   0.403   6.045   9.416 -1.3814 -0.6035  0.7138
   14CHL1  H16B  985   0.546   5.944   9.440  0.1117  1.2860  0.9369
   14CHL1   C17  986   0.358   5.822   9.413 -0.8874 -0.2455  0.0224
   14CHL1   H17  987   0.433   5.741   9.397 -0.3875  0.6032 -2.4336
   14CHL1   C13  988   0.271   5.784   9.540 -0.0797  0.7202  0.1483
   14CHL1   C18  989   0.144   5.864   9.549 -0.4738  0.1779 -0.2423
   14CHL1  H18A  990   0.070   5.831   9.473  1.5447  1.3173 -2.8591
   14CHL1  H18B  991   0.104   5.864   9.652  2.5729  1.4438  1.0676
   14CHL1  H18C  992   0.165   5.968   9.515  0.0375 -0.0760 -0.7276
   14CHL1   C12  993   0.246   5.633   9.561  0.4759  0.3673  0.1576
   14CHL1  H12A  994   0.185   5.597   9.476  1.2851  2.2256 -1.2907
   14CHL1  H12B  995   0.337   5.573   9.542 -1.2625 -1.7250 -2.1101
   14CHL1   C11  996   0.190   5.596   9.695 -0.4889 -0.0666  0.8045
   14CHL1  H11A  997   0.087   5.636   9.702 -0.4776 -0.1307  1.3577
   14CHL1  H11B  998   0.184   5.486   9.706 -0.2719 -0.1154  0.4442
   14CHL1    C9  999   0.291   5.651   9.805  0.1078  1.0948 -0.0957
   14CHL1    H9 1000   0.388   5.596   9.794 -0.1440  0.3658  1.1332
   14CHL1   C10 1001   0.244   5.611   9.955 -0.4746  0.2803 -1.0470
   14CHL1   C19 1002   0.096   5.657   9.975  0.3259  0.1373 -0.4267
   14CHL1  H19A 1003   0.063   5.645  10.081 -1.2149  0.9270 -0.7832
   14CHL1  H19B 1004   0.082   5.767   9.961 -3.3046 -0.2913 -0.9965
   14CHL1  H19C 1005   0.029   5.599   9.909 -0.5017  1.2263 -0.5816
   14CHL1    C1 1006   0.256   5.463   9.990 -0.4512  0.3041 -0.1834
   14CHL1   H1A 1007   0.196   5.401   9.921 -0.0360  0.1707 -0.4292
   14CHL1   H1B 1008   0.357   5.427   9.962 -2.0565 -3.5749 -1.7008
   14CHL1    C2 1009   0.227   5.422  10.135  0.1647 -0.4754 -0.0596
   14CHL1   H2A 1010   0.233   5.313  10.155  2.3334 -0.3187  0.4021
   14CHL1   H2B 1011   0.129   5.458  10.173  0.9031  1.6450 -0.0326
   14CHL1   C20 1012   0.292   5.840   9.275 -0.3843  0.7517 -0.1885
   14CHL1   H20 1013   0.215   5.919   9.289 -0.6771  0.3710  0.3953
   14CHL1   C21 1014   0.236   5.705   9.235  0.2044  0.2473  0.4787
   14CHL1  H21A 1015   0.308   5.620   9.228 -1.6805 -1.3205 -0.9720
   14CHL1  H21B 1016   0.195   5.707   9.132  0.4597  0.1091  0.3727
   14CHL1  H21C 1017   0.160   5.657   9.300  0.6090  0.0875  0.8402
   14CHL1   C22 1018   0.404   5.883   9.174  0.3127 -0.1102  0.1771
   14CHL1  H22A 1019   0.457   5.972   9.212  0.6400 -1.0267  1.9515
   14CHL1  H22B 1020   0.473   5.796   9.164 -0.4779 -0.8350  0.7765
   14CHL1   C23 1021   0.346   5.921   9.040 -0.2899  0.3783 -0.4506
   14CHL1  H23A 1022   0.346   5.825   8.983  1.0876  0.3081 -0.3632
   14CHL1  H23B 1023   0.243   5.961   9.050 -0.3990  0.1631 -0.7010
   14CHL1   C24 1024   0.438   6.010   8.962 -0.5829 -0.1367 -0.4386
   14CHL1  H24A 1025   0.454   6.108   9.013  1.1343 -1.3210  1.4499
   14CHL1  H24B 1026   0.539   5.965   8.962 -0.0845  0.9019  0.6344
   14CHL1   C25 1027   0.409   6.026   8.810  0.6594  0.4948 -0.4378
   14CHL1   H25 1028   0.396   5.929   8.757 -1.3325  0.3174  0.2781
   14CHL1   C26 1029   0.274   6.103   8.788 -0.2125  0.1238  0.3981
   14CHL1  H26A 1030   0.266   6.127   8.680 -0.1677 -1.1209  0.1058
   14CHL1  H26B 1031   0.180   6.047   8.808 -0.0341 -0.5388 -0.5192
   14CHL1  H26C 1032   0.279   6.200   8.842 -2.9150  1.2830 -1.1856
   14CHL1   C27 1033   0.523   6.107   8.753 -0.7943  0.7867 -0.6342
   14CHL1  H27A 1034   0.623   6.077   8.792 -1.6207 -0.5491  0.5441
   14CHL1  H27B 1035   0.530   6.121   8.643  3.0518  0.3700 -0.6071
   14CHL1  H27C 1036   0.509   6.209   8.794  1.3004  0.9172 -0.1039
   15CHL1    C3 1037   3.399   2.537  10.115  0.3268 -0.0323  0.2613
   15CHL1    H3 1038   3.401   2.640  10.074 -1.5926 -0.3487 -0.7566
   15CHL1    O3 1039   3.360   2.557  10.256 -0.0808  0.4907 -0.0142
   15CHL1   H3' 1040   3.343   2.467  10.284 -0.1754  0.5838  0.2303
   15CHL1    C4 1041   3.280   2.457  10.053 -0.8607  0.4982  0.4098
   15CHL1   H4A 1042   3.281   2.353  10.093  0.3933  0.2027 -0.3495
   15CHL1   H4B 1043   3.186   2.512  10.078 -0.2275  1.2222  1.2949
   15CHL1    C5 1044   3.306   2.455   9.900 -0.6100 -0.2606 -0.3301
   15CHL1    C6 1045   3.223   2.522   9.818 -0.5217  0.0899  0.1407
   15CHL1    H6 1046   3.139   2.568   9.871  1.9022  1.6362  2.9482
   15CHL1    C7 1047   3.226   2.515   9.671  0.0357 -0.6142 -0.8820
   15CHL1   H7A 1048   3.131   2.487   9.621  0.6585  0.2506 -2.6737
   15CHL1   H7B 1049   3.260   2.615   9.635  0.5914 -0.0332  1.1482
   15CHL1    C8 1050   3.330   2.409   9.617  0.2389 -0.3148 -0.2744
   15CHL1    H8 1051   3.275   2.313   9.628  0.0895 -0.3139 -0.9769
   15CHL1   C14 1052   3.366   2.433   9.471 -0.1293  0.3039  0.0757
   15CHL1   H14 1053   3.426   2.527   9.469  1.3743 -0.6255 -0.8006
   15CHL1   C15 1054   3.248   2.459   9.370  0.4835 -0.1182 -0.0927
   15CHL1  H15A 1055   3.170   2.384   9.392  0.8680 -0.5008 -0.0262
   15CHL1  H15B 1056   3.207   2.562   9.366  0.9011  0.0753  0.5042
   15CHL1   C16 1057   3.311   2.433   9.228 -1.0211 -0.4771  0.8627
   15CHL1  H16A 1058   3.244   2.370   9.166 -2.6236  1.6634  0.3159
   15CHL1  H16B 1059   3.332   2.520   9.163  0.3757 -0.2484  1.5780
   15CHL1   C17 1060   3.454   2.375   9.258 -0.3441  0.2287 -0.1738
   15CHL1   H17 1061   3.527   2.459   9.259 -1.8770  1.6389  0.7492
   15CHL1   C13 1062   3.455   2.329   9.406 -0.0254 -0.2645 -0.8974
   15CHL1   C18 1063   3.376   2.199   9.408  0.2043  0.6018  0.1090
   15CHL1  H18A 1064   3.272   2.210   9.371  0.0985 -1.1116 -0.1759
   15CHL1  H18B 1065   3.426   2.121   9.348  0.7057  1.2229 -0.2991
   15CHL1  H18C 1066   3.383   2.164   9.513  1.5356 -0.4613 -0.3069
   15CHL1   C12 1067   3.584   2.335   9.486 -0.0802  0.0867  0.2091
   15CHL1  H12A 1068   3.651   2.251   9.459  0.3062 -0.3196  2.2675
   15CHL1  H12B 1069   3.635   2.431   9.465  1.6633  0.0080  3.5124
   15CHL1   C11 1070   3.566   2.314   9.636  0.3586  0.0186 -0.1133
   15CHL1  H11A 1071   3.524   2.212   9.641 -0.9667  0.1808 -3.9533
   15CHL1  H11B 1072   3.662   2.319   9.691  0.5558 -0.3661 -0.4156
   15CHL1    C9 1073   3.458   2.405   9.701  0.0692 -0.5929  0.1949
   15CHL1    H9 1074   3.509   2.504   9.702  1.1555 -1.1293  0.3505
   15CHL1   C10 1075   3.430   2.374   9.858  0.7161 -0.3807 -0.0093
   15CHL1   C19 1076   3.400   2.221   9.876  0.3639  0.0964 -0.7138
   15CHL1  H19A 1077   3.361   2.206   9.979 -1.6634  2.7328 -0.9878
   15CHL1  H19B 1078   3.309   2.190   9.821 -0.2454 -3.4572  1.9357
   15CHL1  H19C 1079   3.477   2.150   9.838 -1.2317 -1.4097 -1.2630
   15CHL1    C1 1080   3.549   2.419   9.945 -0.1266  0.3700  0.2757
   15CHL1   H1A 1081   3.640   2.355   9.945  1.3244  2.3047  0.2527
   15CHL1   H1B 1082   3.583   2.515   9.901 -1.7800  0.7258 -0.2870
   15CHL1    C2 1083   3.521   2.446  10.099 -0.3965 -0.1222 -0.0789
   15CHL1   H2A 1084   3.603   2.496  10.155  0.2994 -0.5141 -0.7327
   15CHL1   H2B 1085   3.517   2.350  10.154 -0.1570 -0.4822 -0.6738
   15CHL1   C20 1086   3.504   2.278   9.149  0.1358 -0.0564  0.6345
   15CHL1   H20 1087   3.450   2.181   9.147  1.2376 -0.6976 -1.6359
   15CHL1   C21 1088   3.652   2.247   9.188  0.3199  0.1579  0.7168
   15CHL1  H21A 1089   3.704   2.336   9.230 -1.1855  1.4559 -0.0490
   15CHL1  H21B 1090   3.710   2.190   9.112 -0.1626  0.9149 -0.2479
   15CHL1  H21C 1091   3.649   2.166   9.264  1.0888  1.2567  1.9361
   15CHL1   C22 1092   3.495   2.345   9.012 -0.7952  0.7232  0.5340
   15CHL1  H22A 1093   3.386   2.357   8.993 -1.5403 -0.4364  3.5937
   15CHL1  H22B 1094   3.539   2.447   9.018 -2.2854  1.5444 -1.2464
   15CHL1   C23 1095   3.554   2.279   8.882  0.2151 -0.2092 -0.2932
   15CHL1  H23A 1096   3.655   2.243   8.910  0.3539 -0.1012 -0.6491
   15CHL1  H23B 1097   3.500   2.185   8.859  1.2602 -0.6987 -0.8003
   15CHL1   C24 1098   3.552   2.377   8.760  0.1095  0.6978  0.4917
   15CHL1  H24A 1099   3.452   2.424   8.745  0.1809  1.0423  1.0501
   15CHL1  H24B 1100   3.627   2.458   8.772 -0.8651  1.6178  0.5815
   15CHL1   C25 1101   3.591   2.308   8.626 -0.1944 -0.1842  0.2237
   15CHL1   H25 1102   3.684   2.254   8.652 -1.5983 -2.0246  1.8091
   15CHL1   C26 1103   3.485   2.209   8.575 -0.5828  0.2388  0.1669
   15CHL1  H26A 1104   3.530   2.153   8.491 -0.6279 -0.6829  0.7359
   15CHL1  H26B 1105   3.455   2.126   8.643 -2.1671 -0.1141 -0.9207
   15CHL1  H26C 1106   3.396   2.262   8.534  0.0944  1.5959  0.3934
   15CHL1   C27 1107   3.614   2.416   8.517 -0.2341  0.2261 -0.3428
   15CHL1  H27A 1108   3.530   2.489   8.511 -0.6813 -0.3984 -3.2216
   15CHL1  H27B 1109   3.700   2.481   8.544  1.7163 -1.9434 -1.0196
   15CHL1  H27C 1110   3.634   2.371   8.418  1.8757 -1.9504  0.9720
   16CHL1    C3 1111   2.164   4.741  10.333  0.2779 -0.5563  0.3584
   16CHL1    H3 1112   2.095   4.654  10.332  1.3959 -1.5803  2.9592
   16CHL1    O3 1113   2.200   4.762  10.469  0.3470  0.0803 -0.3825
   16CHL1   H3' 1114   2.219   4.854  10.490 -0.1319  0.1789 -0.3655
   16CHL1    C4 1115   2.288   4.695  10.256 -0.5563 -0.0028  0.6173
   16CHL1   H4A 1116   2.366   4.770  10.280  0.9682 -0.2149 -2.9710
   16CHL1   H4B 1117   2.331   4.598  10.290  0.8008 -0.2197 -1.5417
   16CHL1    C5 1118   2.259   4.687  10.105  0.0335 -0.0241 -0.1685
   16CHL1    C6 1119   2.281   4.576  10.039 -0.5353 -0.1808  0.3270
   16CHL1    H6 1120   2.331   4.502  10.102  1.1791  1.6443  1.2363
   16CHL1    C7 1121   2.277   4.570   9.889  0.6901  0.3979 -0.4378
   16CHL1   H7A 1122   2.372   4.523   9.854  1.4682  1.7328 -0.2238
   16CHL1   H7B 1123   2.189   4.506   9.866  0.3101 -1.0109  4.1246
   16CHL1    C8 1124   2.270   4.711   9.830  0.1995  0.2448 -0.1021
   16CHL1    H8 1125   2.373   4.754   9.825 -0.1500  1.2014  0.6101
   16CHL1   C14 1126   2.217   4.704   9.675 -0.8966  0.0603 -0.4858
   16CHL1   H14 1127   2.115   4.662   9.674 -0.8225 -0.1851  0.7267
   16CHL1   C15 1128   2.299   4.608   9.584 -0.3310  0.2878 -0.1007
   16CHL1  H15A 1129   2.406   4.627   9.605 -0.8320  2.6422  0.6694
   16CHL1  H15B 1130   2.273   4.504   9.614 -0.1647  0.3699  0.3419
   16CHL1   C16 1131   2.253   4.651   9.448 -0.2223 -0.3397 -0.1394
   16CHL1  H16A 1132   2.341   4.655   9.381  0.0324 -0.9123  0.1515
   16CHL1  H16B 1133   2.179   4.582   9.401 -1.6490  1.6270 -0.9153
   16CHL1   C17 1134   2.177   4.790   9.451  0.5392 -0.3785 -0.0850
   16CHL1   H17 1135   2.070   4.760   9.451  0.2692  0.5715 -0.5330
   16CHL1   C13 1136   2.206   4.836   9.594  0.6928 -0.1435 -1.2499
   16CHL1   C18 1137   2.342   4.901   9.602 -0.5612  0.5011  0.1873
   16CHL1  H18A 1138   2.357   4.995   9.544 -0.7750  1.2853  1.3737
   16CHL1  H18B 1139   2.380   4.923   9.704 -2.8968 -0.3399  1.3135
   16CHL1  H18C 1140   2.418   4.834   9.556 -0.9891  0.1552 -0.0274
   16CHL1   C12 1141   2.098   4.916   9.678 -0.1023 -0.1615 -1.3190
   16CHL1  H12A 1142   2.085   5.016   9.630 -0.2165 -0.1166 -1.1954
   16CHL1  H12B 1143   1.998   4.868   9.667 -0.1286 -0.1118 -1.2983
   16CHL1   C11 1144   2.132   4.931   9.828 -0.1577 -0.3088 -0.5571
   16CHL1  H11A 1145   2.211   5.010   9.831 -1.6470  1.2740 -1.2184
   16CHL1  H11B 1146   2.042   4.980   9.871 -1.0301 -2.0099 -0.3577
   16CHL1    C9 1147   2.170   4.798   9.901 -0.2520 -0.4801  0.3377
   16CHL1    H9 1148   2.080   4.734   9.909 -0.2317 -0.4301  1.0852
   16CHL1   C10 1149   2.205   4.814  10.049  0.4180  0.3408  0.1907
   16CHL1   C19 1150   2.320   4.918  10.047  0.1454 -0.0915 -0.5531
   16CHL1  H19A 1151   2.286   5.023  10.053  2.3902  0.8496 -2.7221
   16CHL1  H19B 1152   2.393   4.903  10.130 -0.5905  1.1094  0.3516
   16CHL1  H19C 1153   2.375   4.918   9.951  1.3609 -0.5227  0.1193
   16CHL1    C1 1154   2.087   4.877  10.123  0.5587  0.0705 -0.8794
   16CHL1   H1A 1155   2.074   4.979  10.081  0.7456  0.4953  0.0733
   16CHL1   H1B 1156   1.993   4.821  10.104  0.8521 -0.7171 -0.0861
   16CHL1    C2 1157   2.106   4.877  10.277 -0.4041  0.0762 -0.4265
   16CHL1   H2A 1158   2.012   4.904  10.329 -0.7543  0.8779 -1.4472
   16CHL1   H2B 1159   2.179   4.955  10.307 -0.8251  0.6872 -0.9519
   16CHL1   C20 1160   2.199   4.883   9.333  0.6050  0.1542 -0.2422
   16CHL1   H20 1161   2.305   4.917   9.344  0.7626  0.3056 -1.9729
   16CHL1   C21 1162   2.104   5.007   9.349  0.5814 -0.0761 -0.0908
   16CHL1  H21A 1163   2.136   5.085   9.422 -1.3545  0.0284  0.7206
   16CHL1  H21B 1164   2.002   4.977   9.380 -0.0368  0.0280 -1.9038
   16CHL1  H21C 1165   2.102   5.062   9.253  0.4180  1.0468  0.5467
   16CHL1   C22 1166   2.185   4.814   9.195  0.5865 -0.5584 -0.3155
   16CHL1  H22A 1167   2.244   4.720   9.189 -0.0898 -1.0378  0.2719
   16CHL1  H22B 1168   2.081   4.781   9.171 -1.0624  3.2456  0.8595
   16CHL1   C23 1169   2.226   4.903   9.073  1.0763  0.3099  0.2951
   16CHL1  H23A 1170   2.173   5.000   9.077 -0.4006 -0.4385 -0.3831
   16CHL1  H23B 1171   2.334   4.925   9.068  0.3924  4.7782  0.9166
   16CHL1   C24 1172   2.184   4.832   8.939  0.2967 -0.0542 -0.5294
   16CHL1  H24A 1173   2.217   4.729   8.962  2.0551  0.9387  1.7384
   16CHL1  H24B 1174   2.073   4.834   8.933  0.0104  1.6089  2.8656
   16CHL1   C25 1175   2.248   4.894   8.812  0.5211  0.8530  0.2442
   16CHL1   H25 1176   2.359   4.893   8.821  0.5100  0.0706  0.3925
   16CHL1   C26 1177   2.211   4.807   8.688  0.1036 -0.0925 -0.8493
   16CHL1  H26A 1178   2.107   4.820   8.652  0.4053  1.6839 -1.1846
   16CHL1  H26B 1179   2.292   4.842   8.620  2.2116 -1.5838  0.7831
   16CHL1  H26C 1180   2.232   4.701   8.714  2.2383  1.2569  4.2147
   16CHL1   C27 1181   2.190   5.037   8.793  0.2329  0.0533 -0.1616
   16CHL1  H27A 1182   2.243   5.091   8.712 -1.0160  2.7307  0.6964
   16CHL1  H27B 1183   2.082   5.031   8.769 -0.1087 -0.8385  1.4919
   16CHL1  H27C 1184   2.208   5.097   8.885 -0.0480  1.0315 -0.7349
   17CHL1    C3 1185   4.588   0.307  10.149  0.1261  0.2006 -0.6316
   17CHL1    H3 1186   4.532   0.400  10.171  0.7141  1.0427 -2.4892
   17CHL1    O3 1187   4.612   0.236  10.264  0.2975  0.3811 -0.2007
   17CHL1   H3' 1188   4.658   0.292  10.327 -0.7828  0.1134  0.8648
   17CHL1    C4 1189   4.509   0.221  10.040  0.5282 -0.6671  0.2950
   17CHL1   H4A 1190   4.569   0.128  10.042  1.5439 -0.0284  1.3188
   17CHL1   H4B 1191   4.406   0.193  10.073 -0.1160 -0.4506 -1.4334
   17CHL1    C5 1192   4.508   0.298   9.908 -0.8163  0.0648  0.0490
   17CHL1    C6 1193   4.394   0.321   9.837  0.3279  0.6459  1.0506
   17CHL1    H6 1194   4.298   0.290   9.880  0.3799 -1.2658 -0.1073
   17CHL1    C7 1195   4.374   0.380   9.703  0.1394 -0.0579 -0.1089
   17CHL1   H7A 1196   4.304   0.319   9.642  0.7634  0.6260 -1.5767
   17CHL1   H7B 1197   4.332   0.482   9.717 -1.1815 -0.6186  0.2056
   17CHL1    C8 1198   4.510   0.377   9.637  0.6617  0.2991  0.0220
   17CHL1    H8 1199   4.531   0.272   9.605 -1.2654  0.2490 -1.2121
   17CHL1   C14 1200   4.497   0.465   9.512 -0.1436 -0.4117  0.1391
   17CHL1   H14 1201   4.487   0.572   9.540  0.9041 -0.3055  0.1338
   17CHL1   C15 1202   4.382   0.435   9.413 -0.3539 -0.3271 -0.1384
   17CHL1  H15A 1203   4.372   0.327   9.389  2.2387  0.0416 -3.6025
   17CHL1  H15B 1204   4.284   0.478   9.444 -0.8955 -1.5455 -0.0953
   17CHL1   C16 1205   4.417   0.492   9.270  0.3058  0.0887  0.6301
   17CHL1  H16A 1206   4.408   0.411   9.194 -1.7802  1.7898 -1.0519
   17CHL1  H16B 1207   4.342   0.571   9.248  1.2519  0.4521 -1.4949
   17CHL1   C17 1208   4.560   0.552   9.294  0.0133  0.5605 -0.2108
   17CHL1   H17 1209   4.557   0.661   9.314  0.0130  0.3248  1.1424
   17CHL1   C13 1210   4.618   0.472   9.420  0.9175  0.1495 -0.6925
   17CHL1   C18 1211   4.652   0.328   9.373  0.5609 -0.4585 -0.4738
   17CHL1  H18A 1212   4.696   0.271   9.458  2.4776  3.1173  1.1496
   17CHL1  H18B 1213   4.576   0.265   9.323 -0.6666  1.5546 -1.2679
   17CHL1  H18C 1214   4.737   0.336   9.303 -0.0282  0.8113 -1.0820
   17CHL1   C12 1215   4.731   0.540   9.501 -0.8115 -0.4489 -0.8971
   17CHL1  H12A 1216   4.823   0.524   9.442  1.0559  0.9292  1.4477
   17CHL1  H12B 1217   4.706   0.648   9.510 -0.1623 -0.2299 -1.6867
   17CHL1   C11 1218   4.750   0.484   9.646 -0.4374 -0.1115  0.3794
   17CHL1  H11A 1219   4.819   0.398   9.633  1.2584  1.3110 -0.5672
   17CHL1  H11B 1220   4.797   0.566   9.704 -0.8883 -0.2458  0.9329
   17CHL1    C9 1221   4.628   0.433   9.726  0.0662 -0.6099  0.0841
   17CHL1    H9 1222   4.582   0.525   9.769 -1.2170 -1.2093  0.0206
   17CHL1   C10 1223   4.646   0.346   9.855  1.1023 -0.0469  0.4540
   17CHL1   C19 1224   4.730   0.221   9.820  0.3418 -0.4412 -0.4801
   17CHL1  H19A 1225   4.742   0.144   9.899  1.0139  1.4850  1.3992
   17CHL1  H19B 1226   4.688   0.166   9.734  0.5529  0.3795 -1.1252
   17CHL1  H19C 1227   4.833   0.256   9.797  1.1290 -0.7241  2.2124
   17CHL1    C1 1228   4.708   0.433   9.965  0.0871 -0.1159 -0.6504
   17CHL1   H1A 1229   4.809   0.469   9.937 -0.0223  1.6423  0.9896
   17CHL1   H1B 1230   4.639   0.512  10.003  0.8628  1.2720 -2.0305
   17CHL1    C2 1231   4.725   0.349  10.096  0.8737 -0.3607  0.3477
   17CHL1   H2A 1232   4.758   0.427  10.168 -0.7454 -1.5251  2.4753
   17CHL1   H2B 1233   4.794   0.262  10.095 -1.7821 -2.6557  1.1775
   17CHL1   C20 1234   4.643   0.551   9.157 -0.2094  0.2052 -0.8030
   17CHL1   H20 1235   4.651   0.444   9.126 -1.9292 -2.0586  5.2352
   17CHL1   C21 1236   4.771   0.617   9.189 -0.1122  0.3080  1.5048
   17CHL1  H21A 1237   4.840   0.545   9.239  1.1353  0.4711  0.1040
   17CHL1  H21B 1238   4.762   0.715   9.240  0.1833  0.9012  0.4405
   17CHL1  H21C 1239   4.832   0.633   9.097 -0.5308  3.6429  1.6781
   17CHL1   C22 1240   4.578   0.631   9.045  0.4871  0.1828 -0.2814
   17CHL1  H22A 1241   4.468   0.614   9.043  0.4049  0.6926 -0.1779
   17CHL1  H22B 1242   4.584   0.738   9.074 -0.6526  0.0508  0.5096
   17CHL1   C23 1243   4.634   0.602   8.901  0.1216  0.5800  0.3866
   17CHL1  H23A 1244   4.589   0.679   8.834  0.7639  1.0091  0.4340
   17CHL1  H23B 1245   4.743   0.624   8.906  0.1695  0.0660  2.1585
   17CHL1   C24 1246   4.598   0.462   8.842  0.5160 -0.1619  0.1452
   17CHL1  H24A 1247   4.657   0.388   8.900  3.3448  1.5533 -0.3657
   17CHL1  H24B 1248   4.489   0.457   8.864  0.5475  2.5618  1.3440
   17CHL1   C25 1249   4.628   0.446   8.690  0.2485 -0.4120 -0.7661
   17CHL1   H25 1250   4.579   0.526   8.632  0.2364  0.5110  0.4715
   17CHL1   C26 1251   4.781   0.456   8.659 -0.0627 -0.3830 -0.9902
   17CHL1  H26A 1252   4.812   0.553   8.704 -0.3195 -0.4004 -0.7726
   17CHL1  H26B 1253   4.838   0.381   8.716 -0.3270  3.2174  4.8295
   17CHL1  H26C 1254   4.799   0.446   8.549  1.9573 -1.4145 -0.6045
   17CHL1   C27 1255   4.575   0.315   8.628  0.0982  0.1962  0.3995
   17CHL1  H27A 1256   4.466   0.315   8.649  0.4867 -1.8109  2.9538
   17CHL1  H27B 1257   4.598   0.312   8.520  1.0661 -2.1269  0.6062
   17CHL1  H27C 1258   4.626   0.229   8.676 -0.1306 -0.5751 -0.7200
   18CHL1    C3 1259   2.984   0.067  10.101  1.2610  0.3102  0.7530
   18CHL1    H3 1260   2.948   0.172  10.106 -0.7776 -0.1063 -2.3283
   18CHL1    O3 1261   2.995   0.029  10.238  0.6020  0.2310  0.1647
   18CHL1   H3' 1262   3.052   0.092  10.283 -1.9172  0.6359  3.1928
   18CHL1    C4 1263   2.886  -0.033  10.035  0.1072  0.8711  0.5294
   18CHL1   H4A 1264   2.914  -0.139  10.047  3.7470  1.7444  0.9194
   18CHL1   H4B 1265   2.797  -0.025  10.100 -0.6876  2.4931 -0.6706
   18CHL1    C5 1266   2.868   0.009   9.888 -0.4097 -0.3757 -0.1147
   18CHL1    C6 1267   2.747   0.025   9.842  0.4780 -0.0104  0.3742
   18CHL1    H6 1268   2.662   0.015   9.910 -0.1996 -0.4899 -0.5201
   18CHL1    C7 1269   2.714   0.071   9.704 -0.2902  0.2153 -0.2452
   18CHL1   H7A 1270   2.636   0.008   9.657 -0.2944  0.8224 -1.0715
   18CHL1   H7B 1271   2.674   0.175   9.709  2.0135  1.1194  2.0600
   18CHL1    C8 1272   2.835   0.061   9.602 -0.4541 -0.0286 -0.3161
   18CHL1    H8 1273   2.846  -0.044   9.568 -0.1265  0.2451 -1.0891
   18CHL1   C14 1274   2.822   0.152   9.484  0.4348  0.2182  0.1114
   18CHL1   H14 1275   2.824   0.257   9.522  0.4884  0.7775 -1.3688
   18CHL1   C15 1276   2.680   0.157   9.410  0.3968 -0.1201 -1.1451
   18CHL1  H15A 1277   2.651   0.055   9.377  1.9958 -0.1400 -2.6618
   18CHL1  H15B 1278   2.616   0.222   9.474  1.6954  0.9827 -0.9104
   18CHL1   C16 1279   2.720   0.236   9.287 -0.0959 -0.3360 -0.3664
   18CHL1  H16A 1280   2.696   0.176   9.196 -0.5237  0.9451 -1.1233
   18CHL1  H16B 1281   2.655   0.326   9.285 -0.5176 -0.5663  1.2827
   18CHL1   C17 1282   2.870   0.265   9.280  0.0152  0.3780 -0.0210
   18CHL1   H17 1283   2.881   0.366   9.325 -0.1827 -0.3681  1.7925
   18CHL1   C13 1284   2.934   0.162   9.377 -0.1582 -0.6437  1.0056
   18CHL1   C18 1285   2.949   0.021   9.313  0.0485 -0.2169 -0.0267
   18CHL1  H18A 1286   3.038   0.027   9.248 -0.9673  0.0410 -1.4420
   18CHL1  H18B 1287   2.967  -0.054   9.393  0.3203  1.5363  1.6097
   18CHL1  H18C 1288   2.858  -0.017   9.262 -0.9404  0.9641  0.8165
   18CHL1   C12 1289   3.057   0.216   9.448  0.6078  0.8027 -0.2308
   18CHL1  H12A 1290   3.142   0.183   9.384  0.5261  1.8750 -0.9148
   18CHL1  H12B 1291   3.043   0.325   9.463 -0.6639  1.2546 -3.7306
   18CHL1   C11 1292   3.084   0.135   9.574  0.1628  0.3484  0.3653
   18CHL1  H11A 1293   3.112   0.030   9.552  0.8618  0.1640  1.9539
   18CHL1  H11B 1294   3.170   0.185   9.625 -0.8770  0.7880  1.7694
   18CHL1    C9 1295   2.964   0.116   9.678 -0.2538  0.0164 -0.1058
   18CHL1    H9 1296   2.943   0.221   9.707 -1.9586 -0.8863  2.1823
   18CHL1   C10 1297   2.999   0.034   9.806 -0.2543 -0.0463 -0.6991
   18CHL1   C19 1298   3.068  -0.099   9.767  0.0486  0.1437  0.7590
   18CHL1  H19A 1299   3.167  -0.084   9.719 -0.4282 -1.6849 -0.9565
   18CHL1  H19B 1300   3.101  -0.165   9.850 -0.8736 -1.9292 -0.4425
   18CHL1  H19C 1301   3.007  -0.163   9.699 -0.8453  1.9836 -0.2299
   18CHL1    C1 1302   3.108   0.119   9.889 -0.7091 -0.0179 -0.2092
   18CHL1   H1A 1303   3.209   0.111   9.842 -0.2107 -3.1062  1.1641
   18CHL1   H1B 1304   3.068   0.220   9.911 -4.1792 -1.0071 -1.4160
   18CHL1    C2 1305   3.119   0.069  10.033 -0.1050  0.0310 -0.5608
   18CHL1   H2A 1306   3.183   0.143  10.087 -0.2279  0.5475 -1.1122
   18CHL1   H2B 1307   3.166  -0.031  10.033 -0.4297 -0.2290  2.2937
   18CHL1   C20 1308   2.923   0.279   9.132  0.1341  0.1596 -0.4691
   18CHL1   H20 1309   2.913   0.179   9.085 -0.8760 -0.5028  1.1121
   18CHL1   C21 1310   3.071   0.311   9.145 -0.8007 -0.1479 -0.0100
   18CHL1  H21A 1311   3.110   0.344   9.046  3.4790 -0.1931  1.4872
   18CHL1  H21B 1312   3.136   0.226   9.174  1.9419  1.1361 -2.0108
   18CHL1  H21C 1313   3.090   0.390   9.220 -1.9064 -1.8291  2.1669
   18CHL1   C22 1314   2.838   0.381   9.046  0.6410  0.3099 -0.4228
   18CHL1  H22A 1315   2.736   0.345   9.071  0.8506  0.5549  0.8307
   18CHL1  H22B 1316   2.845   0.478   9.099 -0.3277 -0.3222  0.9130
   18CHL1   C23 1317   2.868   0.379   8.892  0.1535 -0.2122 -0.2450
   18CHL1  H23A 1318   2.972   0.418   8.888  1.3143 -2.9117  0.9595
   18CHL1  H23B 1319   2.875   0.277   8.847  1.9113 -0.8695  1.4045
   18CHL1   C24 1320   2.779   0.477   8.816  0.2278  0.8960 -0.3928
   18CHL1  H24A 1321   2.675   0.473   8.855  0.3916  1.6276  0.1481
   18CHL1  H24B 1322   2.814   0.580   8.840 -1.2527  1.5917 -1.1400
   18CHL1   C25 1323   2.755   0.456   8.662  0.0506 -0.1111 -0.1807
   18CHL1   H25 1324   2.700   0.359   8.659 -2.3008  1.1449  0.4755
   18CHL1   C26 1325   2.656   0.561   8.610 -0.3268  0.2343 -0.2827
   18CHL1  H26A 1326   2.644   0.564   8.499 -1.5865  0.8799 -0.1472
   18CHL1  H26B 1327   2.555   0.539   8.650  0.3120 -1.1894  0.5966
   18CHL1  H26C 1328   2.685   0.665   8.636  2.2468 -0.0283 -1.7272
   18CHL1   C27 1329   2.881   0.440   8.578  0.0061  0.7029  0.3541
   18CHL1  H27A 1330   2.847   0.417   8.474 -1.0398 -0.2665  0.8950
   18CHL1  H27B 1331   2.927   0.542   8.573 -0.9380  1.1888  1.3398
   18CHL1  H27C 1332   2.955   0.372   8.625  0.7852  1.5321  0.3640
   19CHL1    C3 1333   1.608   3.732  10.081  0.1432 -0.1718 -0.4278
   19CHL1    H3 1334   1.614   3.629  10.040  1.1782  0.1884 -1.2090
   19CHL1    O3 1335   1.580   3.726  10.218  0.4369 -0.1585  0.4530
   19CHL1   H3' 1336   1.494   3.685  10.223  0.4618 -0.1377  1.0772
   19CHL1    C4 1337   1.747   3.798  10.062 -0.4758 -0.0140  0.2972
   19CHL1   H4A 1338   1.734   3.899  10.108 -3.3612 -1.1466  2.2957
   19CHL1   H4B 1339   1.819   3.744  10.127  1.6337  0.8940 -1.1900
   19CHL1    C5 1340   1.799   3.808   9.923  0.4395  0.5698  0.1735
   19CHL1    C6 1341   1.912   3.762   9.865 -0.2621 -0.8346  0.2102
   19CHL1    H6 1342   1.981   3.699   9.924 -1.9748 -3.3636 -0.3149
   19CHL1    C7 1343   1.953   3.793   9.724  1.0056  0.6118  0.1220
   19CHL1   H7A 1344   2.059   3.827   9.721  1.4283 -0.5643  0.7616
   19CHL1   H7B 1345   1.941   3.696   9.671  0.9933  0.3340  0.6233
   19CHL1    C8 1346   1.867   3.899   9.651  0.2354  0.1890 -0.2499
   19CHL1    H8 1347   1.898   4.004   9.672 -2.0908  1.4935 -2.7378
   19CHL1   C14 1348   1.868   3.886   9.498  0.4466  0.4310  0.2875
   19CHL1   H14 1349   1.817   3.788   9.483  1.7646 -0.1325 -0.7392
   19CHL1   C15 1350   2.006   3.867   9.441  0.2591  0.2267  0.6174
   19CHL1  H15A 1351   2.082   3.931   9.490  1.0579  0.7274 -1.1901
   19CHL1  H15B 1352   2.040   3.761   9.449  3.0207  0.7384 -2.1117
   19CHL1   C16 1353   1.985   3.903   9.294  0.3481 -0.2792 -0.0884
   19CHL1  H16A 1354   2.042   3.995   9.270 -4.6829  3.3827  0.4537
   19CHL1  H16B 1355   2.012   3.825   9.219 -1.3467 -0.9140 -0.1030
   19CHL1   C17 1356   1.830   3.935   9.266 -0.3429 -0.7713  0.2505
   19CHL1   H17 1357   1.786   3.836   9.240  0.1945 -0.4980 -1.9891
   19CHL1   C13 1358   1.789   3.976   9.407 -0.3438 -1.1917  0.1222
   19CHL1   C18 1359   1.823   4.135   9.419  0.3858  0.2286 -0.2149
   19CHL1  H18A 1360   1.918   4.163   9.368 -0.6273  2.2899 -1.1007
   19CHL1  H18B 1361   1.741   4.204   9.387 -0.6180 -1.3820 -1.2748
   19CHL1  H18C 1362   1.836   4.156   9.527 -0.0454  0.2360 -0.1629
   19CHL1   C12 1363   1.635   3.955   9.447  0.3331  0.3673 -0.2467
   19CHL1  H12A 1364   1.563   4.014   9.387 -1.6870  2.2422  3.6713
   19CHL1  H12B 1365   1.617   3.847   9.426 -0.6684  0.2451  1.1446
   19CHL1   C11 1366   1.620   3.985   9.602  0.3105  0.1457  0.5191
   19CHL1  H11A 1367   1.650   4.092   9.614 -3.7830  1.3460  1.5384
   19CHL1  H11B 1368   1.515   3.977   9.636 -0.6761 -0.3204 -2.3981
   19CHL1    C9 1369   1.714   3.893   9.690  0.0309  0.4477 -0.3940
   19CHL1    H9 1370   1.683   3.789   9.666  0.3961  0.0515  0.8109
   19CHL1   C10 1371   1.691   3.894   9.845 -0.6168  1.0388  0.4250
   19CHL1   C19 1372   1.696   4.047   9.894  0.4479  0.6850 -0.4264
   19CHL1  H19A 1373   1.797   4.092   9.881  0.6688  1.4320  2.9262
   19CHL1  H19B 1374   1.610   4.091   9.840 -2.2321 -0.6718  2.4174
   19CHL1  H19C 1375   1.660   4.063   9.998 -0.4108  0.1138 -0.6233
   19CHL1    C1 1376   1.543   3.847   9.864  0.2352  0.3026 -0.6189
   19CHL1   H1A 1377   1.469   3.918   9.823 -1.3898 -0.8436  0.1896
   19CHL1   H1B 1378   1.528   3.744   9.823 -0.3146  0.7003 -1.4602
   19CHL1    C2 1379   1.512   3.828  10.015 -0.3163  0.5538  0.2576
   19CHL1   H2A 1380   1.411   3.781  10.016 -0.5539  1.0215 -0.6932
   19CHL1   H2B 1381   1.521   3.927  10.065  0.8462  0.6273 -0.0712
   19CHL1   C20 1382   1.807   4.031   9.147  0.3465  0.0957 -0.1925
   19CHL1   H20 1383   1.864   4.125   9.164 -2.0447  1.2199  2.3699
   19CHL1   C21 1384   1.658   4.072   9.130  0.2715 -0.0249  0.3825
   19CHL1  H21A 1385   1.602   3.977   9.143  1.7873 -0.9934 -0.0139
   19CHL1  H21B 1386   1.632   4.113   9.030 -0.1083  0.7686  0.7925
   19CHL1  H21C 1387   1.617   4.140   9.208  0.5028 -0.6744  1.0745
   19CHL1   C22 1388   1.863   3.971   9.014 -0.7819 -0.0185  0.1771
   19CHL1  H22A 1389   1.854   4.045   8.932  0.7731 -1.0060 -0.9579
   19CHL1  H22B 1390   1.967   3.931   9.017 -1.1431 -1.1401 -1.0614
   19CHL1   C23 1391   1.788   3.835   8.967  0.7549  0.1588  0.3675
   19CHL1  H23A 1392   1.815   3.750   9.033 -0.7597 -1.0000 -0.4235
   19CHL1  H23B 1393   1.680   3.859   8.979  0.5915 -0.7697  0.8194
   19CHL1   C24 1394   1.816   3.802   8.819 -0.4662  0.4347  0.5262
   19CHL1  H24A 1395   1.730   3.836   8.757 -1.1446 -1.5107  0.3192
   19CHL1  H24B 1396   1.912   3.847   8.786  0.2328 -2.0021 -1.0466
   19CHL1   C25 1397   1.805   3.650   8.780 -0.4985  0.0798  0.0933
   19CHL1   H25 1398   1.885   3.602   8.841 -0.2401  0.5238  0.1114
   19CHL1   C26 1399   1.670   3.587   8.818  0.2871  0.5417 -0.3562
   19CHL1  H26A 1400   1.590   3.611   8.744 -0.3828 -0.4883  0.0151
   19CHL1  H26B 1401   1.673   3.476   8.824 -1.8499  0.4150 -0.6848
   19CHL1  H26C 1402   1.624   3.612   8.916 -3.0365 -1.2202 -1.2853
   19CHL1   C27 1403   1.846   3.623   8.628  0.0955 -0.0339  0.3889
   19CHL1  H27A 1404   1.834   3.516   8.600 -1.9984  0.4874 -0.9149
   19CHL1  H27B 1405   1.773   3.676   8.563 -0.0294  0.2771  0.7743
   19CHL1  H27C 1406   1.951   3.653   8.605 -0.3851  1.5349  0.1262
   20CHL1    C3 1407   2.054   5.530  10.323 -0.0774  0.8097 -1.0494
   20CHL1    H3 1408   1.950   5.505  10.293  0.3906 -1.9555 -0.6459
   20CHL1    O3 1409   2.064   5.519  10.468  0.1752 -0.0045 -0.5779
   20CHL1   H3' 1410   2.156   5.537  10.489 -0.0204  0.0587  0.2661
   20CHL1    C4 1411   2.140   5.424  10.260 -0.0069  0.0213 -0.1246
   20CHL1   H4A 1412   2.244   5.425  10.298  0.5228  2.4461 -1.4176
   20CHL1   H4B 1413   2.093   5.327  10.284  0.2778 -0.0927 -0.0275
   20CHL1    C5 1414   2.139   5.426  10.108  0.2356  0.2222 -0.7325
   20CHL1    C6 1415   2.102   5.327  10.028 -0.3069  0.6837 -0.3916
   20CHL1    H6 1416   2.072   5.234  10.079  2.4178  0.5069  1.1340
   20CHL1    C7 1417   2.114   5.333   9.879  0.4535 -0.0559 -0.2408
   20CHL1   H7A 1418   2.165   5.241   9.843  0.1483  0.6951 -2.7901
   20CHL1   H7B 1419   2.017   5.343   9.825  0.1456  1.7782  0.5814
   20CHL1    C8 1420   2.208   5.449   9.822 -0.1001  0.4097 -0.2598
   20CHL1    H8 1421   2.315   5.427   9.844 -0.1508 -0.9833 -1.2793
   20CHL1   C14 1422   2.183   5.459   9.677 -0.0429 -0.4089  0.2840
   20CHL1   H14 1423   2.075   5.482   9.664  0.3401  1.3098 -0.1012
   20CHL1   C15 1424   2.207   5.337   9.586  0.1435 -0.3437  0.5470
   20CHL1  H15A 1425   2.302   5.284   9.607  1.7556  1.8238 -0.8052
   20CHL1  H15B 1426   2.122   5.271   9.615 -0.5224  0.8939  1.5404
   20CHL1   C16 1427   2.196   5.398   9.446 -0.4747  0.3673 -0.3237
   20CHL1  H16A 1428   2.280   5.363   9.382  1.4638  1.4997  1.4490
   20CHL1  H16B 1429   2.101   5.372   9.396  0.8802 -2.1961 -1.8006
   20CHL1   C17 1430   2.207   5.551   9.465  1.6248 -0.1481  0.4289
   20CHL1   H17 1431   2.105   5.594   9.470  0.2371 -2.6888 -2.6481
   20CHL1   C13 1432   2.252   5.579   9.612  0.6118 -0.2056 -0.3868
   20CHL1   C18 1433   2.405   5.560   9.620 -0.4896  0.0327  0.4439
   20CHL1  H18A 1434   2.453   5.637   9.554 -0.6337 -0.4005 -0.1740
   20CHL1  H18B 1435   2.437   5.579   9.725 -0.7884  1.9117  0.2328
   20CHL1  H18C 1436   2.439   5.462   9.581 -0.0883  1.0749 -2.0914
   20CHL1   C12 1437   2.214   5.710   9.681  0.4562 -0.0924 -0.0657
   20CHL1  H12A 1438   2.265   5.802   9.644 -3.4732  2.0807 -0.6804
   20CHL1  H12B 1439   2.110   5.730   9.647  0.0276 -1.4164  0.4158
   20CHL1   C11 1440   2.228   5.709   9.835  0.2871  0.2092 -0.3180
   20CHL1  H11A 1441   2.336   5.716   9.859  0.6008 -1.6507 -1.0475
   20CHL1  H11B 1442   2.186   5.796   9.890  2.4945  0.5866  0.8941
   20CHL1    C9 1443   2.169   5.577   9.898  0.2115  0.0556 -0.3028
   20CHL1    H9 1444   2.061   5.587   9.872  0.1415  0.2036  0.0311
   20CHL1   C10 1445   2.183   5.567  10.048  0.1426  0.4465  0.4448
   20CHL1   C19 1446   2.335   5.580  10.076  0.3241 -0.0741  0.0051
   20CHL1  H19A 1447   2.355   5.550  10.181  0.3823  0.1751  0.0653
   20CHL1  H19B 1448   2.389   5.516  10.003  0.3339 -0.0373 -0.0205
   20CHL1  H19C 1449   2.364   5.687  10.074  3.1755 -0.5713  3.5247
   20CHL1    C1 1450   2.105   5.673  10.126 -0.7949 -0.6991 -1.1224
   20CHL1   H1A 1451   2.138   5.775  10.097 -0.1606 -0.8577 -0.9748
   20CHL1   H1B 1452   1.998   5.656  10.100 -0.6332 -2.1640 -0.9367
   20CHL1    C2 1453   2.104   5.662  10.285 -0.2358 -0.2893  0.7063
   20CHL1   H2A 1454   2.034   5.740  10.322 -0.0429 -0.1466  0.7675
   20CHL1   H2B 1455   2.208   5.685  10.316  0.2568  0.8186 -1.5751
   20CHL1   C20 1456   2.276   5.625   9.344 -1.1343 -0.3175  0.1798
   20CHL1   H20 1457   2.381   5.590   9.332 -1.2538 -0.6354  0.0518
   20CHL1   C21 1458   2.271   5.778   9.381 -0.2501  0.0261 -0.4179
   20CHL1  H21A 1459   2.349   5.802   9.457 -1.6094 -0.4651  1.1863
   20CHL1  H21B 1460   2.169   5.804   9.416  0.2030  0.1213  0.8755
   20CHL1  H21C 1461   2.295   5.838   9.291  0.1551 -0.2946 -0.5292
   20CHL1   C22 1462   2.193   5.607   9.212  0.1898  0.2546 -0.0970
   20CHL1  H22A 1463   2.177   5.499   9.192 -0.9444  0.8296 -2.7108
   20CHL1  H22B 1464   2.102   5.671   9.217 -1.1207 -1.2256 -2.7309
   20CHL1   C23 1465   2.272   5.658   9.090 -0.1358  0.1041 -0.2722
   20CHL1  H23A 1466   2.330   5.752   9.098  1.2645 -0.6405 -1.1729
   20CHL1  H23B 1467   2.355   5.586   9.072  0.4858  1.1214 -1.6405
   20CHL1   C24 1468   2.205   5.673   8.954 -0.0195  0.5720 -0.3713
   20CHL1  H24A 1469   2.167   5.571   8.931  0.7311  0.6874 -2.3482
   20CHL1  H24B 1470   2.119   5.742   8.954 -2.4145 -2.2055 -0.1692
   20CHL1   C25 1471   2.297   5.722   8.834 -0.5214 -0.5327 -0.1855
   20CHL1   H25 1472   2.329   5.825   8.864 -1.0355 -0.9481  1.9868
   20CHL1   C26 1473   2.427   5.638   8.837 -0.4888  0.3227 -0.4568
   20CHL1  H26A 1474   2.483   5.652   8.932  0.9536 -1.2635 -1.0205
   20CHL1  H26B 1475   2.396   5.532   8.826  0.7436 -0.1244  0.1736
   20CHL1  H26C 1476   2.485   5.669   8.748 -0.2973 -0.7523 -0.7195
   20CHL1   C27 1477   2.238   5.721   8.695 -0.1087  0.0207 -0.3701
   20CHL1  H27A 1478   2.150   5.654   8.688 -0.5324  0.5904 -0.7094
   20CHL1  H27B 1479   2.179   5.814   8.678 -1.2984 -0.5842  0.2976
   20CHL1  H27C 1480   2.315   5.708   8.615  0.5846  1.9102 -0.0604
   21CHL1    C3 1481   2.017   6.031  10.160  0.4978  0.4622 -0.9151
   21CHL1    H3 1482   2.110   5.983  10.121 -0.0278 -0.1069 -1.4906
   21CHL1    O3 1483   2.033   6.052  10.304  0.3079  0.0329 -0.4808
   21CHL1   H3' 1484   1.953   6.020  10.346 -0.1057 -0.0538 -1.3054
   21CHL1    C4 1485   1.997   6.168  10.082 -0.7511  0.3580  0.7558
   21CHL1   H4A 1486   1.913   6.225  10.126  0.2048  1.2403  1.4674
   21CHL1   H4B 1487   2.089   6.228  10.098  0.1071 -0.4507 -0.8922
   21CHL1    C5 1488   1.977   6.133   9.937  0.3010  0.0491 -0.0894
   21CHL1    C6 1489   2.062   6.178   9.847 -0.2570 -0.2093 -0.1256
   21CHL1    H6 1490   2.143   6.246   9.877  0.0282  0.0734 -1.4436
   21CHL1    C7 1491   2.061   6.141   9.700 -0.7021  0.1799 -0.4437
   21CHL1   H7A 1492   2.056   6.233   9.638 -2.5741 -0.8491 -1.9084
   21CHL1   H7B 1493   2.154   6.086   9.674  0.2998  2.3050 -1.6175
   21CHL1    C8 1494   1.926   6.078   9.662 -0.0981  0.6847  0.5833
   21CHL1    H8 1495   1.848   6.157   9.666  0.3195  1.0477  1.9613
   21CHL1   C14 1496   1.929   6.027   9.510 -0.0823 -0.1095 -0.2135
   21CHL1   H14 1497   2.016   5.958   9.510  0.9920  1.1959 -0.3461
   21CHL1   C15 1498   1.976   6.126   9.399 -0.0565  0.3160 -0.4348
   21CHL1  H15A 1499   1.925   6.224   9.413 -0.4705  0.0614 -0.1063
   21CHL1  H15B 1500   2.084   6.148   9.405  0.0352 -0.2694  0.2279
   21CHL1   C16 1501   1.941   6.049   9.272  1.2077 -0.6935 -0.5588
   21CHL1  H16A 1502   1.884   6.125   9.213 -0.2230  0.0916  1.7085
   21CHL1  H16B 1503   2.032   6.020   9.216  2.8246  1.6917  0.6896
   21CHL1   C17 1504   1.847   5.932   9.310 -0.3706  0.0946  0.4874
   21CHL1   H17 1505   1.910   5.845   9.340 -1.0514  0.3594  2.8747
   21CHL1   C13 1506   1.803   5.962   9.461  0.0454 -0.2979  0.1578
   21CHL1   C18 1507   1.677   6.049   9.449 -0.0960  0.4040  0.5696
   21CHL1  H18A 1508   1.592   5.980   9.427 -0.2323 -0.2934  2.9330
   21CHL1  H18B 1509   1.650   6.094   9.547  3.7274 -0.7510  2.3479
   21CHL1  H18C 1510   1.691   6.122   9.366  0.4454 -1.3054 -0.9023
   21CHL1   C12 1511   1.769   5.847   9.556 -0.2541 -0.0232 -0.9818
   21CHL1  H12A 1512   1.682   5.790   9.518 -0.6414  1.4214 -2.3711
   21CHL1  H12B 1513   1.851   5.773   9.559 -1.4440 -1.3884  1.8403
   21CHL1   C11 1514   1.756   5.892   9.704  0.2255  0.7489 -0.2713
   21CHL1  H11A 1515   1.661   5.945   9.728  0.4025  0.9460 -0.0038
   21CHL1  H11B 1516   1.748   5.794   9.756  0.2237  1.1091  0.4241
   21CHL1    C9 1517   1.880   5.970   9.762  0.4234  0.3128  0.1421
   21CHL1    H9 1518   1.963   5.896   9.770 -0.4951 -0.7942 -0.2409
   21CHL1   C10 1519   1.857   6.036   9.909 -0.4623 -0.0231  0.6876
   21CHL1   C19 1520   1.734   6.119   9.922  0.5569  0.7493 -0.0105
   21CHL1  H19A 1521   1.727   6.198   9.845  0.2336 -0.4624 -1.2551
   21CHL1  H19B 1522   1.643   6.058   9.902 -0.9614  2.1687  2.0843
   21CHL1  H19C 1523   1.719   6.151  10.028  2.1477  0.5553  0.2943
   21CHL1    C1 1524   1.859   5.916  10.012 -0.4897  0.2332  0.0481
   21CHL1   H1A 1525   1.767   5.856   9.997 -1.1689  1.5726 -1.4866
   21CHL1   H1B 1526   1.949   5.858   9.983  2.2490  3.8966  0.4165
   21CHL1    C2 1527   1.887   5.949  10.158  0.6402  0.5652 -0.5220
   21CHL1   H2A 1528   1.902   5.850  10.207  2.4454  1.1846  0.2922
   21CHL1   H2B 1529   1.811   6.021  10.194  1.9048  1.9076 -0.4368
   21CHL1   C20 1530   1.752   5.893   9.198 -0.6907 -0.4771  0.4299
   21CHL1   H20 1531   1.676   5.974   9.190 -0.6327 -0.3533  1.0353
   21CHL1   C21 1532   1.665   5.770   9.247 -0.5502  0.6437 -0.5136
   21CHL1  H21A 1533   1.587   5.806   9.318  0.5221 -1.5602  1.9295
   21CHL1  H21B 1534   1.742   5.712   9.301 -1.0296  0.4500 -0.0309
   21CHL1  H21C 1535   1.623   5.722   9.156  1.0121 -2.5433  0.3216
   21CHL1   C22 1536   1.819   5.870   9.058  0.0679 -0.8263  0.3238
   21CHL1  H22A 1537   1.900   5.940   9.029  2.0600 -3.5081 -0.9750
   21CHL1  H22B 1538   1.875   5.774   9.056  0.6488 -0.4800 -0.2921
   21CHL1   C23 1539   1.729   5.873   8.935  0.4672  0.2837  0.1291
   21CHL1  H23A 1540   1.647   5.799   8.936 -0.3274  1.0970 -1.5913
   21CHL1  H23B 1541   1.691   5.972   8.904  1.3991  0.9083  0.9087
   21CHL1   C24 1542   1.822   5.839   8.811  0.6013  0.4414  0.5277
   21CHL1  H24A 1543   1.882   5.931   8.795  1.4940 -0.0038  1.2568
   21CHL1  H24B 1544   1.896   5.764   8.844 -0.0663  0.2912  1.7675
   21CHL1   C25 1545   1.749   5.789   8.682 -0.0683 -0.2416 -0.1734
   21CHL1   H25 1546   1.684   5.704   8.710 -0.2928 -0.4843 -1.3938
   21CHL1   C26 1547   1.660   5.904   8.613  0.1962  0.0589 -0.0129
   21CHL1  H26A 1548   1.590   5.950   8.686  1.2762 -0.1311  1.1920
   21CHL1  H26B 1549   1.727   5.985   8.577  0.3645 -1.7802 -4.4992
   21CHL1  H26C 1550   1.607   5.854   8.529 -1.7500  0.1375  1.0930
   21CHL1   C27 1551   1.851   5.744   8.578  0.5178 -0.1981  0.0553
   21CHL1  H27A 1552   1.802   5.692   8.492 -0.7822  2.9495 -1.2464
   21CHL1  H27B 1553   1.911   5.828   8.538  0.9935 -0.9322 -0.8280
   21CHL1  H27C 1554   1.919   5.670   8.624 -1.1068 -0.8416  1.5230
   22CHL1    C3 1555   0.943   2.431   9.979  0.3051  0.6121 -0.3787
   22CHL1    H3 1556   0.888   2.336   9.964 -3.0089  2.3677 -0.1475
   22CHL1    O3 1557   0.971   2.438  10.122 -0.2276 -0.4702 -0.2088
   22CHL1   H3' 1558   0.991   2.349  10.151 -1.2525 -1.2134 -1.6631
   22CHL1    C4 1559   1.073   2.422   9.899 -0.6289 -0.3118  0.7075
   22CHL1   H4A 1560   1.137   2.510   9.925 -0.6737 -0.2009  0.4503
   22CHL1   H4B 1561   1.120   2.330   9.938  0.8354  0.2497  0.3357
   22CHL1    C5 1562   1.045   2.421   9.753 -0.7708  0.4129 -0.3439
   22CHL1    C6 1563   1.101   2.331   9.671 -0.4129 -0.1916 -0.4673
   22CHL1    H6 1564   1.160   2.249   9.714  1.4201  0.7195 -1.1373
   22CHL1    C7 1565   1.084   2.329   9.517  0.8433  0.5711  0.2835
   22CHL1   H7A 1566   1.174   2.299   9.460 -0.1243 -0.4558 -0.7696
   22CHL1   H7B 1567   1.014   2.253   9.478  0.0808  1.5357 -0.2621
   22CHL1    C8 1568   1.033   2.464   9.458  0.5463 -0.8633  0.1911
   22CHL1    H8 1569   1.118   2.536   9.463  0.4762 -0.7737  0.0965
   22CHL1   C14 1570   0.982   2.440   9.314  0.6623 -0.4458 -0.0741
   22CHL1   H14 1571   0.892   2.375   9.315 -0.6773  1.3165 -0.5396
   22CHL1   C15 1572   1.070   2.366   9.212  0.1272 -0.1854  0.2154
   22CHL1  H15A 1573   1.175   2.403   9.208 -0.7251  2.5519  0.9803
   22CHL1  H15B 1574   1.079   2.255   9.224 -0.6997 -0.2029  0.7411
   22CHL1   C16 1575   1.009   2.405   9.073  0.1970 -0.2221 -0.3003
   22CHL1  H16A 1576   1.081   2.440   8.996  1.9305 -0.0604  1.3233
   22CHL1  H16B 1577   0.958   2.317   9.029 -0.7222 -0.4384  1.1265
   22CHL1   C17 1578   0.899   2.509   9.094 -0.3147 -0.0164  0.9272
   22CHL1   H17 1579   0.798   2.463   9.102 -0.8414  0.0466 -3.0460
   22CHL1   C13 1580   0.931   2.563   9.236  1.1308  0.1081 -0.2838
   22CHL1   C18 1581   1.050   2.666   9.226  0.3696  0.2269  0.6406
   22CHL1  H18A 1582   1.137   2.607   9.190 -0.5974  0.5367 -2.4936
   22CHL1  H18B 1583   1.024   2.751   9.159  0.7241  0.5680  0.9330
   22CHL1  H18C 1584   1.077   2.707   9.326  1.5514 -0.0445  0.4488
   22CHL1   C12 1585   0.818   2.631   9.322  0.1655 -0.0792 -0.0746
   22CHL1  H12A 1586   0.788   2.734   9.295 -2.1420 -0.4663  0.7318
   22CHL1  H12B 1587   0.734   2.557   9.316  0.3669 -0.2427 -0.9557
   22CHL1   C11 1588   0.852   2.638   9.479 -0.4745  1.2117  0.2570
   22CHL1  H11A 1589   0.933   2.714   9.488  1.7464 -0.9296 -0.4360
   22CHL1  H11B 1590   0.760   2.673   9.528 -0.6677 -1.8137  2.3316
   22CHL1    C9 1591   0.915   2.512   9.548  0.1528  0.8879 -0.2395
   22CHL1    H9 1592   0.839   2.431   9.554  1.0239  0.1625  3.3899
   22CHL1   C10 1593   0.952   2.529   9.707  0.1426  0.1174  0.2870
   22CHL1   C19 1594   1.034   2.659   9.727  0.1746 -0.8218  0.4591
   22CHL1  H19A 1595   1.049   2.686   9.834 -0.4314  1.8987 -0.0625
   22CHL1  H19B 1596   1.135   2.666   9.682  0.0451 -0.5567  0.2094
   22CHL1  H19C 1597   0.981   2.751   9.695  1.1628 -0.4882 -0.2705
   22CHL1    C1 1598   0.816   2.544   9.786 -0.9375  0.7860  0.0955
   22CHL1   H1A 1599   0.759   2.637   9.766 -1.1426  0.5568 -0.3901
   22CHL1   H1B 1600   0.747   2.461   9.761  0.7254 -0.4331 -0.7050
   22CHL1    C2 1601   0.851   2.548   9.936  0.3222 -0.4341  0.0479
   22CHL1   H2A 1602   0.759   2.527   9.995 -1.1485  0.3762 -1.8514
   22CHL1   H2B 1603   0.893   2.646   9.968  2.3929 -0.8236 -1.2782
   22CHL1   C20 1604   0.870   2.603   8.976  0.6632 -0.0322 -0.1462
   22CHL1   H20 1605   0.961   2.662   8.951  0.0264  0.5826 -1.0653
   22CHL1   C21 1606   0.755   2.703   9.015 -0.0186 -0.4268 -0.3431
   22CHL1  H21A 1607   0.795   2.780   9.084 -0.8492  0.4505 -0.8286
   22CHL1  H21B 1608   0.670   2.654   9.067  0.0949  1.1825  1.4556
   22CHL1  H21C 1609   0.722   2.772   8.935 -0.5000  0.6963  0.7837
   22CHL1   C22 1610   0.830   2.526   8.847 -0.3378  0.5580 -0.1212
   22CHL1  H22A 1611   0.919   2.465   8.824  0.2195  0.5637  1.7862
   22CHL1  H22B 1612   0.739   2.463   8.863  0.6308 -0.6359  0.8685
   22CHL1   C23 1613   0.801   2.625   8.731  0.0448  0.2970  0.2483
   22CHL1  H23A 1614   0.763   2.568   8.643 -0.9068  2.1235 -0.5859
   22CHL1  H23B 1615   0.714   2.691   8.751  0.5543  0.7986  0.8502
   22CHL1   C24 1616   0.921   2.699   8.671 -0.0458 -0.1730 -0.2666
   22CHL1  H24A 1617   0.967   2.768   8.744 -1.3692  0.5088 -0.0520
   22CHL1  H24B 1618   0.999   2.629   8.634 -0.2627 -0.7830  0.4220
   22CHL1   C25 1619   0.886   2.777   8.543  0.2715 -0.3008 -0.2965
   22CHL1   H25 1620   0.846   2.704   8.470 -0.9870 -1.2756  1.2932
   22CHL1   C26 1621   0.776   2.882   8.564 -0.8499 -0.3931 -0.0945
   22CHL1  H26A 1622   0.686   2.842   8.614 -0.9956 -0.2270 -0.2200
   22CHL1  H26B 1623   0.817   2.964   8.627  1.9362 -1.7484 -0.0102
   22CHL1  H26C 1624   0.744   2.931   8.469  1.5662 -0.3134 -0.9628
   22CHL1   C27 1625   1.010   2.838   8.488  0.2901 -0.1512 -0.2799
   22CHL1  H27A 1626   0.987   2.905   8.402 -1.4576 -1.4629 -0.8978
   22CHL1  H27B 1627   1.050   2.911   8.560 -0.3246 -0.1674  0.0857
   22CHL1  H27C 1628   1.080   2.755   8.464  3.3182  2.1541 -0.0056
   23CHL1    C3 1629   5.827   2.035  10.074 -0.8092 -0.1531  0.0693
   23CHL1    H3 1630   5.934   2.010  10.088 -1.4126 -1.6036  2.7164
   23CHL1    O3 1631   5.752   2.010  10.192 -0.6101 -0.1452  0.1825
   23CHL1   H3' 1632   5.767   2.085  10.250  1.7193 -1.1802  1.0298
   23CHL1    C4 1633   5.808   2.180  10.034  0.2355  0.4118  0.1689
   23CHL1   H4A 1634   5.700   2.208  10.031  0.7070  2.3027 -2.0440
   23CHL1   H4B 1635   5.848   2.239  10.119 -2.0315  0.4627  1.2917
   23CHL1    C5 1636   5.866   2.225   9.900  0.2091 -0.1240  0.3419
   23CHL1    C6 1637   5.951   2.332   9.892  0.5521  0.3012  0.4749
   23CHL1    H6 1638   5.975   2.388   9.983 -2.1668  0.6672  1.0744
   23CHL1    C7 1639   5.986   2.380   9.759 -1.2950 -0.2598  0.1650
   23CHL1   H7A 1640   5.975   2.491   9.754 -1.0245 -0.1993  0.7928
   23CHL1   H7B 1641   6.093   2.360   9.736 -1.4482 -0.4334 -0.3969
   23CHL1    C8 1642   5.896   2.324   9.645 -0.6995 -0.6321 -0.2981
   23CHL1    H8 1643   5.793   2.368   9.645  0.2726  1.8264 -0.6052
   23CHL1   C14 1644   5.962   2.354   9.504 -0.1153 -0.0337 -0.2600
   23CHL1   H14 1645   6.059   2.301   9.508 -0.8709 -1.3633  1.8766
   23CHL1   C15 1646   5.975   2.502   9.468  0.0250  0.6195 -0.6519
   23CHL1  H15A 1647   5.876   2.546   9.491  0.1502  0.0118  1.1923
   23CHL1  H15B 1648   6.055   2.544   9.532 -0.7628 -1.3121  1.7507
   23CHL1   C16 1649   5.995   2.506   9.312 -0.4397  0.8361 -0.0681
   23CHL1  H16A 1650   5.926   2.584   9.273 -2.0236 -1.2312 -1.5849
   23CHL1  H16B 1651   6.101   2.527   9.283 -0.1286 -1.9882 -1.2943
   23CHL1   C17 1652   5.972   2.357   9.250  0.8979 -0.3382 -0.1327
   23CHL1   H17 1653   6.073   2.313   9.255  0.7915 -0.5210  0.5808
   23CHL1   C13 1654   5.892   2.286   9.375  0.1301 -0.1442 -0.7181
   23CHL1   C18 1655   5.743   2.326   9.371 -0.0729  0.2473  0.2605
   23CHL1  H18A 1656   5.720   2.433   9.388 -0.7976  0.0734  0.3992
   23CHL1  H18B 1657   5.703   2.299   9.271 -2.6841 -1.8461  1.7312
   23CHL1  H18C 1658   5.686   2.280   9.454  1.2108 -2.0128 -0.0338
   23CHL1   C12 1659   5.910   2.137   9.391  0.5267  0.6513  0.4211
   23CHL1  H12A 1660   5.879   2.074   9.305 -0.1944 -1.2518  2.0224
   23CHL1  H12B 1661   6.021   2.133   9.401  0.5326 -0.4229  0.0578
   23CHL1   C11 1662   5.853   2.094   9.527 -0.4301 -0.1146 -0.4470
   23CHL1  H11A 1663   5.746   2.076   9.503 -0.4892 -0.6508  0.1881
   23CHL1  H11B 1664   5.894   1.992   9.548 -2.0584 -1.0824 -1.7069
   23CHL1    C9 1665   5.886   2.173   9.656 -0.0301 -0.2337 -0.8492
   23CHL1    H9 1666   5.993   2.149   9.675  0.9140  4.0934  0.3533
   23CHL1   C10 1667   5.820   2.130   9.791  0.2123 -0.4936  0.2265
   23CHL1   C19 1668   5.660   2.147   9.766 -0.5751  0.8754 -0.4081
   23CHL1  H19A 1669   5.599   2.107   9.850  1.2962  1.3625  1.2724
   23CHL1  H19B 1670   5.630   2.253   9.747 -0.3416  1.5215  2.3416
   23CHL1  H19C 1671   5.632   2.081   9.682 -0.6834  2.4271 -1.6463
   23CHL1    C1 1672   5.852   1.983   9.828  0.2303 -0.4334  0.8280
   23CHL1   H1A 1673   5.817   1.908   9.754 -0.7787  0.4788  0.3684
   23CHL1   H1B 1674   5.963   1.974   9.830  0.2335 -3.3905 -2.6673
   23CHL1    C2 1675   5.787   1.937   9.963 -0.5968 -0.3996  0.0192
   23CHL1   H2A 1676   5.823   1.837   9.997  1.1801 -0.6409 -2.3060
   23CHL1   H2B 1677   5.677   1.939   9.948 -0.5828 -1.3230 -0.2698
   23CHL1   C20 1678   5.905   2.358   9.115 -0.3403 -0.3330  0.0512
   23CHL1   H20 1679   5.804   2.405   9.124  0.0188  0.5052 -0.1329
   23CHL1   C21 1680   5.900   2.213   9.058  0.3746  0.3246  0.4334
   23CHL1  H21A 1681   5.998   2.162   9.065 -0.8677 -2.2467  0.6360
   23CHL1  H21B 1682   5.877   2.216   8.949  1.3109  0.6178  0.2414
   23CHL1  H21C 1683   5.818   2.156   9.107 -0.4817  0.6196 -0.6175
   23CHL1   C22 1684   5.981   2.453   9.024  0.3120 -0.3876 -0.2964
   23CHL1  H22A 1685   6.004   2.555   9.062  0.7814  0.0127 -1.5901
   23CHL1  H22B 1686   6.076   2.397   9.010  0.0841 -0.6687 -0.7425
   23CHL1   C23 1687   5.923   2.476   8.884 -0.6501  0.7264 -0.2715
   23CHL1  H23A 1688   5.880   2.381   8.844 -0.5472  0.1970  0.8391
   23CHL1  H23B 1689   5.845   2.555   8.881 -1.8614 -0.4246 -2.6021
   23CHL1   C24 1690   6.018   2.520   8.774  0.5614  0.2484 -0.5198
   23CHL1  H24A 1691   6.079   2.611   8.794 -0.1941  0.8319 -0.8052
   23CHL1  H24B 1692   6.091   2.438   8.760  0.0715 -0.0866 -1.1642
   23CHL1   C25 1693   5.939   2.549   8.639  0.5875  1.0091  1.2955
   23CHL1   H25 1694   5.884   2.456   8.617  1.2553  0.9499 -0.2325
   23CHL1   C26 1695   5.825   2.655   8.644 -0.4571 -0.3701  0.5312
   23CHL1  H26A 1696   5.848   2.764   8.651 -0.5877 -0.1625 -1.4723
   23CHL1  H26B 1697   5.772   2.655   8.546 -2.2935  3.0291  1.3638
   23CHL1  H26C 1698   5.749   2.629   8.721 -0.7345 -0.8100  0.1164
   23CHL1   C27 1699   6.025   2.576   8.515  0.0120 -0.2791 -0.2696
   23CHL1  H27A 1700   6.095   2.661   8.532 -0.0141 -0.1210 -0.9182
   23CHL1  H27B 1701   6.080   2.492   8.467  0.6886  0.1590 -0.2841
   23CHL1  H27C 1702   5.965   2.615   8.430  1.2839  3.2581  0.3014
   24CHL1    C3 1703   1.085   1.658  10.070  0.8394 -0.0025  0.2079
   24CHL1    H3 1704   1.186   1.699  10.049  2.1376 -2.6149  0.9417
   24CHL1    O3 1705   1.060   1.635  10.208  0.2930 -0.2062  0.5187
   24CHL1   H3' 1706   0.966   1.622  10.220 -0.0220  1.3196  0.0239
   24CHL1    C4 1707   0.975   1.752  10.008  0.2682 -0.0461  0.7880
   24CHL1   H4A 1708   0.872   1.710  10.011 -0.4162  1.5140  4.2063
   24CHL1   H4B 1709   0.976   1.844  10.070 -1.5516  1.6726 -1.5498
   24CHL1    C5 1710   1.009   1.779   9.860 -0.6377 -0.4956  0.7173
   24CHL1    C6 1711   1.038   1.901   9.813 -0.4238 -0.2899 -0.9641
   24CHL1    H6 1712   1.044   1.991   9.877 -1.4019  0.8398 -2.3940
   24CHL1    C7 1713   1.065   1.930   9.673  0.2053 -0.3296 -0.8148
   24CHL1   H7A 1714   0.991   2.011   9.655  0.2184  0.1836  1.1858
   24CHL1   H7B 1715   1.166   1.976   9.664 -0.3912  1.6487  1.3597
   24CHL1    C8 1716   1.028   1.817   9.575  0.2030 -0.5176 -0.8958
   24CHL1    H8 1717   0.917   1.816   9.571  0.1276 -1.9329  0.5768
   24CHL1   C14 1718   1.078   1.844   9.438  0.0830  0.1941  0.5676
   24CHL1   H14 1719   1.188   1.852   9.442  0.2708 -0.6745 -1.3916
   24CHL1   C15 1720   1.038   1.977   9.380 -0.4379  0.0262  0.2336
   24CHL1  H15A 1721   0.929   1.971   9.401 -0.2584 -0.0415  1.1908
   24CHL1  H15B 1722   1.089   2.072   9.408  0.2526  0.7787 -3.1571
   24CHL1   C16 1723   1.053   1.950   9.229  0.3705 -0.5678  0.5868
   24CHL1  H16A 1724   0.956   1.974   9.182  0.7398  0.8326  0.4964
   24CHL1  H16B 1725   1.125   2.024   9.188 -0.2392 -0.6103 -0.5985
   24CHL1   C17 1726   1.101   1.800   9.207  0.0735 -0.1994 -0.7370
   24CHL1   H17 1727   1.211   1.791   9.222 -0.3613 -1.3016  2.7895
   24CHL1   C13 1728   1.044   1.736   9.332  0.1951  0.0654 -1.1161
   24CHL1   C18 1729   0.896   1.704   9.321 -0.0269 -0.4726 -0.2431
   24CHL1  H18A 1730   0.845   1.796   9.285  0.0661  0.1339  1.0997
   24CHL1  H18B 1731   0.873   1.635   9.237  2.3403 -1.9742  0.2471
   24CHL1  H18C 1732   0.841   1.665   9.409  0.1924 -0.5614 -0.1437
   24CHL1   C12 1733   1.131   1.613   9.388  0.1662  0.5004 -0.3978
   24CHL1  H12A 1734   1.125   1.526   9.319 -2.1853 -0.9174  1.4389
   24CHL1  H12B 1735   1.236   1.647   9.395  0.1342  0.9983 -1.9431
   24CHL1   C11 1736   1.083   1.568   9.531 -0.0737  0.7569  0.2575
   24CHL1  H11A 1737   0.980   1.528   9.522  0.2481 -0.3526  1.2130
   24CHL1  H11B 1738   1.154   1.490   9.564  0.5580  1.1908 -0.0584
   24CHL1    C9 1739   1.081   1.684   9.632 -0.0848 -0.5557 -0.2566
   24CHL1    H9 1740   1.187   1.707   9.657 -0.8245  2.9097  0.3229
   24CHL1   C10 1741   1.021   1.650   9.767  0.5254 -0.3432 -0.6042
   24CHL1   C19 1742   0.872   1.600   9.741 -0.4174  0.1652 -0.6377
   24CHL1  H19A 1743   0.874   1.508   9.678  1.2590 -0.5232  0.3536
   24CHL1  H19B 1744   0.815   1.584   9.835 -1.0585  0.8873 -0.8867
   24CHL1  H19C 1745   0.820   1.681   9.685  0.4750 -0.1747 -2.0052
   24CHL1    C1 1746   1.101   1.540   9.838  0.0779  0.4060  0.1492
   24CHL1   H1A 1747   1.093   1.443   9.786  1.0621  0.1954  0.3589
   24CHL1   H1B 1748   1.210   1.563   9.832  0.9639 -2.8436  1.5423
   24CHL1    C2 1749   1.079   1.525   9.992  0.6218  0.1888 -0.3437
   24CHL1   H2A 1750   1.151   1.449  10.028 -2.4420 -3.1532 -0.6606
   24CHL1   H2B 1751   0.990   1.462  10.016  1.0504 -0.5484 -0.6653
   24CHL1   C20 1752   1.054   1.752   9.069 -0.0055 -0.4846  0.0142
   24CHL1   H20 1753   0.945   1.766   9.053  0.4595  0.4006 -2.9905
   24CHL1   C21 1754   1.083   1.607   9.051 -0.1001  0.5239 -0.0451
   24CHL1  H21A 1755   1.022   1.550   9.123 -1.0191  3.1501  1.3994
   24CHL1  H21B 1756   1.192   1.584   9.061 -0.0920  0.6884  0.2663
   24CHL1  H21C 1757   1.045   1.579   8.951  0.3683 -0.1192 -0.0533
   24CHL1   C22 1758   1.128   1.829   8.949  0.1286 -0.1389  0.6159
   24CHL1  H22A 1759   1.110   1.767   8.858  2.4758 -2.5008  1.6505
   24CHL1  H22B 1760   1.081   1.930   8.954  1.4772  0.5469  0.0000
   24CHL1   C23 1761   1.282   1.864   8.961 -0.2623  0.5381  0.0421
   24CHL1  H23A 1762   1.309   1.922   9.052  1.1471  0.3678 -0.2509
   24CHL1  H23B 1763   1.329   1.764   8.958 -0.1157  0.6355 -0.9585
   24CHL1   C24 1764   1.328   1.941   8.842  0.2800 -0.4104  0.6068
   24CHL1  H24A 1765   1.268   1.918   8.751  3.0258 -1.5569 -1.0529
   24CHL1  H24B 1766   1.308   2.048   8.863 -0.7696 -0.2241 -1.1160
   24CHL1   C25 1767   1.473   1.921   8.796  0.9416  0.3984  0.3564
   24CHL1   H25 1768   1.492   1.815   8.768 -1.9062  0.2000 -1.2187
   24CHL1   C26 1769   1.503   2.022   8.677  0.5129  0.8172  0.1694
   24CHL1  H26A 1770   1.595   2.000   8.619 -0.9033 -1.3262 -1.3883
   24CHL1  H26B 1771   1.429   1.994   8.600 -1.6494 -0.8492  2.6627
   24CHL1  H26C 1772   1.498   2.131   8.701  0.9728  0.6912  0.8865
   24CHL1   C27 1773   1.572   1.938   8.920 -0.3024  0.6489  0.6853
   24CHL1  H27A 1774   1.680   1.934   8.893 -0.7016  0.0000 -0.9615
   24CHL1  H27B 1775   1.554   2.041   8.958 -1.3117  1.2065 -1.1743
   24CHL1  H27C 1776   1.558   1.853   8.990  2.0784  1.1883  1.9098
   25CHL1    C3 1777   1.766   5.166  10.371  0.1387 -0.2826 -0.3384
   25CHL1    H3 1778   1.872   5.180  10.338  0.9853 -0.3285  2.1399
   25CHL1    O3 1779   1.776   5.162  10.515 -0.7367 -0.0067 -0.5100
   25CHL1   H3' 1780   1.717   5.090  10.539 -1.3929  0.6360 -0.1643
   25CHL1    C4 1781   1.683   5.288  10.329  0.5737  0.4106  0.4105
   25CHL1   H4A 1782   1.577   5.274  10.359  0.8561 -0.2259  1.1489
   25CHL1   H4B 1783   1.721   5.370  10.392 -1.1400  2.1906 -0.7584
   25CHL1    C5 1784   1.703   5.307  10.179  0.1794  0.3019  0.1959
   25CHL1    C6 1785   1.750   5.421  10.128 -0.2224  0.1103 -0.0885
   25CHL1    H6 1786   1.755   5.507  10.197  2.6274 -1.1629  1.4884
   25CHL1    C7 1787   1.758   5.449   9.980 -0.6725  0.4582  0.3651
   25CHL1   H7A 1788   1.701   5.539   9.948 -0.3910  0.2115 -0.8993
   25CHL1   H7B 1789   1.865   5.460   9.955 -0.8307  0.4619 -0.3323
   25CHL1    C8 1790   1.699   5.337   9.892  0.4723 -0.0301 -0.0769
   25CHL1    H8 1791   1.589   5.345   9.902  0.3603 -1.7505  0.3000
   25CHL1   C14 1792   1.737   5.355   9.742 -0.3067  0.2644 -0.8337
   25CHL1   H14 1793   1.845   5.328   9.735 -0.5661 -1.0480 -0.0424
   25CHL1   C15 1794   1.721   5.497   9.682 -0.1753  0.4676  0.4307
   25CHL1  H15A 1795   1.622   5.541   9.704 -0.2683  1.5096 -1.8170
   25CHL1  H15B 1796   1.801   5.569   9.711 -0.5168  1.1925 -0.3949
   25CHL1   C16 1797   1.721   5.475   9.532  0.2638 -0.0975 -0.0810
   25CHL1  H16A 1798   1.624   5.509   9.490  0.1663  2.5538  2.0630
   25CHL1  H16B 1799   1.821   5.500   9.489  0.0877  1.3642  0.3047
   25CHL1   C17 1800   1.720   5.317   9.516 -0.4581  0.3568 -0.4801
   25CHL1   H17 1801   1.826   5.282   9.514 -0.3246  0.6882  0.3448
   25CHL1   C13 1802   1.666   5.251   9.645 -0.8951 -0.5130  0.1745
   25CHL1   C18 1803   1.512   5.259   9.645 -0.1529  1.0478 -0.5577
   25CHL1  H18A 1804   1.469   5.194   9.566 -0.4372  1.4985 -0.7790
   25CHL1  H18B 1805   1.482   5.238   9.749  2.0709  1.2086  0.1804
   25CHL1  H18C 1806   1.482   5.363   9.616 -0.2396  1.0381 -0.5001
   25CHL1   C12 1807   1.725   5.112   9.691 -0.4995  0.9399 -0.6021
   25CHL1  H12A 1808   1.676   5.032   9.630  0.9317  0.3089 -0.9601
   25CHL1  H12B 1809   1.836   5.115   9.687 -0.4996  0.0455 -1.9287
   25CHL1   C11 1810   1.688   5.090   9.840 -0.1153  0.6648  0.2447
   25CHL1  H11A 1811   1.579   5.076   9.855  0.2962 -2.0961  1.2457
   25CHL1  H11B 1812   1.726   4.988   9.863 -0.2464  0.4344 -0.5104
   25CHL1    C9 1813   1.729   5.199   9.944  0.3132  0.3636 -0.3913
   25CHL1    H9 1814   1.840   5.199   9.939  0.4439 -2.8376  0.6061
   25CHL1   C10 1815   1.682   5.186  10.089  0.0518  0.7474 -0.9006
   25CHL1   C19 1816   1.530   5.155  10.077 -0.1697 -0.7744  0.2511
   25CHL1  H19A 1817   1.472   5.177  10.169  1.6035  0.3602  1.1586
   25CHL1  H19B 1818   1.485   5.206   9.989  1.6137  2.9445  1.2829
   25CHL1  H19C 1819   1.516   5.049  10.047  0.9470 -0.2629 -2.4989
   25CHL1    C1 1820   1.744   5.056  10.153  0.5411 -0.7430  0.0540
   25CHL1   H1A 1821   1.720   4.970  10.086  2.1006 -0.6523 -0.6585
   25CHL1   H1B 1822   1.851   5.066  10.125  0.4917  0.2955  0.1971
   25CHL1    C2 1823   1.718   5.038  10.305 -0.1742 -0.3442  0.4499
   25CHL1   H2A 1824   1.769   4.949  10.347 -0.0988 -0.4208  0.2000
   25CHL1   H2B 1825   1.608   5.026  10.312 -0.7837  2.8770 -1.4512
   25CHL1   C20 1826   1.648   5.269   9.385  0.6046 -0.4091  0.2180
   25CHL1   H20 1827   1.544   5.306   9.397  1.0320  1.4931 -1.4791
   25CHL1   C21 1828   1.642   5.116   9.361  0.1367 -0.2847 -0.1316
   25CHL1  H21A 1829   1.613   5.095   9.256 -0.4964 -2.0053  0.3518
   25CHL1  H21B 1830   1.567   5.073   9.431 -1.0933  0.7758 -0.7597
   25CHL1  H21C 1831   1.744   5.075   9.378  1.2373  1.5629 -1.8087
   25CHL1   C22 1832   1.714   5.341   9.260  0.6011  0.6130 -0.1596
   25CHL1  H22A 1833   1.650   5.309   9.176 -1.7317  0.7004  1.4819
   25CHL1  H22B 1834   1.714   5.452   9.264 -0.7478  0.6694 -1.1600
   25CHL1   C23 1835   1.858   5.305   9.222  0.4983 -0.4519 -0.3781
   25CHL1  H23A 1836   1.926   5.326   9.307 -3.0611 -1.2418  2.9194
   25CHL1  H23B 1837   1.864   5.194   9.210 -0.6728 -0.2204 -4.4731
   25CHL1   C24 1838   1.922   5.381   9.097 -0.2546 -0.1843 -0.6222
   25CHL1  H24A 1839   1.905   5.490   9.112 -1.2982 -0.2283 -1.3565
   25CHL1  H24B 1840   2.031   5.362   9.090  0.2964  2.0378  0.7027
   25CHL1   C25 1841   1.847   5.334   8.966 -0.4761 -0.4259 -0.3810
   25CHL1   H25 1842   1.743   5.372   8.974 -1.2445 -2.7659  4.0770
   25CHL1   C26 1843   1.928   5.384   8.846  0.1481 -0.5860 -0.7323
   25CHL1  H26A 1844   2.034   5.355   8.835 -0.2471 -1.9041 -1.2262
   25CHL1  H26B 1845   1.867   5.388   8.753  2.9251  1.3817 -2.6353
   25CHL1  H26C 1846   1.940   5.494   8.859  0.5519 -0.5749 -1.2051
   25CHL1   C27 1847   1.844   5.177   8.960  0.1029  0.4390  0.2608
   25CHL1  H27A 1848   1.948   5.143   8.981 -0.1887  0.5379  2.0294
   25CHL1  H27B 1849   1.766   5.128   9.021  0.6110 -1.2721 -0.3903
   25CHL1  H27C 1850   1.805   5.145   8.861 -3.4264  2.1683  0.9509
   26CHL1    C3 1851   2.537   0.988  10.131  0.3359 -0.3972 -0.0250
   26CHL1    H3 1852   2.635   1.008  10.181  0.7178  0.6494 -1.1545
   26CHL1    O3 1853   2.470   0.888  10.208  0.0791 -0.6600  0.0555
   26CHL1   H3' 1854   2.409   0.850  10.143  2.2774 -2.2534 -1.1957
   26CHL1    C4 1855   2.453   1.111  10.130 -0.0579 -1.1048  0.5077
   26CHL1   H4A 1856   2.344   1.088  10.125 -0.4911  0.7657  0.3657
   26CHL1   H4B 1857   2.468   1.155  10.231  0.1761 -1.7228  0.7423
   26CHL1    C5 1858   2.500   1.209  10.020  0.0090 -0.5939 -0.0499
   26CHL1    C6 1859   2.525   1.339  10.036 -0.9872 -0.0913 -0.4470
   26CHL1    H6 1860   2.507   1.385  10.135 -0.0715  1.5000 -0.9865
   26CHL1    C7 1861   2.551   1.447   9.931 -0.5933  0.2166 -0.4383
   26CHL1   H7A 1862   2.478   1.531   9.929 -2.1368 -1.0139 -3.6941
   26CHL1   H7B 1863   2.656   1.482   9.935 -0.3384 -0.5534 -0.3206
   26CHL1    C8 1864   2.537   1.386   9.786  0.5496  0.0435 -0.2289
   26CHL1    H8 1865   2.427   1.386   9.767  0.6385 -0.1552 -0.7539
   26CHL1   C14 1866   2.619   1.460   9.687 -0.0318  0.4140 -0.2557
   26CHL1   H14 1867   2.723   1.443   9.721  0.8474  2.6558 -1.6300
   26CHL1   C15 1868   2.584   1.607   9.683 -0.3332  0.1563 -0.1140
   26CHL1  H15A 1869   2.473   1.619   9.684 -0.3137  0.3578 -0.4233
   26CHL1  H15B 1870   2.615   1.652   9.780 -2.7174 -0.0037  0.8072
   26CHL1   C16 1871   2.649   1.656   9.555 -0.0835  0.2560 -0.1660
   26CHL1  H16A 1872   2.578   1.719   9.497  0.7199  1.5288  0.1794
   26CHL1  H16B 1873   2.736   1.720   9.582  0.5184  0.3097 -2.1033
   26CHL1   C17 1874   2.695   1.524   9.474  0.1170 -0.5888 -0.0157
   26CHL1   H17 1875   2.800   1.507   9.507 -0.5176  0.8683  3.1500
   26CHL1   C13 1876   2.611   1.409   9.543  0.8708 -1.0766 -0.0488
   26CHL1   C18 1877   2.459   1.427   9.474 -0.1483 -0.0405  0.1522
   26CHL1  H18A 1878   2.402   1.337   9.506  1.5008 -1.2723 -0.2286
   26CHL1  H18B 1879   2.425   1.528   9.504  1.2524  0.6953 -0.6101
   26CHL1  H18C 1880   2.459   1.419   9.363 -0.6805 -1.8893  0.2426
   26CHL1   C12 1881   2.670   1.273   9.543  0.3509 -0.3632  0.4058
   26CHL1  H12A 1882   2.666   1.238   9.437 -0.7401  0.4335  0.1600
   26CHL1  H12B 1883   2.772   1.265   9.585  0.3107 -0.7868  0.4325
   26CHL1   C11 1884   2.590   1.178   9.637 -0.2112  0.1642  0.3924
   26CHL1  H11A 1885   2.487   1.163   9.597  0.1223 -1.8533  0.1592
   26CHL1  H11B 1886   2.641   1.080   9.645 -2.4050 -0.9745  1.3252
   26CHL1    C9 1887   2.592   1.238   9.781 -0.3101 -0.5193  1.2872
   26CHL1    H9 1888   2.697   1.242   9.816  0.6449  0.2675 -1.4375
   26CHL1   C10 1889   2.525   1.140   9.878  0.6190  0.1533 -0.4301
   26CHL1   C19 1890   2.384   1.096   9.831 -0.5498  0.4493  0.0783
   26CHL1  H19A 1891   2.313   1.178   9.806 -1.7346 -1.7123 -4.8181
   26CHL1  H19B 1892   2.383   1.029   9.743  0.0061 -0.1898  0.5439
   26CHL1  H19C 1893   2.329   1.040   9.910 -0.8739  1.6394  0.7252
   26CHL1    C1 1894   2.621   1.012   9.901  0.9351 -0.1598  0.8716
   26CHL1   H1A 1895   2.640   0.962   9.804  2.7530 -0.4288  1.3246
   26CHL1   H1B 1896   2.722   1.044   9.937  1.8585  0.2452 -1.8956
   26CHL1    C2 1897   2.559   0.918   9.997 -0.4281  0.4418  0.2638
   26CHL1   H2A 1898   2.610   0.823  10.023 -0.1489  0.5044 -0.0447
   26CHL1   H2B 1899   2.467   0.880   9.949 -1.0165  1.6763  0.3745
   26CHL1   C20 1900   2.702   1.536   9.321 -0.1492 -0.0697  0.5222
   26CHL1   H20 1901   2.602   1.571   9.285 -0.0743 -0.5639 -0.1785
   26CHL1   C21 1902   2.735   1.404   9.257  0.2679 -0.3349  0.3977
   26CHL1  H21A 1903   2.738   1.418   9.147  0.7827 -3.5262 -0.1115
   26CHL1  H21B 1904   2.655   1.326   9.262 -0.7013  0.5887 -0.2373
   26CHL1  H21C 1905   2.831   1.362   9.294 -0.0509 -0.5831  0.9600
   26CHL1   C22 1906   2.800   1.657   9.286 -0.4291  0.1149 -0.5903
   26CHL1  H22A 1907   2.757   1.746   9.336 -0.6107 -0.6970  0.7396
   26CHL1  H22B 1908   2.903   1.639   9.323 -1.4108 -2.4989  1.1263
   26CHL1   C23 1909   2.831   1.681   9.133  0.3479 -1.1567  0.8024
   26CHL1  H23A 1910   2.909   1.760   9.130 -0.7951  0.0997  2.3143
   26CHL1  H23B 1911   2.869   1.588   9.085  2.6458 -1.3590  2.7967
   26CHL1   C24 1912   2.700   1.737   9.064 -0.0143 -0.6554 -0.2915
   26CHL1  H24A 1913   2.622   1.659   9.066  0.7550 -1.4520 -0.7679
   26CHL1  H24B 1914   2.667   1.823   9.127  2.5685 -0.6197  1.1893
   26CHL1   C25 1915   2.712   1.786   8.920 -0.1491  0.0930 -0.0256
   26CHL1   H25 1916   2.748   1.700   8.860  2.3793  1.1819 -0.1730
   26CHL1   C26 1917   2.584   1.847   8.866 -0.0379  0.7816 -0.1271
   26CHL1  H26A 1918   2.509   1.766   8.855  0.8522  0.0611 -1.0243
   26CHL1  H26B 1919   2.549   1.925   8.938  0.8807  0.5104  0.6227
   26CHL1  H26C 1920   2.599   1.893   8.765 -2.4408  0.3999 -0.7260
   26CHL1   C27 1921   2.823   1.896   8.899 -0.1133  0.3196 -0.0056
   26CHL1  H27A 1922   2.924   1.853   8.917  0.3199  0.1266 -2.5647
   26CHL1  H27B 1923   2.817   1.934   8.795 -1.4991 -0.1410 -0.1145
   26CHL1  H27C 1924   2.816   1.981   8.970 -1.5604  0.0891  0.1642
   27CHL1    C3 1925   0.816   5.123  10.353  0.3430  0.0231  0.2570
   27CHL1    H3 1926   0.919   5.141  10.316  0.1544  0.2238 -0.1735
   27CHL1    O3 1927   0.801   5.092  10.490  0.3846 -0.0004 -0.2111
   27CHL1   H3' 1928   0.706   5.084  10.498  0.1701  0.9023 -1.5611
   27CHL1    C4 1929   0.733   5.243  10.318 -0.1621  0.5468  0.4863
   27CHL1   H4A 1930   0.633   5.220  10.361  1.3307 -2.3158  2.8002
   27CHL1   H4B 1931   0.773   5.325  10.381  1.9951  1.3157 -1.7267
   27CHL1    C5 1932   0.733   5.280  10.166 -0.2380  0.0130  1.1619
   27CHL1    C6 1933   0.777   5.402  10.117  0.5404 -0.8488  0.2706
   27CHL1    H6 1934   0.815   5.475  10.190 -1.5750 -1.2004  1.8375
   27CHL1    C7 1935   0.789   5.444   9.969  0.4054  0.5973  0.2495
   27CHL1   H7A 1936   0.750   5.548   9.971 -1.3298  0.1139 -2.7799
   27CHL1   H7B 1937   0.896   5.443   9.938  0.1502  0.9197 -0.6651
   27CHL1    C8 1938   0.688   5.353   9.889 -0.0905 -0.6572 -1.0247
   27CHL1    H8 1939   0.590   5.384   9.929  1.1472  1.0144  0.9400
   27CHL1   C14 1940   0.713   5.374   9.742 -0.0592 -0.3889  0.1635
   27CHL1   H14 1941   0.822   5.350   9.738  0.2470  0.7765  0.9575
   27CHL1   C15 1942   0.716   5.523   9.695  0.2933 -0.3247  0.6651
   27CHL1  H15A 1943   0.625   5.576   9.729 -0.7284 -1.1455 -0.6638
   27CHL1  H15B 1944   0.810   5.579   9.714  1.1848 -0.0603 -3.5164
   27CHL1   C16 1945   0.708   5.498   9.546 -0.1184 -0.3324  0.0952
   27CHL1  H16A 1946   0.627   5.568   9.514  0.2285 -1.0032 -2.4938
   27CHL1  H16B 1947   0.807   5.520   9.501  0.1834 -3.0997 -0.7499
   27CHL1   C17 1948   0.670   5.350   9.510  0.6200 -0.6996 -0.3292
   27CHL1   H17 1949   0.765   5.301   9.479  1.0942  0.7945 -1.3580
   27CHL1   C13 1950   0.636   5.286   9.648  0.1117  1.1014  1.3300
   27CHL1   C18 1951   0.482   5.316   9.671 -0.0741 -0.5613 -0.0845
   27CHL1  H18A 1952   0.472   5.424   9.645  1.7151 -0.4256 -0.2975
   27CHL1  H18B 1953   0.416   5.255   9.605  2.0579 -0.0237 -2.9295
   27CHL1  H18C 1954   0.463   5.296   9.778 -0.7225  0.5707  0.0355
   27CHL1   C12 1955   0.677   5.141   9.674  0.2761 -0.5476 -0.3034
   27CHL1  H12A 1956   0.642   5.057   9.610  1.8236 -1.3887 -0.1103
   27CHL1  H12B 1957   0.788   5.134   9.665  0.6663  0.1276  2.8043
   27CHL1   C11 1958   0.645   5.101   9.822 -0.5139  0.1672 -0.1223
   27CHL1  H11A 1959   0.534   5.105   9.837 -0.6079  1.5036 -1.0070
   27CHL1  H11B 1960   0.674   4.998   9.850 -0.0466  0.6319  1.1928
   27CHL1    C9 1961   0.709   5.201   9.925 -1.1520 -0.4766 -0.4275
   27CHL1    H9 1962   0.817   5.192   9.902 -1.2808 -0.6124 -0.9982
   27CHL1   C10 1963   0.695   5.162  10.075 -0.0939 -0.1109  0.1239
   27CHL1   C19 1964   0.543   5.132  10.111 -0.2820 -0.3839 -0.5942
   27CHL1  H19A 1965   0.527   5.104  10.217  0.9606  2.0296  0.3262
   27CHL1  H19B 1966   0.489   5.228  10.099 -0.4473 -0.1666  1.4470
   27CHL1  H19C 1967   0.499   5.049  10.052 -0.6858 -2.2028  2.0652
   27CHL1    C1 1968   0.781   5.038  10.118 -0.4669 -0.4198 -1.0950
   27CHL1   H1A 1969   0.753   4.947  10.060 -0.5255 -0.4362 -1.0408
   27CHL1   H1B 1970   0.885   5.061  10.085 -0.4020  2.3720  0.7792
   27CHL1    C2 1971   0.762   5.009  10.268 -0.7438  0.2655 -0.4446
   27CHL1   H2A 1972   0.829   4.922  10.280 -0.8394  0.2204 -0.2343
   27CHL1   H2B 1973   0.667   4.956  10.292  0.3303 -1.8265 -0.6094
   27CHL1   C20 1974   0.575   5.324   9.386 -0.0618  0.5905  0.0037
   27CHL1   H20 1975   0.468   5.338   9.410 -0.2064 -1.3035  0.6351
   27CHL1   C21 1976   0.591   5.185   9.343  0.3273  0.2718 -0.1386
   27CHL1  H21A 1977   0.540   5.152   9.251  1.2493 -2.0576  0.1137
   27CHL1  H21B 1978   0.558   5.122   9.429  2.9884 -1.5340 -0.2997
   27CHL1  H21C 1979   0.699   5.159   9.342  0.2478 -0.0418 -1.5847
   27CHL1   C22 1980   0.608   5.424   9.268 -0.0659  0.3466 -0.3231
   27CHL1  H22A 1981   0.579   5.527   9.295  2.6363  0.8680  0.9716
   27CHL1  H22B 1982   0.718   5.426   9.251  0.1379 -0.6958  0.7219
   27CHL1   C23 1983   0.530   5.399   9.134 -0.1810 -0.0128 -0.5325
   27CHL1  H23A 1984   0.537   5.292   9.103 -1.5401  0.0837 -1.2338
   27CHL1  H23B 1985   0.424   5.418   9.160  0.4456  0.0709  2.3662
   27CHL1   C24 1986   0.557   5.498   9.024 -0.3404  0.4065 -0.2890
   27CHL1  H24A 1987   0.533   5.600   9.061 -0.4379  0.9530 -1.7735
   27CHL1  H24B 1988   0.665   5.488   9.000  0.1351 -1.4997  2.2827
   27CHL1   C25 1989   0.466   5.469   8.909 -0.0699 -0.1637 -0.0814
   27CHL1   H25 1990   0.359   5.469   8.941  0.2789  1.3473  1.2322
   27CHL1   C26 1991   0.482   5.581   8.791 -0.1466  0.2648 -1.0115
   27CHL1  H26A 1992   0.470   5.685   8.828  0.1929  0.3041 -1.0077
   27CHL1  H26B 1993   0.582   5.576   8.744 -0.4709  1.2475 -1.8483
   27CHL1  H26C 1994   0.410   5.563   8.708 -0.8757 -0.6898 -0.1990
   27CHL1   C27 1995   0.500   5.328   8.849  0.1130 -0.1478  0.1877
   27CHL1  H27A 1996   0.455   5.318   8.748  2.2556 -1.4951 -0.7254
   27CHL1  H27B 1997   0.610   5.316   8.836  0.1804 -0.0824  0.6852
   27CHL1  H27C 1998   0.451   5.243   8.901  1.5626 -0.0535  1.7945
   28CHL1    C3 1999   0.295   3.683   9.934 -0.2733  0.3573 -0.1097
   28CHL1    H3 2000   0.205   3.645   9.881 -0.7934  1.5704 -0.1317
   28CHL1    O3 2001   0.252   3.706  10.064  0.2141  0.5798 -0.6054
   28CHL1   H3' 2002   0.336   3.724  10.107 -0.3483  0.9825  0.3578
   28CHL1    C4 2003   0.420   3.593   9.927  0.7559 -0.6369 -0.0498
   28CHL1   H4A 2004   0.500   3.630   9.995  1.8344 -2.4790 -0.2431
   28CHL1   H4B 2005   0.386   3.492   9.960  0.4854 -1.2905 -2.1422
   28CHL1    C5 2006   0.484   3.575   9.795 -0.2737  0.6010 -0.5369
   28CHL1    C6 2007   0.497   3.446   9.753 -0.2184  0.2618  0.5106
   28CHL1    H6 2008   0.472   3.357   9.811 -0.2766 -0.0132  0.0680
   28CHL1    C7 2009   0.563   3.423   9.617 -0.2993  0.2370 -0.2181
   28CHL1   H7A 2010   0.635   3.338   9.617  0.8593  1.1812  0.4853
   28CHL1   H7B 2011   0.479   3.393   9.552 -0.2607  0.7063 -0.4895
   28CHL1    C8 2012   0.634   3.548   9.553  0.2550  0.2601 -0.1615
   28CHL1    H8 2013   0.735   3.551   9.600 -0.4675 -1.6845  1.6473
   28CHL1   C14 2014   0.642   3.514   9.405  0.3248 -0.0864  0.3824
   28CHL1   H14 2015   0.538   3.514   9.366 -0.1352 -0.5982  1.5790
   28CHL1   C15 2016   0.692   3.372   9.353  0.2359  0.9045 -0.1493
   28CHL1  H15A 2017   0.770   3.332   9.421 -1.3732 -1.5723  0.3523
   28CHL1  H15B 2018   0.607   3.302   9.366  0.4984  0.8856  1.7235
   28CHL1   C16 2019   0.739   3.400   9.209  0.4459 -0.8642  0.0472
   28CHL1  H16A 2020   0.849   3.389   9.196  0.7554  0.7567  1.0814
   28CHL1  H16B 2021   0.680   3.332   9.143 -0.8002 -0.5197  0.7795
   28CHL1   C17 2022   0.717   3.558   9.188 -0.5167  0.8418  0.5273
   28CHL1   H17 2023   0.613   3.566   9.151  0.3584 -1.2473 -2.8328
   28CHL1   C13 2024   0.718   3.616   9.326  0.9667 -0.0431 -0.9285
   28CHL1   C18 2025   0.865   3.627   9.371  0.2532  0.3643  0.4888
   28CHL1  H18A 2026   0.933   3.546   9.338 -0.3473 -0.2396  0.7130
   28CHL1  H18B 2027   0.914   3.720   9.337  1.0871 -0.3029 -0.1645
   28CHL1  H18C 2028   0.877   3.611   9.480  0.0235 -2.8307  0.1420
   28CHL1   C12 2029   0.648   3.754   9.341  0.6191 -0.1384  0.4131
   28CHL1  H12A 2030   0.705   3.840   9.302 -1.4716  0.8560 -0.6064
   28CHL1  H12B 2031   0.551   3.767   9.288 -0.5363 -0.1687  2.3851
   28CHL1   C11 2032   0.610   3.792   9.492 -0.4231  0.6031  0.1201
   28CHL1  H11A 2033   0.704   3.810   9.548 -0.0270  0.5640 -0.5227
   28CHL1  H11B 2034   0.557   3.888   9.506  0.0652  0.5615  2.7268
   28CHL1    C9 2035   0.549   3.674   9.574 -0.6090 -0.1272  0.0816
   28CHL1    H9 2036   0.450   3.652   9.529 -0.9094 -1.1127  1.1925
   28CHL1   C10 2037   0.513   3.705   9.723  0.2607  0.3993 -0.1722
   28CHL1   C19 2038   0.643   3.774   9.792  0.2278  1.0392  0.0355
   28CHL1  H19A 2039   0.660   3.878   9.758  0.0986  1.1480  0.3064
   28CHL1  H19B 2040   0.616   3.777   9.900  0.3767 -1.1646  0.1793
   28CHL1  H19C 2041   0.724   3.702   9.767 -0.4753  0.7610 -1.5517
   28CHL1    C1 2042   0.388   3.803   9.724 -1.0325  0.2139 -0.3999
   28CHL1   H1A 2043   0.422   3.899   9.681 -0.5159  0.3378  0.2632
   28CHL1   H1B 2044   0.315   3.751   9.657 -1.0679 -0.5968  0.2470
   28CHL1    C2 2045   0.326   3.816   9.861 -0.2238 -0.7802  0.1353
   28CHL1   H2A 2046   0.229   3.870   9.858  0.4173  0.4623  0.7668
   28CHL1   H2B 2047   0.397   3.874   9.924  1.2721 -0.5941 -1.6267
   28CHL1   C20 2048   0.822   3.609   9.080 -0.0555 -0.6682  0.2516
   28CHL1   H20 2049   0.922   3.595   9.126 -0.3213 -1.9840  0.4599
   28CHL1   C21 2050   0.782   3.757   9.058 -0.9757 -0.3395 -0.4867
   28CHL1  H21A 2051   0.671   3.752   9.052 -1.0682  2.0271 -1.6853
   28CHL1  H21B 2052   0.816   3.804   8.963 -2.4679  2.2329  0.1697
   28CHL1  H21C 2053   0.827   3.814   9.142  0.9819 -1.3674 -0.7629
   28CHL1   C22 2054   0.814   3.523   8.955 -0.2311  0.3445  0.5809
   28CHL1  H22A 2055   0.839   3.418   8.978 -1.3971  0.1786  1.1272
   28CHL1  H22B 2056   0.710   3.514   8.917  0.7451 -1.6000 -1.9351
   28CHL1   C23 2057   0.902   3.576   8.839 -0.6862  0.0893 -0.2293
   28CHL1  H23A 2058   0.842   3.647   8.778 -0.6249  1.4221  1.1832
   28CHL1  H23B 2059   0.994   3.623   8.879  1.2464 -0.8606 -3.2123
   28CHL1   C24 2060   0.949   3.468   8.731 -0.0530 -0.1231  0.1678
   28CHL1  H24A 2061   1.003   3.392   8.791  3.5043  0.8080 -1.5375
   28CHL1  H24B 2062   0.864   3.414   8.686 -0.2900 -1.2820  1.8966
   28CHL1   C25 2063   1.057   3.512   8.633  0.2085  0.0432 -0.0912
   28CHL1   H25 2064   1.155   3.538   8.680  0.8621 -0.4386 -1.1386
   28CHL1   C26 2065   1.068   3.404   8.524 -0.3531 -0.1699  0.3753
   28CHL1  H26A 2066   0.964   3.382   8.491  0.2498  0.2445 -1.9917
   28CHL1  H26B 2067   1.133   3.443   8.443 -2.2227  1.1010 -0.5647
   28CHL1  H26C 2068   1.115   3.312   8.567 -0.5392  0.2003  1.4031
   28CHL1   C27 2069   1.015   3.640   8.556 -0.1522 -0.4290  0.3458
   28CHL1  H27A 2070   0.915   3.616   8.514 -0.8082  2.6168 -0.0382
   28CHL1  H27B 2071   1.014   3.729   8.623 -0.6794 -0.2572  0.1129
   28CHL1  H27C 2072   1.082   3.650   8.468  1.7342 -0.6782  1.6979
   29CHL1    C3 2073   3.542   1.429   6.627  0.2007 -0.7058  0.5491
   29CHL1    H3 2074   3.651   1.409   6.627  0.3833  0.2301  1.2661
   29CHL1    O3 2075   3.491   1.455   6.495 -0.4320 -0.1277  0.1069
   29CHL1   H3' 2076   3.554   1.520   6.463  0.2680 -0.5818  0.5451
   29CHL1    C4 2077   3.472   1.307   6.697 -0.2013  0.5263  0.0506
   29CHL1   H4A 2078   3.363   1.324   6.688  0.1576  2.4032 -1.4404
   29CHL1   H4B 2079   3.505   1.216   6.642 -1.7694 -0.6819  1.0254
   29CHL1    C5 2080   3.500   1.293   6.842  0.0282  0.5076 -0.8596
   29CHL1    C6 2081   3.561   1.182   6.898  0.0339 -1.3197 -0.2526
   29CHL1    H6 2082   3.582   1.095   6.834  1.3356 -1.2733  0.0798
   29CHL1    C7 2083   3.600   1.174   7.044  0.3470 -0.2299 -0.0256
   29CHL1   H7A 2084   3.595   1.070   7.084  0.3218 -0.1104  0.2845
   29CHL1   H7B 2085   3.709   1.189   7.057  0.0814  0.8597  1.0825
   29CHL1    C8 2086   3.527   1.274   7.141 -0.2798  0.6989  0.1288
   29CHL1    H8 2087   3.420   1.247   7.156 -0.5632  0.5792 -1.8333
   29CHL1   C14 2088   3.596   1.280   7.278 -0.1920 -0.1596 -0.2532
   29CHL1   H14 2089   3.703   1.310   7.272  0.6559 -2.9674 -0.7733
   29CHL1   C15 2090   3.608   1.147   7.357 -0.1859 -0.1566  0.3382
   29CHL1  H15A 2091   3.510   1.102   7.327 -0.1594 -0.1598  0.2569
   29CHL1  H15B 2092   3.684   1.072   7.328 -1.6902 -2.7956  2.6411
   29CHL1   C16 2093   3.602   1.185   7.503  0.3389  0.6279  0.2640
   29CHL1  H16A 2094   3.510   1.132   7.535  0.7372 -1.0539 -1.2182
   29CHL1  H16B 2095   3.684   1.158   7.573 -1.2617 -0.0369  1.9730
   29CHL1   C17 2096   3.576   1.343   7.507  0.2761  0.1454 -0.0361
   29CHL1   H17 2097   3.675   1.393   7.515 -0.2590  1.2565 -0.2108
   29CHL1   C13 2098   3.521   1.382   7.370  0.2810  0.4152  0.0063
   29CHL1   C18 2099   3.370   1.355   7.382 -0.7103 -0.1845  0.3443
   29CHL1  H18A 2100   3.318   1.339   7.285  1.0668 -1.3276 -0.4643
   29CHL1  H18B 2101   3.354   1.272   7.453 -1.6355 -0.7787 -0.5393
   29CHL1  H18C 2102   3.309   1.438   7.424 -1.6273 -1.3987  1.4646
   29CHL1   C12 2103   3.527   1.528   7.306 -0.1275  0.4325 -0.8393
   29CHL1  H12A 2104   3.464   1.600   7.363 -1.6534 -0.4656 -1.3274
   29CHL1  H12B 2105   3.635   1.554   7.315  0.0828 -0.6947  0.2169
   29CHL1   C11 2106   3.470   1.528   7.166 -0.1837 -0.3890  0.2327
   29CHL1  H11A 2107   3.360   1.521   7.179 -0.3583  0.8338 -0.4511
   29CHL1  H11B 2108   3.498   1.626   7.121  2.3227 -0.3626  1.6342
   29CHL1    C9 2109   3.531   1.418   7.076  0.2778  0.3470  0.1723
   29CHL1    H9 2110   3.641   1.432   7.066  0.2474 -0.3774 -1.3885
   29CHL1   C10 2111   3.484   1.417   6.926  0.2485 -0.9203  0.2533
   29CHL1   C19 2112   3.331   1.450   6.923 -0.0051  0.3347 -1.3148
   29CHL1  H19A 2113   3.279   1.422   6.828 -0.1695 -1.4233 -0.7540
   29CHL1  H19B 2114   3.286   1.385   7.002  1.2242 -2.4224 -2.7377
   29CHL1  H19C 2115   3.305   1.556   6.942 -1.0402  0.2487 -2.1422
   29CHL1    C1 2116   3.563   1.537   6.854 -0.2280  0.4998  0.1642
   29CHL1   H1A 2117   3.546   1.626   6.918  3.1874 -0.6782  3.0926
   29CHL1   H1B 2118   3.672   1.515   6.857 -0.7628 -2.5761  0.9318
   29CHL1    C2 2119   3.525   1.557   6.704  0.3375 -0.1770 -0.0664
   29CHL1   H2A 2120   3.582   1.643   6.663 -1.8630  0.8878 -1.0515
   29CHL1   H2B 2121   3.419   1.585   6.690  0.2411  0.0734  1.0581
   29CHL1   C20 2122   3.514   1.399   7.638 -0.1278  0.3464  0.3728
   29CHL1   H20 2123   3.416   1.346   7.641 -0.8768  1.6941  0.4675
   29CHL1   C21 2124   3.481   1.548   7.638  0.1888  0.1698  0.1208
   29CHL1  H21A 2125   3.568   1.616   7.620  0.7342 -0.4423  0.3826
   29CHL1  H21B 2126   3.445   1.566   7.741 -0.1741 -0.3851  0.0920
   29CHL1  H21C 2127   3.400   1.573   7.566  0.1584  1.1190  0.4743
   29CHL1   C22 2128   3.592   1.359   7.767  0.1247 -0.1555 -0.0357
   29CHL1  H22A 2129   3.663   1.277   7.746 -1.3534 -1.4570 -0.1326
   29CHL1  H22B 2130   3.653   1.446   7.799  1.0946 -0.8105 -0.0548
   29CHL1   C23 2131   3.488   1.321   7.881 -0.1295  0.0258  0.2180
   29CHL1  H23A 2132   3.528   1.329   7.985 -0.1053 -1.2018  0.3212
   29CHL1  H23B 2133   3.411   1.401   7.878 -1.1280 -0.9173 -3.3691
   29CHL1   C24 2134   3.426   1.182   7.861  0.6334 -0.1366 -0.1808
   29CHL1  H24A 2135   3.377   1.180   7.761 -0.0970  0.4875  0.1616
   29CHL1  H24B 2136   3.508   1.107   7.861  1.3457  0.6057 -1.5005
   29CHL1   C25 2137   3.310   1.154   7.965  0.1473 -1.1488 -0.2998
   29CHL1   H25 2138   3.232   1.226   7.932  1.1468 -0.7650 -1.9799
   29CHL1   C26 2139   3.264   1.013   7.944 -0.0660 -0.2451  0.2392
   29CHL1  H26A 2140   3.212   1.002   7.846 -1.2493 -0.6108  0.8974
   29CHL1  H26B 2141   3.354   0.950   7.959  0.5937  0.5026 -0.4865
   29CHL1  H26C 2142   3.193   0.975   8.020 -0.1570 -0.0439  0.2530
   29CHL1   C27 2143   3.346   1.182   8.111  0.5777 -0.1034 -0.1048
   29CHL1  H27A 2144   3.446   1.139   8.131  1.5873  2.4212  0.7373
   29CHL1  H27B 2145   3.354   1.293   8.115  1.6999 -0.1540 -0.5607
   29CHL1  H27C 2146   3.285   1.137   8.192  0.3446  1.2752  0.5241
   30CHL1    C3 2147   2.123   0.555   6.970  0.7614 -0.0887 -0.7018
   30CHL1    H3 2148   2.217   0.496   6.975 -0.2331 -1.7540 -0.8425
   30CHL1    O3 2149   2.099   0.631   6.856  0.1810 -0.9013  1.1866
   30CHL1   H3' 2150   2.017   0.599   6.816  1.0107 -1.0738 -0.4877
   30CHL1    C4 2151   2.018   0.447   6.983  0.0423 -0.2970  0.1364
   30CHL1   H4A 2152   1.914   0.483   6.972 -0.1024 -1.1793 -1.8199
   30CHL1   H4B 2153   2.037   0.382   6.895 -0.3605  1.1156 -1.0381
   30CHL1    C5 2154   2.027   0.376   7.117 -0.0982  0.4257  0.6745
   30CHL1    C6 2155   2.036   0.241   7.118  0.1708  0.1212  0.2569
   30CHL1    H6 2156   2.026   0.195   7.019 -1.1561  0.6905  0.1084
   30CHL1    C7 2157   2.033   0.158   7.249 -0.0808 -1.0192  0.4271
   30CHL1   H7A 2158   1.967   0.071   7.229 -0.8852  0.1245 -2.2860
   30CHL1   H7B 2159   2.131   0.113   7.278 -0.0905 -1.2735  0.0711
   30CHL1    C8 2160   1.966   0.242   7.366  0.1288 -0.1722 -0.4729
   30CHL1    H8 2161   1.858   0.255   7.345 -0.3111 -0.1795  1.5800
   30CHL1   C14 2162   1.990   0.163   7.495  0.2228  1.1472  0.9046
   30CHL1   H14 2163   2.100   0.148   7.500  0.1438  1.0099  3.0736
   30CHL1   C15 2164   1.928   0.021   7.516  0.1632 -0.7188  0.4548
   30CHL1  H15A 2165   1.819   0.021   7.492  0.0931 -1.9967  0.6920
   30CHL1  H15B 2166   1.974  -0.049   7.444 -2.5703 -3.3967  1.0859
   30CHL1   C16 2167   1.948  -0.004   7.668 -0.1798  0.0309 -0.2622
   30CHL1  H16A 2168   1.854  -0.045   7.710  2.3986 -4.4275  1.8431
   30CHL1  H16B 2169   2.030  -0.077   7.679 -0.0949  0.3295  1.2779
   30CHL1   C17 2170   2.001   0.124   7.732  0.0773 -0.0333  0.0896
   30CHL1   H17 2171   2.112   0.111   7.735  0.0002 -0.7748  0.0188
   30CHL1   C13 2172   1.972   0.239   7.628 -0.7211  0.8483 -0.2534
   30CHL1   C18 2173   1.816   0.285   7.636  0.0335  0.3557 -0.2893
   30CHL1  H18A 2174   1.763   0.195   7.674  1.3409  0.6472  2.4594
   30CHL1  H18B 2175   1.812   0.373   7.703  1.3890 -0.9075  1.5718
   30CHL1  H18C 2176   1.779   0.309   7.535  0.3420 -1.0792 -0.7717
   30CHL1   C12 2177   2.067   0.360   7.623 -0.2997  0.5699 -0.9724
   30CHL1  H12A 2178   2.076   0.420   7.717  1.0690 -2.6936  1.1578
   30CHL1  H12B 2179   2.173   0.330   7.606  0.1357  1.1486  0.5219
   30CHL1   C11 2180   2.020   0.450   7.509  0.3370  0.0246  0.6120
   30CHL1  H11A 2181   1.917   0.491   7.518 -0.2220 -0.5669 -2.0811
   30CHL1  H11B 2182   2.085   0.540   7.509 -0.6894  0.7942 -0.4724
   30CHL1    C9 2183   2.037   0.382   7.369  0.4947 -0.2381 -0.4442
   30CHL1    H9 2184   2.144   0.355   7.368  0.5041 -0.1956 -0.5971
   30CHL1   C10 2185   2.015   0.464   7.237  0.4587 -0.4148 -0.2124
   30CHL1   C19 2186   1.876   0.536   7.245  0.0849  0.8836 -0.4091
   30CHL1  H19A 2187   1.796   0.468   7.283 -0.4129  2.6722  2.0265
   30CHL1  H19B 2188   1.875   0.623   7.315  0.3198  1.5823 -1.2508
   30CHL1  H19C 2189   1.838   0.574   7.147 -1.8435 -0.1062 -0.0912
   30CHL1    C1 2190   2.125   0.572   7.227  0.2219 -0.1503 -0.2135
   30CHL1   H1A 2191   2.114   0.650   7.305  2.4931  1.4184 -1.3285
   30CHL1   H1B 2192   2.226   0.527   7.226  1.3052  2.1337 -0.2621
   30CHL1    C2 2193   2.115   0.650   7.091  0.4893 -0.2405 -0.4361
   30CHL1   H2A 2194   2.196   0.726   7.089  2.1101 -1.8613 -0.0942
   30CHL1   H2B 2195   2.017   0.700   7.081  1.0343  1.1082  0.6151
   30CHL1   C20 2196   1.946   0.139   7.872  0.0291  0.5098 -0.2163
   30CHL1   H20 2197   1.835   0.139   7.871 -0.1011 -1.1626 -3.8544
   30CHL1   C21 2198   2.000   0.268   7.947 -0.3424 -0.3255  0.8659
   30CHL1  H21A 2199   1.953   0.364   7.916  1.3867  0.5951  0.9641
   30CHL1  H21B 2200   2.110   0.273   7.930 -0.6517 -2.2034 -2.7482
   30CHL1  H21C 2201   1.967   0.247   8.051 -0.8918 -0.9352  0.5699
   30CHL1   C22 2202   1.988   0.016   7.958  0.2220 -0.0995  0.1339
   30CHL1  H22A 2203   1.964  -0.078   7.904  0.2971 -0.6919  1.1016
   30CHL1  H22B 2204   2.098   0.019   7.972  0.1288  0.6121  0.7165
   30CHL1   C23 2205   1.922   0.010   8.092  0.1503 -0.2201 -0.0887
   30CHL1  H23A 2206   1.976   0.066   8.171  0.7953 -2.5791  1.2315
   30CHL1  H23B 2207   1.815   0.039   8.094  0.2445  0.0916  1.2320
   30CHL1   C24 2208   1.927  -0.131   8.133  0.1737  0.0373 -0.0937
   30CHL1  H24A 2209   1.851  -0.177   8.066  0.6065 -0.7348 -0.0577
   30CHL1  H24B 2210   2.020  -0.182   8.099 -1.5332 -2.2550 -1.6013
   30CHL1   C25 2211   1.903  -0.167   8.281  0.3761 -0.1196 -0.0635
   30CHL1   H25 2212   1.831  -0.100   8.333  0.8859 -1.0377  1.9387
   30CHL1   C26 2213   1.845  -0.313   8.303  0.5592  0.1238 -0.0818
   30CHL1  H26A 2214   1.756  -0.324   8.237 -0.0724 -0.5090  0.8400
   30CHL1  H26B 2215   1.920  -0.390   8.275 -0.0564 -0.2922 -0.6103
   30CHL1  H26C 2216   1.811  -0.343   8.404  1.4197 -2.4213 -0.4783
   30CHL1   C27 2217   2.039  -0.152   8.365  1.2149  0.0055  0.0779
   30CHL1  H27A 2218   2.117  -0.209   8.309 -0.8458 -0.6250 -2.3385
   30CHL1  H27B 2219   2.063  -0.044   8.361  0.4236  0.2665  1.6004
   30CHL1  H27C 2220   2.027  -0.179   8.472  1.5563  3.3370  1.0469
   31CHL1    C3 2221   3.057   1.139   6.691  0.0705  0.7626  0.1120
   31CHL1    H3 2222   3.075   1.248   6.705  2.8912  0.3986 -0.1017
   31CHL1    O3 2223   3.076   1.123   6.553  0.5716 -0.6049 -0.3464
   31CHL1   H3' 2224   3.079   1.029   6.531  0.6641 -0.8740  0.7381
   31CHL1    C4 2225   3.154   1.048   6.765 -0.2893 -0.0642 -0.0292
   31CHL1   H4A 2226   3.153   0.941   6.733 -0.0586  0.1197 -0.6660
   31CHL1   H4B 2227   3.254   1.083   6.732 -0.0847  0.4019  1.0349
   31CHL1    C5 2228   3.125   1.055   6.913 -0.0370 -0.5172  0.1658
   31CHL1    C6 2229   3.210   1.097   7.001  0.6953  0.1078  0.0302
   31CHL1    H6 2230   3.304   1.137   6.961  0.9018  0.1810  0.5725
   31CHL1    C7 2231   3.183   1.101   7.149 -0.4065 -0.4282 -0.2567
   31CHL1   H7A 2232   3.270   1.062   7.206 -0.4834  2.1963  1.8459
   31CHL1   H7B 2233   3.172   1.208   7.177  2.3078 -0.4767  1.4029
   31CHL1    C8 2234   3.065   1.011   7.193 -0.4595 -0.3404  0.1666
   31CHL1    H8 2235   3.112   0.913   7.170  1.6595  0.9111 -1.1873
   31CHL1   C14 2236   3.043   1.023   7.342 -0.4016 -0.3153  0.6578
   31CHL1   H14 2237   3.001   1.125   7.331  2.1489  0.7706  0.2833
   31CHL1   C15 2238   3.153   1.035   7.447  0.2780  0.0638 -0.2017
   31CHL1  H15A 2239   3.233   0.958   7.433  0.2806 -0.3742  1.8155
   31CHL1  H15B 2240   3.194   1.138   7.453  0.3940 -0.0163  0.4940
   31CHL1   C16 2241   3.083   1.000   7.581  0.0630 -0.0555  0.7322
   31CHL1  H16A 2242   3.127   0.907   7.623 -0.4887  0.2578  2.0562
   31CHL1  H16B 2243   3.092   1.085   7.652  2.4114  0.2886  0.1073
   31CHL1   C17 2244   2.935   0.971   7.553 -0.0651 -0.5547 -0.1007
   31CHL1   H17 2245   2.891   1.073   7.562  0.6513 -0.4355  3.8918
   31CHL1   C13 2246   2.936   0.936   7.402  0.1877  0.5783  0.9392
   31CHL1   C18 2247   2.970   0.790   7.377 -0.0915  0.0407  0.0041
   31CHL1  H18A 2248   2.886   0.722   7.402 -1.2391  0.5149 -2.2413
   31CHL1  H18B 2249   2.994   0.762   7.272  0.4672  0.1990  0.0869
   31CHL1  H18C 2250   3.057   0.759   7.437 -1.0140 -2.1258  0.3058
   31CHL1   C12 2251   2.811   0.974   7.318 -0.3839  0.7536 -0.0098
   31CHL1  H12A 2252   2.727   0.903   7.337 -2.0338  2.1419 -1.7198
   31CHL1  H12B 2253   2.779   1.079   7.332  3.2585  2.4630 -2.9446
   31CHL1   C11 2254   2.830   0.965   7.161 -0.2658  0.2378  0.3032
   31CHL1  H11A 2255   2.836   0.856   7.141  0.0011  0.4262 -0.6798
   31CHL1  H11B 2256   2.732   0.993   7.117 -0.4654 -0.5040  0.2629
   31CHL1    C9 2257   2.956   1.037   7.097  0.2409  0.2768 -1.0045
   31CHL1    H9 2258   2.935   1.143   7.120  1.8984  0.0325  2.4250
   31CHL1   C10 2259   2.977   1.011   6.948 -0.0427 -0.2105  0.0318
   31CHL1   C19 2260   2.956   0.864   6.915 -0.2272  1.1439 -0.0488
   31CHL1  H19A 2261   2.857   0.822   6.944 -0.0164  0.9351  0.3788
   31CHL1  H19B 2262   2.957   0.846   6.806 -0.7977  1.5999 -0.1391
   31CHL1  H19C 2263   3.038   0.806   6.961 -0.5680  2.1499  1.9728
   31CHL1    C1 2264   2.883   1.102   6.864  0.0506  0.2077 -0.3373
   31CHL1   H1A 2265   2.781   1.063   6.887 -0.0576 -0.9894 -2.5691
   31CHL1   H1B 2266   2.891   1.206   6.903 -2.8424  0.5116 -0.3597
   31CHL1    C2 2267   2.914   1.103   6.713  0.0435 -0.5329  0.0314
   31CHL1   H2A 2268   2.837   1.164   6.662 -2.2068 -1.7478  1.8073
   31CHL1   H2B 2269   2.898   1.002   6.668 -1.6600  0.9379 -3.0194
   31CHL1   C20 2270   2.862   0.888   7.659  0.8977 -0.2629  0.1031
   31CHL1   H20 2271   2.901   0.785   7.640 -0.9105 -0.5321 -2.7747
   31CHL1   C21 2272   2.707   0.891   7.637 -1.3609 -0.2495 -0.1802
   31CHL1  H21A 2273   2.648   0.844   7.718  1.0011 -1.0436  1.1782
   31CHL1  H21B 2274   2.681   0.846   7.538 -1.3876  1.1038 -0.8180
   31CHL1  H21C 2275   2.674   0.996   7.621  3.0078  1.2068 -1.0832
   31CHL1   C22 2276   2.901   0.940   7.799  0.4652 -0.1357 -0.5312
   31CHL1  H22A 2277   3.011   0.935   7.818  0.0790 -0.8302  1.7825
   31CHL1  H22B 2278   2.870   1.046   7.813  0.3509 -0.3873  1.2682
   31CHL1   C23 2279   2.828   0.859   7.913  0.0949  0.4493 -0.2588
   31CHL1  H23A 2280   2.864   0.896   8.012  1.7361 -1.1457 -0.2166
   31CHL1  H23B 2281   2.717   0.867   7.907  0.0322 -0.7958 -0.9000
   31CHL1   C24 2282   2.845   0.703   7.915  0.3900  0.3291  0.0283
   31CHL1  H24A 2283   2.805   0.671   7.816 -0.0815 -0.1551  0.3710
   31CHL1  H24B 2284   2.949   0.669   7.930  0.2844 -0.0322 -0.0626
   31CHL1   C25 2285   2.741   0.629   8.015  0.6635  0.4716  0.3483
   31CHL1   H25 2286   2.638   0.646   7.976 -1.5103 -4.4306  3.0716
   31CHL1   C26 2287   2.750   0.478   8.014  0.1060  0.5066  0.2705
   31CHL1  H26A 2288   2.655   0.435   8.054  1.0367 -0.1904  1.8116
   31CHL1  H26B 2289   2.758   0.435   7.911 -2.2563 -0.9146  0.5891
   31CHL1  H26C 2290   2.836   0.452   8.079 -0.1520  2.2358  1.3530
   31CHL1   C27 2291   2.744   0.683   8.159  0.1156 -0.2414  0.0188
   31CHL1  H27A 2292   2.677   0.629   8.229 -1.1351 -0.8695 -1.5964
   31CHL1  H27B 2293   2.716   0.790   8.157 -1.7992 -0.7249 -0.5660
   31CHL1  H27C 2294   2.846   0.683   8.204 -0.6135 -1.0956  1.7366
   32CHL1    C3 2295   3.493   5.208   6.837  0.0797 -0.6390 -0.3630
   32CHL1    H3 2296   3.505   5.309   6.792 -3.2805  0.9741  1.8968
   32CHL1    O3 2297   3.426   5.127   6.735  0.1844 -0.1984 -0.2841
   32CHL1   H3' 2298   3.338   5.155   6.759  0.5429  0.3704  0.4122
   32CHL1    C4 2299   3.626   5.138   6.873 -0.1418  0.0215 -0.4914
   32CHL1   H4A 2300   3.596   5.032   6.889 -0.1480  0.2715  1.2478
   32CHL1   H4B 2301   3.694   5.145   6.785  2.4395 -0.4433  1.3522
   32CHL1    C5 2302   3.693   5.181   6.998  0.3486 -0.6755 -0.2015
   32CHL1    C6 2303   3.826   5.201   6.994 -0.4063 -0.4295 -0.4618
   32CHL1    H6 2304   3.877   5.182   6.899  0.7265 -2.6425  0.5231
   32CHL1    C7 2305   3.905   5.235   7.111  0.2223 -0.4606 -0.3648
   32CHL1   H7A 2306   3.993   5.167   7.114  0.3662 -0.2523  0.5482
   32CHL1   H7B 2307   3.940   5.339   7.094 -1.1718 -0.0341 -0.7672
   32CHL1    C8 2308   3.827   5.240   7.244 -0.0655 -0.0843 -0.1302
   32CHL1    H8 2309   3.805   5.141   7.288 -1.1058  0.6263  1.0007
   32CHL1   C14 2310   3.897   5.322   7.348  0.2934  0.3824 -0.1413
   32CHL1   H14 2311   3.901   5.428   7.313 -1.7799  0.5788  0.1198
   32CHL1   C15 2312   4.041   5.277   7.387  0.1469 -0.3678  0.3185
   32CHL1  H15A 2313   4.043   5.166   7.381  0.3875 -0.3389 -0.2050
   32CHL1  H15B 2314   4.108   5.321   7.310  0.4672  1.0434  1.3456
   32CHL1   C16 2315   4.068   5.338   7.521  0.2967 -0.3098  0.8551
   32CHL1  H16A 2316   4.074   5.257   7.597 -1.9580  1.1833  2.7564
   32CHL1  H16B 2317   4.166   5.391   7.518 -0.0509  0.3060 -1.5753
   32CHL1   C17 2318   3.940   5.417   7.560  1.0355 -0.0015 -0.1478
   32CHL1   H17 2319   3.949   5.517   7.512 -2.9997  1.5554  1.8334
   32CHL1   C13 2320   3.823   5.346   7.481 -0.4433  0.2095 -0.6367
   32CHL1   C18 2321   3.797   5.211   7.555  0.4494  0.1867 -0.2050
   32CHL1  H18A 2322   3.879   5.136   7.558  0.6819  0.3185 -2.1628
   32CHL1  H18B 2323   3.747   5.216   7.654  2.1691 -2.2359  0.9002
   32CHL1  H18C 2324   3.724   5.152   7.496 -0.3478  1.2785 -0.3203
   32CHL1   C12 2325   3.693   5.422   7.447 -0.1242 -0.7497 -0.2206
   32CHL1  H12A 2326   3.619   5.433   7.530 -1.9584 -1.7981 -1.6458
   32CHL1  H12B 2327   3.715   5.526   7.417 -0.4129  0.0228  2.0644
   32CHL1   C11 2328   3.605   5.342   7.355 -0.6615 -0.5409 -0.1223
   32CHL1  H11A 2329   3.555   5.255   7.404  0.8242 -1.3835 -0.0213
   32CHL1  H11B 2330   3.525   5.414   7.328 -3.0177 -2.1702  1.9547
   32CHL1    C9 2331   3.689   5.303   7.222  0.6345 -0.6746 -0.1502
   32CHL1    H9 2332   3.710   5.400   7.174  1.0396 -1.1603 -0.9688
   32CHL1   C10 2333   3.603   5.218   7.122  0.0904  0.0436  0.2487
   32CHL1   C19 2334   3.563   5.084   7.192  0.4633  0.5444  0.2621
   32CHL1  H19A 2335   3.524   5.020   7.110  1.8141 -1.7074  1.2682
   32CHL1  H19B 2336   3.653   5.022   7.215  1.2623  0.1805 -3.2713
   32CHL1  H19C 2337   3.486   5.092   7.272  0.9942  0.9259  0.7469
   32CHL1    C1 2338   3.480   5.293   7.076 -0.2046 -0.3411 -0.0250
   32CHL1   H1A 2339   3.417   5.298   7.168 -2.1099 -0.3743 -1.2647
   32CHL1   H1B 2340   3.500   5.395   7.038  0.0150 -0.2686  0.2868
   32CHL1    C2 2341   3.408   5.220   6.970 -0.1183  0.8108  1.1068
   32CHL1   H2A 2342   3.321   5.279   6.933  1.7648  1.7393 -2.3258
   32CHL1   H2B 2343   3.369   5.119   6.995 -1.3225  0.4842 -1.7705
   32CHL1   C20 2344   3.922   5.458   7.705  0.2433 -1.1028  0.0292
   32CHL1   H20 2345   3.906   5.369   7.770  1.2884  0.9925  3.4453
   32CHL1   C21 2346   3.789   5.540   7.740  0.9254 -0.4337 -1.1925
   32CHL1  H21A 2347   3.781   5.552   7.850 -0.7029 -0.7029 -1.2563
   32CHL1  H21B 2348   3.706   5.477   7.701  0.5736  0.4757 -1.9633
   32CHL1  H21C 2349   3.805   5.642   7.699 -2.4795  2.1341  3.0691
   32CHL1   C22 2350   4.046   5.534   7.741 -0.9368  0.7163 -0.4677
   32CHL1  H22A 2351   4.142   5.479   7.729 -1.2841  0.4771 -2.4177
   32CHL1  H22B 2352   4.062   5.626   7.681  1.2475 -0.2166 -1.4139
   32CHL1   C23 2353   4.029   5.583   7.884 -0.1578  0.2594  0.2276
   32CHL1  H23A 2354   3.959   5.670   7.887  0.6166  1.0584 -2.3446
   32CHL1  H23B 2355   3.978   5.503   7.941 -0.2084 -0.7520 -1.2086
   32CHL1   C24 2356   4.166   5.613   7.944 -0.4150  0.2569 -0.9372
   32CHL1  H24A 2357   4.228   5.525   7.974  1.7019  1.9801 -0.0295
   32CHL1  H24B 2358   4.219   5.682   7.875 -0.1490 -0.3987 -1.4077
   32CHL1   C25 2359   4.147   5.683   8.081 -0.1105 -0.1937 -0.9277
   32CHL1   H25 2360   4.125   5.790   8.059 -0.4932  0.3794  1.8126
   32CHL1   C26 2361   4.038   5.622   8.176 -0.1143 -0.2770  0.6274
   32CHL1  H26A 2362   4.056   5.667   8.276 -0.2276 -2.0153  1.4581
   32CHL1  H26B 2363   3.936   5.644   8.138  0.5896  1.1170 -0.5833
   32CHL1  H26C 2364   4.052   5.512   8.169  0.9887 -0.0679 -1.4829
   32CHL1   C27 2365   4.278   5.689   8.153  0.1810 -0.1029  1.0612
   32CHL1  H27A 2366   4.358   5.742   8.096 -0.9225 -0.0009 -0.4568
   32CHL1  H27B 2367   4.262   5.759   8.237 -1.7709  1.8931 -0.8252
   32CHL1  H27C 2368   4.317   5.591   8.188  0.3249 -1.1192 -1.6813
   33CHL1    C3 2369   3.126   0.396   6.817 -0.3150 -0.1373  0.7250
   33CHL1    H3 2370   3.226   0.349   6.833 -0.7871 -1.3566  0.2549
   33CHL1    O3 2371   3.125   0.421   6.679 -0.1750  0.1680 -0.0808
   33CHL1   H3' 2372   3.036   0.451   6.657 -0.9215 -2.0953 -0.4165
   33CHL1    C4 2373   3.010   0.300   6.845 -0.1114  0.2898 -0.1930
   33CHL1   H4A 2374   2.915   0.352   6.820  0.0391  1.4719  1.5268
   33CHL1   H4B 2375   3.023   0.215   6.774 -2.3055 -0.8951  0.7415
   33CHL1    C5 2376   3.009   0.268   6.993 -0.0379  0.3312 -0.4833
   33CHL1    C6 2377   3.004   0.139   7.027 -0.5185 -0.1840 -0.5103
   33CHL1    H6 2378   3.010   0.061   6.949  1.5266 -0.8117  0.2038
   33CHL1    C7 2379   2.995   0.093   7.174 -0.5153  0.3500  0.4991
   33CHL1   H7A 2380   2.911   0.022   7.186  0.1035 -0.3178  0.9603
   33CHL1   H7B 2381   3.088   0.042   7.208  0.1891  1.6162  0.5470
   33CHL1    C8 2382   2.978   0.213   7.277  0.0628  0.4016 -0.3372
   33CHL1    H8 2383   2.870   0.237   7.285  0.0947  1.2211 -1.9749
   33CHL1   C14 2384   3.012   0.175   7.423  0.1480 -0.1617 -0.2281
   33CHL1   H14 2385   3.121   0.153   7.415 -0.0062 -0.9899 -0.2001
   33CHL1   C15 2386   2.945   0.053   7.491 -0.1982  0.3718 -0.0995
   33CHL1  H15A 2387   2.834   0.063   7.488 -0.4206 -1.4212  0.4848
   33CHL1  H15B 2388   2.977  -0.047   7.453  2.1490  1.6781 -1.8342
   33CHL1   C16 2389   2.979   0.069   7.637  0.0240  0.0096  0.5238
   33CHL1  H16A 2390   2.888   0.044   7.695 -0.3757 -2.4876 -0.9913
   33CHL1  H16B 2391   3.057  -0.009   7.653  1.2784  0.8733 -0.9984
   33CHL1   C17 2392   3.035   0.219   7.650 -0.1996  0.0645  0.1042
   33CHL1   H17 2393   3.145   0.208   7.651 -0.0449  1.3227  2.0740
   33CHL1   C13 2394   2.997   0.291   7.523 -0.6606  0.2760  0.0680
   33CHL1   C18 2395   2.853   0.336   7.537 -0.5240  0.1456  0.5534
   33CHL1  H18A 2396   2.785   0.250   7.556 -2.5274  1.3914 -0.5566
   33CHL1  H18B 2397   2.837   0.408   7.620 -2.5273  1.1235 -0.5856
   33CHL1  H18C 2398   2.817   0.381   7.442  0.1535  0.2137  0.3232
   33CHL1   C12 2399   3.090   0.405   7.485  0.2930  0.1835 -0.2083
   33CHL1  H12A 2400   3.093   0.491   7.555 -1.8054 -1.1032  1.6206
   33CHL1  H12B 2401   3.189   0.357   7.476  0.1227 -0.7110  2.1183
   33CHL1   C11 2402   3.044   0.446   7.343  0.1612 -1.0047  0.1447
   33CHL1  H11A 2403   2.946   0.499   7.349 -0.3303 -1.6683 -1.4306
   33CHL1  H11B 2404   3.121   0.522   7.319  2.0873 -3.1683 -0.8863
   33CHL1    C9 2405   3.049   0.340   7.232 -1.3848  0.3557 -0.5224
   33CHL1    H9 2406   3.156   0.310   7.233 -1.9362 -1.7458  0.8402
   33CHL1   C10 2407   3.019   0.390   7.091  0.6912 -0.6180 -0.5972
   33CHL1   C19 2408   2.882   0.456   7.088 -0.3862 -0.2709 -0.2854
   33CHL1  H19A 2409   2.799   0.395   7.132 -0.9717 -0.7311 -1.9622
   33CHL1  H19B 2410   2.890   0.550   7.147 -0.9092  0.2672 -1.0453
   33CHL1  H19C 2411   2.857   0.484   6.983 -0.3738  0.5293 -0.0849
   33CHL1    C1 2412   3.124   0.486   7.040  0.6917 -0.0272 -0.0397
   33CHL1   H1A 2413   3.119   0.575   7.106  0.3055  0.8468 -1.2126
   33CHL1   H1B 2414   3.223   0.444   7.068  0.6110  1.0646  2.1619
   33CHL1    C2 2415   3.114   0.526   6.894 -0.1461  0.1296 -0.2379
   33CHL1   H2A 2416   3.199   0.595   6.873 -0.0065  0.9181  2.5387
   33CHL1   H2B 2417   3.015   0.574   6.880  0.0949  0.5261 -0.6230
   33CHL1   C20 2418   3.012   0.266   7.793 -0.6159  0.4946  0.7721
   33CHL1   H20 2419   2.904   0.252   7.817 -0.8924  1.3176  0.0473
   33CHL1   C21 2420   3.056   0.405   7.809  0.4046  0.3420  0.1851
   33CHL1  H21A 2421   3.147   0.415   7.747  0.1033  0.8072 -0.1891
   33CHL1  H21B 2422   3.074   0.422   7.918  0.2790 -0.3434  0.3171
   33CHL1  H21C 2423   2.974   0.477   7.788  0.6639  0.1896 -1.4351
   33CHL1   C22 2424   3.093   0.173   7.895  0.3904  0.1000 -0.5117
   33CHL1  H22A 2425   3.060   0.069   7.872  2.3279 -0.3817 -1.2937
   33CHL1  H22B 2426   3.202   0.189   7.884  0.2265  1.7123 -0.0476
   33CHL1   C23 2427   3.048   0.191   8.038  0.3156  0.7236  0.0262
   33CHL1  H23A 2428   3.050   0.296   8.077  0.0851  1.5223 -1.9824
   33CHL1  H23B 2429   2.940   0.167   8.052  0.6384 -1.1792 -0.5129
   33CHL1   C24 2430   3.130   0.105   8.137 -0.0961 -0.0897  0.2893
   33CHL1  H24A 2431   3.082   0.005   8.147 -1.2967  0.6155  2.0313
   33CHL1  H24B 2432   3.231   0.076   8.100 -0.3539  0.4297 -0.8419
   33CHL1   C25 2433   3.144   0.170   8.277  0.8861 -0.2527  0.2611
   33CHL1   H25 2434   3.188   0.270   8.254  0.1086 -0.2464 -1.3610
   33CHL1   C26 2435   3.006   0.194   8.343  0.5288  0.0438  0.0641
   33CHL1  H26A 2436   2.953   0.100   8.372  1.2530  0.0828  1.6608
   33CHL1  H26B 2437   3.021   0.246   8.440  0.0367 -0.9145  0.6797
   33CHL1  H26C 2438   2.940   0.260   8.283 -0.1460  1.3550  2.1350
   33CHL1   C27 2439   3.240   0.094   8.363 -0.7352 -0.1143 -0.2345
   33CHL1  H27A 2440   3.338   0.090   8.311  0.1813 -0.5906  1.4532
   33CHL1  H27B 2441   3.268   0.146   8.457  1.2812 -0.4196 -0.6162
   33CHL1  H27C 2442   3.209  -0.011   8.382  3.4837 -1.7953 -1.6274
   34CHL1    C3 2443   2.387   3.823   6.978  0.2775 -0.3129  0.4905
   34CHL1    H3 2444   2.433   3.920   7.005  0.4741 -0.3057  0.1327
   34CHL1    O3 2445   2.357   3.837   6.840 -0.1016 -0.4071 -0.6237
   34CHL1   H3' 2446   2.295   3.907   6.821 -0.6063 -1.2300 -2.1514
   34CHL1    C4 2447   2.494   3.707   7.003 -0.6117 -0.9868 -0.5640
   34CHL1   H4A 2448   2.451   3.616   6.956 -2.0431 -0.4527 -0.3743
   34CHL1   H4B 2449   2.576   3.730   6.932 -1.0327  0.9051 -0.5039
   34CHL1    C5 2450   2.529   3.702   7.153  0.3287 -0.3521  0.5551
   34CHL1    C6 2451   2.661   3.731   7.193  0.8611  0.5200 -0.3483
   34CHL1    H6 2452   2.740   3.741   7.117  0.7757 -2.8332 -1.0539
   34CHL1    C7 2453   2.696   3.717   7.340  0.7297 -0.2225 -0.5561
   34CHL1   H7A 2454   2.793   3.664   7.355  0.2972 -0.8774 -0.0380
   34CHL1   H7B 2455   2.698   3.816   7.390 -3.1130 -1.0502  1.5900
   34CHL1    C8 2456   2.600   3.627   7.422 -0.7859  0.2432  0.0496
   34CHL1    H8 2457   2.611   3.524   7.383 -0.7039  0.3209 -0.1312
   34CHL1   C14 2458   2.631   3.638   7.571  0.2276 -0.0396 -0.9927
   34CHL1   H14 2459   2.626   3.746   7.597 -0.5661 -0.3979  0.4656
   34CHL1   C15 2460   2.771   3.601   7.630  0.5772  0.1026  0.7928
   34CHL1  H15A 2461   2.793   3.501   7.589  2.4139  0.3996  0.9702
   34CHL1  H15B 2462   2.853   3.672   7.605  0.1084  1.7336  3.5349
   34CHL1   C16 2463   2.757   3.599   7.781 -0.0714 -0.8413 -0.0315
   34CHL1  H16A 2464   2.804   3.504   7.815 -0.3171 -0.4957  1.3272
   34CHL1  H16B 2465   2.810   3.683   7.831 -2.5091  1.8065 -1.6137
   34CHL1   C17 2466   2.603   3.601   7.804  0.5590  0.5026  0.1918
   34CHL1   H17 2467   2.574   3.709   7.804  0.6607  0.5330  0.6933
   34CHL1   C13 2468   2.541   3.563   7.667 -0.0774 -0.3745 -0.1420
   34CHL1   C18 2469   2.555   3.404   7.648 -0.2744  0.6907  0.3539
   34CHL1  H18A 2470   2.534   3.378   7.542 -2.7649  1.6992  0.5436
   34CHL1  H18B 2471   2.655   3.368   7.681 -1.2072 -2.3636  0.2338
   34CHL1  H18C 2472   2.492   3.336   7.709  0.1553  0.4491  0.5341
   34CHL1   C12 2473   2.398   3.624   7.641 -0.2064  0.0258  0.0892
   34CHL1  H12A 2474   2.330   3.569   7.709  0.7607  1.2591  2.1394
   34CHL1  H12B 2475   2.399   3.727   7.681 -2.5254 -1.5676  5.0223
   34CHL1   C11 2476   2.353   3.611   7.499  0.1895 -1.1915 -0.2176
   34CHL1  H11A 2477   2.341   3.504   7.474 -0.5492 -1.3158  0.6065
   34CHL1  H11B 2478   2.261   3.674   7.494  0.6130 -0.4114  1.0369
   34CHL1    C9 2479   2.455   3.675   7.396 -0.6949  0.7736 -0.3896
   34CHL1    H9 2480   2.467   3.780   7.431 -0.5875  0.1439  1.6369
   34CHL1   C10 2481   2.412   3.675   7.236  0.2972  0.1166 -0.5451
   34CHL1   C19 2482   2.373   3.525   7.199 -0.0121 -0.1980  0.4812
   34CHL1  H19A 2483   2.462   3.459   7.204  0.1798 -0.1044 -1.1075
   34CHL1  H19B 2484   2.283   3.498   7.259 -1.4946  1.0975 -1.0478
   34CHL1  H19C 2485   2.334   3.514   7.096 -2.2142  0.4902  1.1850
   34CHL1    C1 2486   2.296   3.781   7.211 -0.8495 -0.6955  0.5808
   34CHL1   H1A 2487   2.203   3.750   7.264 -0.5440 -2.3260  0.2148
   34CHL1   H1B 2488   2.337   3.877   7.250  0.3858 -1.2446  0.6697
   34CHL1    C2 2489   2.266   3.799   7.059  0.4507 -0.1159  0.3022
   34CHL1   H2A 2490   2.185   3.875   7.056  1.4356  1.1165  2.4263
   34CHL1   H2B 2491   2.218   3.705   7.026 -1.8406  0.4717  1.7319
   34CHL1   C20 2492   2.552   3.524   7.930 -0.8400  0.7788 -1.3080
   34CHL1   H20 2493   2.461   3.465   7.909  0.1555 -2.3280  2.0162
   34CHL1   C21 2494   2.511   3.635   8.031  0.0533  0.4269  0.6757
   34CHL1  H21A 2495   2.431   3.699   7.987 -0.6824 -0.7130  0.3275
   34CHL1  H21B 2496   2.608   3.686   8.051  0.9923 -0.0261 -2.2393
   34CHL1  H21C 2497   2.473   3.587   8.124  1.5414 -0.5465  0.8213
   34CHL1   C22 2498   2.659   3.424   7.996 -0.1604 -0.1893  0.1527
   34CHL1  H22A 2499   2.688   3.354   7.916 -1.9657 -1.7138  0.7797
   34CHL1  H22B 2500   2.738   3.497   8.026 -1.0865  0.8048  0.2706
   34CHL1   C23 2501   2.606   3.339   8.109  0.1170 -0.2985  0.4361
   34CHL1  H23A 2502   2.590   3.402   8.199 -1.6153  0.3542 -0.2835
   34CHL1  H23B 2503   2.506   3.294   8.089 -0.0629  0.1999  0.1850
   34CHL1   C24 2504   2.700   3.220   8.144  0.0618  0.1169 -0.3632
   34CHL1  H24A 2505   2.649   3.124   8.116  1.5462 -1.0700  0.8421
   34CHL1  H24B 2506   2.779   3.230   8.067 -1.0146  1.2818 -1.3569
   34CHL1   C25 2507   2.757   3.207   8.289  0.0546 -0.7890  0.2519
   34CHL1   H25 2508   2.808   3.303   8.314  0.4257 -0.9078 -0.0348
   34CHL1   C26 2509   2.641   3.169   8.388 -0.0910 -0.8624 -0.0485
   34CHL1  H26A 2510   2.622   3.059   8.385  1.7825 -1.2142 -0.5965
   34CHL1  H26B 2511   2.680   3.189   8.490  0.2573 -1.6149 -0.0281
   34CHL1  H26C 2512   2.539   3.209   8.373 -1.2908 -3.2968  1.0149
   34CHL1   C27 2513   2.866   3.106   8.299  0.0871  0.6025 -0.0204
   34CHL1  H27A 2514   2.915   3.100   8.398  0.7048  0.4735 -0.3308
   34CHL1  H27B 2515   2.822   3.006   8.278  3.7303 -1.5996  1.8838
   34CHL1  H27C 2516   2.948   3.115   8.224  1.4976 -1.0416  1.2407
   35CHL1    C3 2517   6.483   6.007   7.116 -0.0370  0.1215  0.3629
   35CHL1    H3 2518   6.430   6.094   7.159 -1.8762 -1.4660  1.4808
   35CHL1    O3 2519   6.490   6.022   6.981 -0.1773  0.6065 -0.1987
   35CHL1   H3' 2520   6.408   5.991   6.942  0.1053  1.4571 -1.5362
   35CHL1    C4 2521   6.622   5.998   7.169 -0.1585 -0.0782 -0.1756
   35CHL1   H4A 2522   6.677   5.904   7.146  0.0736 -0.6414  2.3491
   35CHL1   H4B 2523   6.690   6.080   7.139  0.1742  0.3736  1.7251
   35CHL1    C5 2524   6.610   5.997   7.321  0.2822 -0.0236 -0.2452
   35CHL1    C6 2525   6.662   6.100   7.396 -0.1257  0.2758  0.1755
   35CHL1    H6 2526   6.733   6.167   7.345 -0.5479 -1.1456 -2.4448
   35CHL1    C7 2527   6.651   6.105   7.541  0.1513  0.6666  0.2470
   35CHL1   H7A 2528   6.737   6.159   7.587  0.9258  0.7950 -1.2996
   35CHL1   H7B 2529   6.565   6.174   7.560 -0.6412 -0.2369 -0.0028
   35CHL1    C8 2530   6.609   5.969   7.610  0.2556  0.3678  0.2854
   35CHL1    H8 2531   6.693   5.897   7.606 -1.1257 -1.3413  0.5198
   35CHL1   C14 2532   6.565   6.004   7.751  0.5538  0.5328  0.1859
   35CHL1   H14 2533   6.487   6.082   7.741  1.0058  1.2268  1.7721
   35CHL1   C15 2534   6.661   6.073   7.840 -0.5612 -0.1488 -0.1339
   35CHL1  H15A 2535   6.758   6.022   7.821 -1.8731 -2.2020 -1.7488
   35CHL1  H15B 2536   6.661   6.179   7.806  1.8690 -0.1877 -0.4622
   35CHL1   C16 2537   6.602   6.059   7.985  0.1565 -0.2912  0.4668
   35CHL1  H16A 2538   6.681   6.019   8.052  1.4634  3.1878  1.2063
   35CHL1  H16B 2539   6.570   6.154   8.033 -1.9590 -0.3547 -0.7138
   35CHL1   C17 2540   6.478   5.968   7.968  0.5384  0.1639  0.7024
   35CHL1   H17 2541   6.394   6.039   7.954  0.5731  0.2933  1.1408
   35CHL1   C13 2542   6.505   5.892   7.838  0.2942  0.4552  0.0785
   35CHL1   C18 2543   6.604   5.774   7.868  0.1353  0.3533 -0.0743
   35CHL1  H18A 2544   6.548   5.689   7.912 -0.6355  0.6088 -0.5376
   35CHL1  H18B 2545   6.644   5.741   7.769  0.8460 -1.7327  0.8602
   35CHL1  H18C 2546   6.688   5.809   7.932 -1.4883  1.8706  1.3070
   35CHL1   C12 2547   6.386   5.825   7.756 -0.0739 -0.2831  0.4253
   35CHL1  H12A 2548   6.359   5.728   7.803  0.3248 -0.5898  0.0322
   35CHL1  H12B 2549   6.293   5.884   7.742  0.9501  1.0447 -1.2031
   35CHL1   C11 2550   6.435   5.788   7.612 -0.1027 -0.5234 -0.1007
   35CHL1  H11A 2551   6.510   5.706   7.607  1.1059  0.6004 -1.0899
   35CHL1  H11B 2552   6.348   5.746   7.558 -0.6972  1.7155 -0.9851
   35CHL1    C9 2553   6.491   5.910   7.534 -0.3964  0.8116  0.0023
   35CHL1    H9 2554   6.412   5.987   7.544  0.6659  1.9627 -0.1135
   35CHL1   C10 2555   6.522   5.888   7.382  1.1430  0.4265 -0.1469
   35CHL1   C19 2556   6.587   5.750   7.370  0.2089  0.9261  0.0777
   35CHL1  H19A 2557   6.619   5.727   7.266  2.6652  0.8932  0.7826
   35CHL1  H19B 2558   6.672   5.731   7.439  1.1969  1.8267 -0.8682
   35CHL1  H19C 2559   6.511   5.671   7.390  0.8621  0.9281  3.0221
   35CHL1    C1 2560   6.384   5.879   7.308 -0.6948 -0.0850  0.1846
   35CHL1   H1A 2561   6.310   5.800   7.333 -1.4182  0.2542 -0.8291
   35CHL1   H1B 2562   6.329   5.973   7.334 -1.5626 -0.3866 -0.5259
   35CHL1    C2 2563   6.395   5.886   7.151 -0.0796  0.0660  0.0278
   35CHL1   H2A 2564   6.300   5.910   7.100  1.1035  1.4379 -1.6285
   35CHL1   H2B 2565   6.441   5.790   7.117 -0.8097 -0.7100  1.1745
   35CHL1   C20 2566   6.440   5.886   8.096 -0.0118  0.0596  0.0946
   35CHL1   H20 2567   6.535   5.831   8.114  0.7848  1.1150 -0.7457
   35CHL1   C21 2568   6.329   5.787   8.085  0.4317  1.1477 -0.3710
   35CHL1  H21A 2569   6.239   5.845   8.053 -0.4538  0.2457  0.4187
   35CHL1  H21B 2570   6.312   5.736   8.182  0.1351 -0.7663 -1.3849
   35CHL1  H21C 2571   6.360   5.707   8.015 -0.5789 -0.3891  0.8717
   35CHL1   C22 2572   6.423   5.979   8.222  0.2093 -0.3750  0.3577
   35CHL1  H22A 2573   6.427   5.914   8.311 -1.6196 -0.7341  0.2091
   35CHL1  H22B 2574   6.511   6.045   8.240  0.4157 -0.5951  0.1545
   35CHL1   C23 2575   6.301   6.072   8.222  0.4070  1.0149  0.1683
   35CHL1  H23A 2576   6.328   6.132   8.132  0.7353 -0.4824 -0.7762
   35CHL1  H23B 2577   6.204   6.022   8.200  1.4384 -0.6121 -0.9890
   35CHL1   C24 2578   6.290   6.152   8.355  0.3405  0.5228 -0.9730
   35CHL1  H24A 2579   6.374   6.224   8.358 -0.8807  2.1576 -3.2464
   35CHL1  H24B 2580   6.200   6.217   8.351 -0.1402  0.1897  2.1843
   35CHL1   C25 2581   6.279   6.073   8.490 -0.2968 -0.6217  0.6068
   35CHL1   H25 2582   6.364   6.002   8.495 -1.8836 -2.6565  0.0488
   35CHL1   C26 2583   6.291   6.156   8.615 -0.0714  0.4260  0.3751
   35CHL1  H26A 2584   6.382   6.219   8.621 -0.3096  0.9069 -0.7308
   35CHL1  H26B 2585   6.200   6.219   8.627 -0.9723 -0.7905  0.1104
   35CHL1  H26C 2586   6.290   6.086   8.701 -2.3369 -0.9081 -0.6403
   35CHL1   C27 2587   6.145   5.998   8.491  0.1890 -0.9683  0.0567
   35CHL1  H27A 2588   6.064   6.068   8.465 -1.3537 -2.7986 -0.2737
   35CHL1  H27B 2589   6.123   5.957   8.592 -2.4992  0.1618 -0.0021
   35CHL1  H27C 2590   6.138   5.918   8.414  0.9218 -1.1894  0.2042
   36CHL1    C3 2591   0.985   4.994   6.907  0.2361  0.3838 -0.3623
   36CHL1    H3 2592   0.933   4.897   6.926  0.1990 -0.1062 -2.6109
   36CHL1    O3 2593   0.942   5.037   6.779  0.2793 -0.0942 -0.0882
   36CHL1   H3' 2594   0.993   5.118   6.775  1.0051 -0.4679  0.9925
   36CHL1    C4 2595   0.947   5.100   7.006  0.0776  0.0149  0.3753
   36CHL1   H4A 2596   1.001   5.196   6.985  0.0506  0.0445  0.4401
   36CHL1   H4B 2597   0.838   5.120   7.009  0.1803  0.8076 -0.6450
   36CHL1    C5 2598   0.990   5.051   7.145  1.0395 -1.3214 -0.1673
   36CHL1    C6 2599   0.896   5.038   7.239 -0.3376  1.5997 -0.0164
   36CHL1    H6 2600   0.793   5.070   7.221 -0.8226  0.7091  1.0529
   36CHL1    C7 2601   0.912   4.995   7.381 -0.5588  0.9389  0.5880
   36CHL1   H7A 2602   0.872   5.064   7.458  0.9178  1.2834  1.0638
   36CHL1   H7B 2603   0.875   4.892   7.401  2.8620  0.0966  3.7026
   36CHL1    C8 2604   1.062   4.985   7.412 -0.3664 -0.2916  0.0892
   36CHL1    H8 2605   1.098   5.086   7.438 -1.5078  0.0383  0.4625
   36CHL1   C14 2606   1.079   4.893   7.534 -0.3506 -1.1104  0.0934
   36CHL1   H14 2607   1.038   4.796   7.499  1.2947 -0.8852 -2.7328
   36CHL1   C15 2608   0.995   4.932   7.659  0.2267  0.3588 -0.1936
   36CHL1  H15A 2609   0.987   5.040   7.686 -3.0866 -0.1180  1.1229
   36CHL1  H15B 2610   0.893   4.895   7.639  0.2118  0.7333 -0.8508
   36CHL1   C16 2611   1.060   4.850   7.770 -0.3527 -0.6456 -0.8838
   36CHL1  H16A 2612   1.078   4.923   7.851 -1.5533 -2.0093  0.6967
   36CHL1  H16B 2613   0.986   4.783   7.819  0.6549  0.1955  1.9954
   36CHL1   C17 2614   1.181   4.780   7.708 -0.1037  0.6804 -0.3484
   36CHL1   H17 2615   1.141   4.683   7.672  0.5705  0.0088  0.6330
   36CHL1   C13 2616   1.218   4.865   7.587 -0.8847 -0.0092 -0.3858
   36CHL1   C18 2617   1.280   4.996   7.638 -0.2217 -0.4795 -0.6798
   36CHL1  H18A 2618   1.283   5.075   7.560  0.1814  0.2186  0.0253
   36CHL1  H18B 2619   1.231   5.046   7.725  2.1445  0.6571  0.1093
   36CHL1  H18C 2620   1.382   4.976   7.678 -2.1318 -3.6538  3.3624
   36CHL1   C12 2621   1.287   4.794   7.469 -0.3036  0.0338 -0.0362
   36CHL1  H12A 2622   1.393   4.775   7.497 -0.2410 -0.9979 -0.9332
   36CHL1  H12B 2623   1.236   4.696   7.453  0.8024 -0.7804  1.2523
   36CHL1   C11 2624   1.276   4.883   7.344 -0.5806 -0.0395  0.3135
   36CHL1  H11A 2625   1.339   4.968   7.376  0.1360 -0.7744  0.8988
   36CHL1  H11B 2626   1.327   4.836   7.257  0.9428  1.1517  0.5120
   36CHL1    C9 2627   1.140   4.926   7.297  0.0602  0.4251  0.0832
   36CHL1    H9 2628   1.094   4.827   7.274  1.6524 -0.9871  2.5494
   36CHL1   C10 2629   1.137   5.002   7.162 -0.0982  0.2040 -0.4579
   36CHL1   C19 2630   1.229   5.123   7.176 -0.3591 -0.3921  0.8240
   36CHL1  H19A 2631   1.195   5.199   7.249 -3.5808  1.6945 -2.4903
   36CHL1  H19B 2632   1.330   5.087   7.205  0.3253  2.1369  1.8747
   36CHL1  H19C 2633   1.243   5.180   7.081 -0.2683  2.7984  2.6148
   36CHL1    C1 2634   1.188   4.916   7.044 -0.8213 -0.0748  0.0714
   36CHL1   H1A 2635   1.296   4.892   7.037 -0.6872  0.8601 -1.6043
   36CHL1   H1B 2636   1.129   4.822   7.048  1.6780 -1.7570 -0.2515
   36CHL1    C2 2637   1.138   4.976   6.911  0.3796  0.3641 -0.1530
   36CHL1   H2A 2638   1.177   4.910   6.830 -0.3500 -1.0398  0.5894
   36CHL1   H2B 2639   1.189   5.074   6.899 -0.7310  1.0126  0.2954
   36CHL1   C20 2640   1.293   4.750   7.816 -0.7604 -0.8295  0.4119
   36CHL1   H20 2641   1.346   4.846   7.836 -0.4731 -0.7879 -0.4982
   36CHL1   C21 2642   1.400   4.654   7.761 -0.4333  0.8627  0.2199
   36CHL1  H21A 2643   1.357   4.569   7.703 -1.5182  0.8265  1.0511
   36CHL1  H21B 2644   1.463   4.612   7.842  0.6933  0.6120 -0.7508
   36CHL1  H21C 2645   1.460   4.706   7.683  0.2710 -0.3575 -0.0890
   36CHL1   C22 2646   1.239   4.699   7.951  0.4196  0.0324  0.1839
   36CHL1  H22A 2647   1.142   4.748   7.973  0.2629 -0.5020  0.6975
   36CHL1  H22B 2648   1.215   4.591   7.954 -0.1878  0.1904  1.3235
   36CHL1   C23 2649   1.332   4.732   8.065 -0.1862  0.2831 -0.4486
   36CHL1  H23A 2650   1.428   4.676   8.056 -0.2602 -0.0644  0.6651
   36CHL1  H23B 2651   1.361   4.838   8.055 -3.2401  1.2453 -0.0393
   36CHL1   C24 2652   1.276   4.734   8.213  0.3447 -0.2820  0.1434
   36CHL1  H24A 2653   1.356   4.766   8.283 -0.1001  0.2693  0.4039
   36CHL1  H24B 2654   1.187   4.799   8.223 -0.0986 -1.1792  2.8149
   36CHL1   C25 2655   1.219   4.595   8.268  0.2821  0.0728 -0.2973
   36CHL1   H25 2656   1.146   4.559   8.193 -0.6370  1.8483 -0.3092
   36CHL1   C26 2657   1.336   4.495   8.264  0.4859  0.3533  0.2464
   36CHL1  H26A 2658   1.322   4.414   8.339  0.5299 -2.3343 -2.4451
   36CHL1  H26B 2659   1.342   4.449   8.163 -0.3799 -1.4917  0.9982
   36CHL1  H26C 2660   1.434   4.541   8.285  0.7090  0.0765 -0.1614
   36CHL1   C27 2661   1.138   4.606   8.403  0.8141  0.6171  0.1853
   36CHL1  H27A 2662   1.215   4.624   8.481  0.6026 -1.0158  0.8084
   36CHL1  H27B 2663   1.066   4.690   8.393  2.9348  2.2500 -3.2622
   36CHL1  H27C 2664   1.087   4.509   8.419  1.9311 -0.2799 -1.3729
   37CHL1    C3 2665   4.433   2.624   6.716 -0.7927  0.4175  0.3501
   37CHL1    H3 2666   4.405   2.731   6.729  0.5565  0.7559  0.5760
   37CHL1    O3 2667   4.434   2.614   6.573 -0.0518  0.5997 -0.1641
   37CHL1   H3' 2668   4.470   2.530   6.544 -1.4715  0.2959 -1.1824
   37CHL1    C4 2669   4.579   2.602   6.766  0.8493 -0.2107 -0.6796
   37CHL1   H4A 2670   4.607   2.497   6.741 -0.8402 -1.0494  0.6877
   37CHL1   H4B 2671   4.642   2.675   6.710  0.4003  1.8168  1.3161
   37CHL1    C5 2672   4.568   2.630   6.917 -0.0723  0.1529  0.2099
   37CHL1    C6 2673   4.645   2.723   6.968  0.9302 -0.2286 -0.4722
   37CHL1    H6 2674   4.719   2.771   6.901  0.1055  0.0434 -1.2084
   37CHL1    C7 2675   4.660   2.741   7.116 -0.0490  0.4910 -0.7688
   37CHL1   H7A 2676   4.768   2.745   7.142 -0.1908  1.2354 -0.2638
   37CHL1   H7B 2677   4.609   2.834   7.148 -2.8050 -1.0794 -0.2819
   37CHL1    C8 2678   4.594   2.623   7.196 -0.4693  0.0257 -0.1643
   37CHL1    H8 2679   4.660   2.535   7.181  1.2518  1.4640 -1.4506
   37CHL1   C14 2680   4.584   2.666   7.342  0.5219 -1.2083  0.4447
   37CHL1   H14 2681   4.526   2.760   7.349  2.2854  0.0259 -0.7848
   37CHL1   C15 2682   4.715   2.701   7.410 -0.1817 -0.6552  0.1655
   37CHL1  H15A 2683   4.788   2.617   7.404  0.5130 -0.0564  0.0801
   37CHL1  H15B 2684   4.762   2.790   7.364  1.4033 -0.8738  1.3007
   37CHL1   C16 2685   4.673   2.710   7.557 -0.5045  1.0638 -0.5417
   37CHL1  H16A 2686   4.748   2.667   7.627 -2.0001 -2.2500 -0.7565
   37CHL1  H16B 2687   4.662   2.815   7.589  2.9161  0.2505  4.4769
   37CHL1   C17 2688   4.532   2.641   7.569 -0.3640  0.1837 -0.0729
   37CHL1   H17 2689   4.460   2.725   7.563 -0.8144 -0.0678  1.4021
   37CHL1   C13 2690   4.514   2.566   7.434  0.6204 -1.0401 -0.1814
   37CHL1   C18 2691   4.595   2.438   7.434 -0.2244 -0.1195 -0.8939
   37CHL1  H18A 2692   4.537   2.376   7.505  1.3012  1.7658  2.2116
   37CHL1  H18B 2693   4.589   2.386   7.336 -1.3219  1.6794 -1.8469
   37CHL1  H18C 2694   4.697   2.446   7.477 -0.1581  0.2882 -1.1172
   37CHL1   C12 2695   4.375   2.537   7.375  0.2011  0.1279 -0.2964
   37CHL1  H12A 2696   4.318   2.455   7.424 -2.4520 -0.1807 -3.5629
   37CHL1  H12B 2697   4.316   2.631   7.384  2.7918  1.6965  1.4630
   37CHL1   C11 2698   4.376   2.492   7.229  0.1121  0.6102 -0.2562
   37CHL1  H11A 2699   4.402   2.384   7.220 -0.6660  0.3813  0.1691
   37CHL1  H11B 2700   4.268   2.492   7.204 -0.3958  0.5053  1.7328
   37CHL1    C9 2701   4.450   2.591   7.144 -0.3394  0.4840  0.7674
   37CHL1    H9 2702   4.401   2.691   7.154 -1.4339 -0.1110  1.4805
   37CHL1   C10 2703   4.458   2.549   6.994 -1.0490  0.2793 -0.2893
   37CHL1   C19 2704   4.506   2.394   6.992  0.7072 -0.5219  0.5433
   37CHL1  H19A 2705   4.532   2.373   6.887 -0.9759  0.7157 -0.1670
   37CHL1  H19B 2706   4.594   2.380   7.058  2.9337  0.4093 -2.0431
   37CHL1  H19C 2707   4.416   2.334   7.017  0.0387 -0.4705 -1.5719
   37CHL1    C1 2708   4.321   2.554   6.922  0.6573 -0.0058 -0.2385
   37CHL1   H1A 2709   4.257   2.478   6.973 -0.4926  1.0378 -0.0907
   37CHL1   H1B 2710   4.278   2.650   6.957  2.0870  0.6860 -0.3185
   37CHL1    C2 2711   4.316   2.539   6.772 -0.1676 -0.1134 -0.0397
   37CHL1   H2A 2712   4.220   2.584   6.740 -0.7132 -1.1856  0.0447
   37CHL1   H2B 2713   4.325   2.432   6.745  2.6440 -0.1010  0.4862
   37CHL1   C20 2714   4.512   2.559   7.704 -0.1734 -1.4156 -0.5419
   37CHL1   H20 2715   4.591   2.481   7.700 -0.0079 -1.3162  0.5737
   37CHL1   C21 2716   4.377   2.492   7.709 -0.3852  0.1247 -0.6294
   37CHL1  H21A 2717   4.312   2.574   7.672  0.2842 -0.2251 -2.7641
   37CHL1  H21B 2718   4.352   2.457   7.811 -2.9441  0.1682 -1.1653
   37CHL1  H21C 2719   4.353   2.399   7.652 -2.4536  0.4740 -0.4128
   37CHL1   C22 2720   4.540   2.655   7.828  0.3957 -0.4335  0.0639
   37CHL1  H22A 2721   4.643   2.696   7.830  0.6144 -0.9886  0.5012
   37CHL1  H22B 2722   4.475   2.743   7.806 -0.3062 -0.8758  0.3422
   37CHL1   C23 2723   4.499   2.604   7.967 -0.2576 -0.0371 -0.0078
   37CHL1  H23A 2724   4.390   2.589   7.960 -0.2993  0.7135 -1.3138
   37CHL1  H23B 2725   4.552   2.507   7.980  1.0382  0.7410  0.7314
   37CHL1   C24 2726   4.539   2.696   8.082  0.3493 -0.1915  0.7194
   37CHL1  H24A 2727   4.649   2.710   8.074  0.5535 -0.3890  2.7080
   37CHL1  H24B 2728   4.489   2.795   8.071  4.7534  2.1813 -0.4612
   37CHL1   C25 2729   4.512   2.651   8.227  0.8753 -0.1181 -0.0039
   37CHL1   H25 2730   4.407   2.616   8.236  1.3243 -1.5573 -0.1179
   37CHL1   C26 2731   4.599   2.524   8.264 -1.0032  0.3099  0.3602
   37CHL1  H26A 2732   4.568   2.437   8.202 -0.4607 -2.0655  3.1648
   37CHL1  H26B 2733   4.706   2.553   8.261 -0.4343 -1.6068  0.7849
   37CHL1  H26C 2734   4.568   2.492   8.366 -1.8789  1.5975  0.5281
   37CHL1   C27 2735   4.546   2.778   8.324  0.0688 -0.1840  0.4162
   37CHL1  H27A 2736   4.656   2.794   8.325  0.2168 -0.6370 -2.0932
   37CHL1  H27B 2737   4.497   2.873   8.293 -0.3594 -0.8618 -1.0594
   37CHL1  H27C 2738   4.506   2.760   8.426 -0.3939  0.0983  0.2871
   38CHL1    C3 2739   0.736   2.379   6.635  0.1970  0.2547 -0.4792
   38CHL1    H3 2740   0.674   2.471   6.642  2.6476  1.8482  1.7803
   38CHL1    O3 2741   0.771   2.350   6.499  0.1279 -0.5950 -0.1151
   38CHL1   H3' 2742   0.697   2.301   6.463 -0.6938 -1.2161  2.2192
   38CHL1    C4 2743   0.868   2.403   6.704 -0.2963  0.0256  0.1770
   38CHL1   H4A 2744   0.928   2.311   6.691  0.2213  0.4150 -0.1890
   38CHL1   H4B 2745   0.921   2.484   6.650 -4.4488  2.8700 -0.1693
   38CHL1    C5 2746   0.847   2.439   6.852  0.3842 -0.0373  0.3204
   38CHL1    C6 2747   0.880   2.560   6.902 -0.0409  0.6515 -0.4284
   38CHL1    H6 2748   0.938   2.633   6.844  1.7966  1.1803  1.9367
   38CHL1    C7 2749   0.859   2.597   7.046 -0.1990  0.2464  0.0701
   38CHL1   H7A 2750   0.943   2.664   7.077  0.0299  1.6769 -3.1650
   38CHL1   H7B 2751   0.758   2.637   7.070 -0.2882  0.1275 -0.1095
   38CHL1    C8 2752   0.854   2.471   7.127 -1.0677  0.5638 -0.5649
   38CHL1    H8 2753   0.954   2.424   7.125 -0.3644  1.9979 -2.6462
   38CHL1   C14 2754   0.832   2.509   7.276  0.1017 -0.4808 -0.4611
   38CHL1   H14 2755   0.733   2.558   7.275 -2.6008 -5.3240 -1.2283
   38CHL1   C15 2756   0.927   2.603   7.348 -0.8565 -0.2057  0.3230
   38CHL1  H15A 2757   1.031   2.576   7.322 -1.4525 -2.2399 -0.0773
   38CHL1  H15B 2758   0.894   2.703   7.311  0.4880  0.3147  0.4682
   38CHL1   C16 2759   0.900   2.585   7.495  0.1770 -0.4803 -0.2783
   38CHL1  H16A 2760   0.991   2.563   7.554 -1.3998 -1.8512  1.8049
   38CHL1  H16B 2761   0.855   2.681   7.528  0.2570  0.5291 -2.9054
   38CHL1   C17 2762   0.796   2.465   7.508 -0.4754 -0.0104  0.1981
   38CHL1   H17 2763   0.694   2.508   7.503 -0.2021  0.7208  0.7563
   38CHL1   C13 2764   0.816   2.390   7.373 -0.9374 -0.5573  0.8500
   38CHL1   C18 2765   0.943   2.312   7.366  0.9382  0.3042  0.6149
   38CHL1  H18A 2766   1.030   2.359   7.416 -0.6858  2.6376  1.4073
   38CHL1  H18B 2767   0.926   2.211   7.409  0.1724 -0.8272 -2.1245
   38CHL1  H18C 2768   0.983   2.286   7.266  0.9415  1.6153  0.2633
   38CHL1   C12 2769   0.699   2.302   7.322  0.6941 -0.2619  0.1490
   38CHL1  H12A 2770   0.686   2.214   7.388  0.5949 -1.1593 -1.0204
   38CHL1  H12B 2771   0.604   2.361   7.323  0.6413 -0.3521  1.3809
   38CHL1   C11 2772   0.718   2.260   7.173 -0.1472 -0.2482  0.2784
   38CHL1  H11A 2773   0.791   2.176   7.183  0.1712  0.1766  1.8635
   38CHL1  H11B 2774   0.619   2.218   7.146 -0.1506 -2.6599  3.4570
   38CHL1    C9 2775   0.751   2.379   7.078 -0.0444 -0.2965  0.1499
   38CHL1    H9 2776   0.662   2.445   7.081  1.6041  2.0599 -0.2346
   38CHL1   C10 2777   0.781   2.327   6.928 -0.2140  0.0159 -0.1059
   38CHL1   C19 2778   0.862   2.205   6.944 -0.3700  0.7018  0.2869
   38CHL1  H19A 2779   0.946   2.219   7.015 -0.5360 -1.1235  0.8932
   38CHL1  H19B 2780   0.807   2.119   6.988 -0.3674 -0.9533 -2.6992
   38CHL1  H19C 2781   0.901   2.167   6.847 -3.5059  1.2888 -1.3309
   38CHL1    C1 2782   0.652   2.279   6.852 -0.5858 -0.4530  0.0701
   38CHL1   H1A 2783   0.620   2.185   6.903 -0.3924 -0.4033  0.2866
   38CHL1   H1B 2784   0.582   2.364   6.870  0.5437  0.8379 -1.4333
   38CHL1    C2 2785   0.672   2.253   6.695 -0.3663 -0.4216  0.6574
   38CHL1   H2A 2786   0.574   2.236   6.645  0.8143 -2.7327 -1.0565
   38CHL1   H2B 2787   0.733   2.161   6.687 -0.6464 -0.6587  1.1984
   38CHL1   C20 2788   0.818   2.390   7.637  0.1649  0.1250 -0.5658
   38CHL1   H20 2789   0.918   2.344   7.631  0.3779  0.4075  0.5367
   38CHL1   C21 2790   0.702   2.288   7.656  0.5432  0.1385  0.6158
   38CHL1  H21A 2791   0.688   2.245   7.758 -3.5308 -2.5530 -0.8298
   38CHL1  H21B 2792   0.711   2.202   7.587  1.8399 -0.7103  1.7827
   38CHL1  H21C 2793   0.605   2.333   7.626  0.4244 -1.6331 -1.9538
   38CHL1   C22 2794   0.815   2.497   7.760 -0.7620 -0.8306 -0.6726
   38CHL1  H22A 2795   0.914   2.547   7.754 -0.7857 -0.2905  2.1102
   38CHL1  H22B 2796   0.736   2.575   7.749  1.2126  1.3938  0.1410
   38CHL1   C23 2797   0.803   2.437   7.900 -0.0632 -0.5152 -0.4110
   38CHL1  H23A 2798   0.701   2.398   7.917 -0.9362  1.7608 -0.0779
   38CHL1  H23B 2799   0.877   2.354   7.899 -0.8423 -1.2644  0.9519
   38CHL1   C24 2800   0.831   2.533   8.021 -0.1583  0.2019 -0.7714
   38CHL1  H24A 2801   0.750   2.607   8.007 -0.4001  0.3134  1.0349
   38CHL1  H24B 2802   0.818   2.480   8.117  2.5076 -1.2365 -1.0913
   38CHL1   C25 2803   0.969   2.602   8.022  0.1848  0.2944 -0.3433
   38CHL1   H25 2804   0.981   2.667   7.933 -5.2515  1.8126 -0.3273
   38CHL1   C26 2805   0.974   2.706   8.139 -0.1785 -0.3353 -0.5223
   38CHL1  H26A 2806   0.956   2.646   8.231  0.0385  0.8659  0.3171
   38CHL1  H26B 2807   1.070   2.761   8.139 -1.4523  1.9899 -0.0854
   38CHL1  H26C 2808   0.904   2.790   8.120  0.1106 -0.2386 -1.1802
   38CHL1   C27 2809   1.099   2.511   8.028  0.3162 -0.4978  0.3719
   38CHL1  H27A 2810   1.179   2.588   8.020 -0.3173  0.2117  0.6862
   38CHL1  H27B 2811   1.109   2.465   8.129 -0.7976  2.4807  1.9757
   38CHL1  H27C 2812   1.116   2.444   7.942  1.5186  0.3220 -0.0538
   39CHL1    C3 2813   1.758   1.953   6.853 -0.5082 -0.5919  0.0631
   39CHL1    H3 2814   1.868   1.955   6.869 -0.5081  0.4413  0.0212
   39CHL1    O3 2815   1.741   1.929   6.715 -0.5308  0.3522  0.5244
   39CHL1   H3' 2816   1.650   1.953   6.696 -0.8176 -1.3725 -0.5534
   39CHL1    C4 2817   1.688   1.849   6.948  0.7696 -0.2819 -0.8744
   39CHL1   H4A 2818   1.580   1.870   6.930  0.8388  1.6251  0.6013
   39CHL1   H4B 2819   1.719   1.746   6.920  2.3043  0.0966 -0.6540
   39CHL1    C5 2820   1.721   1.894   7.091 -0.1128 -0.1283  0.0773
   39CHL1    C6 2821   1.794   1.819   7.172 -0.4987  0.2156  0.0999
   39CHL1    H6 2822   1.832   1.722   7.136  1.3830  0.8205  0.3472
   39CHL1    C7 2823   1.839   1.852   7.313  0.0245  1.1238 -0.4502
   39CHL1   H7A 2824   1.809   1.777   7.389 -1.2319  2.2471  0.1940
   39CHL1   H7B 2825   1.950   1.861   7.319  0.1800 -0.1892 -1.0837
   39CHL1    C8 2826   1.750   1.977   7.365 -0.0493 -0.4447 -0.8912
   39CHL1    H8 2827   1.652   1.946   7.407  0.4561  1.1496  1.6654
   39CHL1   C14 2828   1.813   2.039   7.491  0.0554 -0.1153 -0.2709
   39CHL1   H14 2829   1.909   2.083   7.457  0.3256  0.8035  1.5321
   39CHL1   C15 2830   1.844   1.946   7.612 -0.0326  0.4515  0.0659
   39CHL1  H15A 2831   1.758   1.879   7.629 -0.5405  1.2332  0.6319
   39CHL1  H15B 2832   1.929   1.875   7.600 -0.3222  0.3647 -1.9120
   39CHL1   C16 2833   1.860   2.043   7.728  0.2219 -0.0044 -0.4342
   39CHL1  H16A 2834   1.800   2.005   7.813 -1.2562  0.9833 -1.0131
   39CHL1  H16B 2835   1.967   2.044   7.761 -0.9800  1.3768  4.2030
   39CHL1   C17 2836   1.820   2.183   7.674 -0.0505  0.5462 -0.4326
   39CHL1   H17 2837   1.916   2.223   7.634 -0.0650 -0.2435 -1.2936
   39CHL1   C13 2838   1.743   2.160   7.548  0.9342  0.2744 -0.0386
   39CHL1   C18 2839   1.601   2.122   7.596 -0.2468  0.2654 -0.1487
   39CHL1  H18A 2840   1.606   2.049   7.680  0.1524  2.1373  1.5504
   39CHL1  H18B 2841   1.532   2.207   7.615 -0.8032  0.0244 -1.0530
   39CHL1  H18C 2842   1.550   2.068   7.514 -1.5080  0.9922  0.1390
   39CHL1   C12 2843   1.738   2.272   7.445 -0.1634  0.1288 -0.0784
   39CHL1  H12A 2844   1.670   2.354   7.478 -1.6767 -1.0237 -0.1977
   39CHL1  H12B 2845   1.841   2.312   7.438 -0.0892  0.0938  0.6997
   39CHL1   C11 2846   1.691   2.226   7.302  0.1011 -0.6521  0.0382
   39CHL1  H11A 2847   1.582   2.221   7.323  0.2517  1.2419  1.4733
   39CHL1  H11B 2848   1.708   2.300   7.221  0.9300  0.1865  0.9566
   39CHL1    C9 2849   1.746   2.090   7.258 -1.0558 -0.4143  0.0694
   39CHL1    H9 2850   1.856   2.102   7.246 -0.7229  0.1311  3.0239
   39CHL1   C10 2851   1.688   2.041   7.122  0.5403 -0.0080  0.2651
   39CHL1   C19 2852   1.531   2.041   7.143 -0.0474 -0.8112  0.4055
   39CHL1  H19A 2853   1.499   2.146   7.163  0.8936 -0.9661  3.0600
   39CHL1  H19B 2854   1.472   2.014   7.052 -0.8873 -2.8458  1.4943
   39CHL1  H19C 2855   1.502   1.970   7.223 -3.1941  1.0620  1.1042
   39CHL1    C1 2856   1.731   2.138   7.013  0.9380 -0.8545  0.1179
   39CHL1   H1A 2857   1.677   2.235   7.022  1.8195 -0.3604  0.1678
   39CHL1   H1B 2858   1.841   2.152   7.022  0.7637 -0.2518  1.9086
   39CHL1    C2 2859   1.708   2.094   6.869  0.0351 -0.4640  0.0615
   39CHL1   H2A 2860   1.745   2.174   6.800 -0.9803 -0.0073  0.0346
   39CHL1   H2B 2861   1.597   2.095   6.863  0.0406  0.4970 -0.0027
   39CHL1   C20 2862   1.769   2.276   7.786 -0.1283  0.1848 -0.0515
   39CHL1   H20 2863   1.683   2.331   7.741  0.3565  0.5387 -0.5700
   39CHL1   C21 2864   1.886   2.376   7.817  0.5219 -0.7241  0.1166
   39CHL1  H21A 2865   1.964   2.318   7.871  2.7954  0.6239 -1.5548
   39CHL1  H21B 2866   1.856   2.457   7.886  3.2979  0.8433 -0.3794
   39CHL1  H21C 2867   1.922   2.420   7.722  1.4619 -2.8747 -0.6063
   39CHL1   C22 2868   1.707   2.208   7.920 -0.0472 -0.0139 -0.0456
   39CHL1  H22A 2869   1.616   2.150   7.894  1.0346 -1.6592 -0.2719
   39CHL1  H22B 2870   1.781   2.137   7.961 -0.3255 -1.5121 -1.9808
   39CHL1   C23 2871   1.670   2.314   8.025 -0.3098  0.0804 -0.0946
   39CHL1  H23A 2872   1.767   2.352   8.064 -0.9288  0.6766  0.9109
   39CHL1  H23B 2873   1.617   2.400   7.977 -0.4375 -0.0259 -0.1451
   39CHL1   C24 2874   1.596   2.274   8.152 -0.2079  0.1662 -0.0156
   39CHL1  H24A 2875   1.497   2.229   8.127 -0.7926 -1.8105  4.7966
   39CHL1  H24B 2876   1.656   2.192   8.196  0.9723  0.0566 -1.7307
   39CHL1   C25 2877   1.575   2.388   8.254  0.5322  0.0497  0.1010
   39CHL1   H25 2878   1.667   2.442   8.288  1.2523 -0.4141 -1.0464
   39CHL1   C26 2879   1.489   2.501   8.192  0.0012 -0.2609 -0.3998
   39CHL1  H26A 2880   1.410   2.457   8.128  0.0359 -0.1409 -0.5273
   39CHL1  H26B 2881   1.449   2.575   8.265  0.3132  0.7904 -1.2568
   39CHL1  H26C 2882   1.554   2.569   8.132  0.2210  0.5538  0.7315
   39CHL1   C27 2883   1.503   2.328   8.371 -0.0477 -1.0084 -0.1771
   39CHL1  H27A 2884   1.548   2.233   8.408  2.1410 -0.9298 -2.3637
   39CHL1  H27B 2885   1.505   2.396   8.459  1.7332 -4.1995  2.4895
   39CHL1  H27C 2886   1.397   2.310   8.343 -0.7967  0.0376  1.8213
   40CHL1    C3 2887   3.564   5.694   6.842  0.1081  0.1969  0.3520
   40CHL1    H3 2888   3.493   5.620   6.885  0.6961 -2.0753 -2.3081
   40CHL1    O3 2889   3.564   5.670   6.701  0.5493  0.1044  0.1628
   40CHL1   H3' 2890   3.627   5.730   6.661  1.3433 -1.6041 -1.3006
   40CHL1    C4 2891   3.560   5.849   6.872  0.4862  0.6959 -0.3849
   40CHL1   H4A 2892   3.627   5.889   6.793 -0.9243  1.4915 -1.2381
   40CHL1   H4B 2893   3.458   5.876   6.836  0.9817  1.2572 -1.3992
   40CHL1    C5 2894   3.587   5.886   7.017  0.3059 -0.1908  0.6550
   40CHL1    C6 2895   3.493   5.953   7.080  0.7212 -0.0238  0.1932
   40CHL1    H6 2896   3.407   5.984   7.019  0.2203 -0.7963  0.4924
   40CHL1    C7 2897   3.507   6.007   7.216 -0.5110  0.6800  0.2686
   40CHL1   H7A 2898   3.488   6.116   7.224  3.9293  1.6599  0.3916
   40CHL1   H7B 2899   3.432   5.959   7.282 -1.8268  0.7961 -1.0739
   40CHL1    C8 2900   3.643   5.989   7.278 -0.5844  0.4074 -0.4252
   40CHL1    H8 2901   3.710   6.065   7.232 -1.3248  1.4634  0.1910
   40CHL1   C14 2902   3.639   5.992   7.426  0.0663  0.1498 -0.0728
   40CHL1   H14 2903   3.570   5.912   7.460 -0.5482  1.1338  1.1221
   40CHL1   C15 2904   3.569   6.116   7.480  0.6020  0.3598 -0.0081
   40CHL1  H15A 2905   3.605   6.206   7.427 -1.6007  0.5255 -1.3345
   40CHL1  H15B 2906   3.458   6.112   7.481  0.6181 -0.4033  0.5917
   40CHL1   C16 2907   3.617   6.119   7.635  0.5398  0.0967  1.2033
   40CHL1  H16A 2908   3.665   6.216   7.660  0.2156  1.7796 -3.6849
   40CHL1  H16B 2909   3.530   6.098   7.701 -0.2296  0.8186  0.4534
   40CHL1   C17 2910   3.732   6.011   7.644  0.5561  0.2276 -0.5075
   40CHL1   H17 2911   3.680   5.919   7.679  1.1389  0.6279  1.5654
   40CHL1   C13 2912   3.768   5.984   7.495 -0.0903  0.8465 -0.3955
   40CHL1   C18 2913   3.867   6.091   7.445  0.1454 -0.1217  0.1551
   40CHL1  H18A 2914   3.876   6.096   7.334  0.0646 -1.3170  0.0842
   40CHL1  H18B 2915   3.833   6.189   7.486 -1.0440 -0.3050 -0.3552
   40CHL1  H18C 2916   3.969   6.075   7.486  0.6243  0.4412 -0.7670
   40CHL1   C12 2917   3.829   5.841   7.465 -0.5334 -0.5063 -0.3014
   40CHL1  H12A 2918   3.928   5.834   7.514 -0.5775  1.0409  0.0829
   40CHL1  H12B 2919   3.758   5.773   7.516  0.6332 -0.6681  1.1648
   40CHL1   C11 2920   3.829   5.810   7.318 -0.4952  0.3612  0.3755
   40CHL1  H11A 2921   3.914   5.864   7.270 -0.4148  0.7907  0.9875
   40CHL1  H11B 2922   3.858   5.703   7.310  0.1007  0.6241 -1.6070
   40CHL1    C9 2923   3.702   5.851   7.245 -0.1097 -0.3560 -0.3892
   40CHL1    H9 2924   3.619   5.785   7.279 -1.3849  1.0415 -0.6898
   40CHL1   C10 2925   3.711   5.826   7.089 -0.2936 -0.4291 -0.2626
   40CHL1   C19 2926   3.836   5.886   7.034  0.4805 -0.3462 -0.1792
   40CHL1  H19A 2927   3.920   5.819   7.060 -0.0214 -1.0898 -0.4311
   40CHL1  H19B 2928   3.833   5.896   6.923 -1.0606 -0.9468 -0.2172
   40CHL1  H19C 2929   3.865   5.989   7.065 -2.3330  1.0214 -1.6352
   40CHL1    C1 2930   3.708   5.671   7.050  0.7929  0.0329 -0.4992
   40CHL1   H1A 2931   3.800   5.620   7.085  0.2716 -1.5893 -1.3804
   40CHL1   H1B 2932   3.620   5.625   7.101  0.3697  2.2282  0.8962
   40CHL1    C2 2933   3.697   5.645   6.897  0.8344  0.2555  0.6629
   40CHL1   H2A 2934   3.710   5.538   6.869 -3.2413 -0.0709 -0.5464
   40CHL1   H2B 2935   3.790   5.685   6.849  0.5648 -0.2146 -0.2848
   40CHL1   C20 2936   3.836   6.043   7.746  0.3818 -0.1976 -0.4890
   40CHL1   H20 2937   3.886   6.133   7.704  0.1125 -0.1439 -0.7010
   40CHL1   C21 2938   3.952   5.940   7.750 -0.1836 -0.4814 -0.2317
   40CHL1  H21A 2939   3.917   5.837   7.772 -0.0485 -0.4895 -0.0518
   40CHL1  H21B 2940   4.018   5.974   7.832  0.6969 -1.7104 -0.4107
   40CHL1  H21C 2941   4.016   5.946   7.660  1.6121 -1.1925  0.9427
   40CHL1   C22 2942   3.780   6.073   7.899  0.8464  0.0460  0.2075
   40CHL1  H22A 2943   3.857   6.132   7.954  0.9366  0.3339 -0.2218
   40CHL1  H22B 2944   3.702   6.150   7.878 -0.3561 -0.9350  0.9374
   40CHL1   C23 2945   3.702   5.955   7.965 -0.2403  0.2579 -0.4906
   40CHL1  H23A 2946   3.597   5.957   7.930 -0.5646 -0.5452  0.4103
   40CHL1  H23B 2947   3.751   5.859   7.937 -1.6430 -0.6994  0.2196
   40CHL1   C24 2948   3.714   5.962   8.119  0.4007 -0.3065 -0.5506
   40CHL1  H24A 2949   3.821   5.987   8.133 -0.1497  2.1729 -0.2168
   40CHL1  H24B 2950   3.665   6.054   8.157  3.1338  1.7525 -1.6550
   40CHL1   C25 2951   3.676   5.840   8.200  0.5977  0.2519  0.2451
   40CHL1   H25 2952   3.726   5.751   8.158 -0.6514  0.2487 -1.3443
   40CHL1   C26 2953   3.713   5.863   8.347  0.9022  0.8500  0.5378
   40CHL1  H26A 2954   3.816   5.899   8.367  1.2642 -0.6407  1.5632
   40CHL1  H26B 2955   3.639   5.936   8.386  1.4745  0.6375  2.0961
   40CHL1  H26C 2956   3.694   5.771   8.407  0.1027  0.2343 -0.6222
   40CHL1   C27 2957   3.521   5.809   8.176 -0.5588 -0.3289 -0.1894
   40CHL1  H27A 2958   3.514   5.763   8.075 -1.0008 -1.0364  0.1578
   40CHL1  H27B 2959   3.490   5.727   8.244 -0.8546 -1.1719 -1.3208
   40CHL1  H27C 2960   3.462   5.902   8.190  0.1413  0.1933 -0.6329
   41CHL1    C3 2961   3.658   0.270   6.804 -0.2970 -0.5071 -0.7170
   41CHL1    H3 2962   3.757   0.301   6.843 -0.1262  0.3230 -1.7712
   41CHL1    O3 2963   3.661   0.271   6.665  0.0303  0.0150  0.0066
   41CHL1   H3' 2964   3.582   0.220   6.643  0.3060 -1.3228  1.8475
   41CHL1    C4 2965   3.626   0.124   6.835 -0.0206  0.6170 -0.5990
   41CHL1   H4A 2966   3.532   0.093   6.783 -0.6923  0.9609  0.3757
   41CHL1   H4B 2967   3.707   0.066   6.786  1.6098  0.3634  2.2459
   41CHL1    C5 2968   3.620   0.098   6.985 -0.1344 -1.2165 -0.0278
   41CHL1    C6 2969   3.690  -0.002   7.035 -0.3275 -0.3907  0.1408
   41CHL1    H6 2970   3.750  -0.068   6.972 -0.0004 -0.4312  0.4927
   41CHL1    C7 2971   3.705  -0.032   7.181  0.0415  0.3093  0.9199
   41CHL1   H7A 2972   3.683  -0.141   7.183 -2.6240  0.5083 -3.6352
   41CHL1   H7B 2973   3.797   0.003   7.233  1.4097 -0.7624 -0.6835
   41CHL1    C8 2974   3.590   0.035   7.261 -0.6004  0.2597 -0.2058
   41CHL1    H8 2975   3.496  -0.021   7.241 -0.5625  0.7483 -1.9419
   41CHL1   C14 2976   3.629   0.022   7.408 -0.0587 -0.1434 -0.1074
   41CHL1   H14 2977   3.720   0.085   7.420 -0.3060  0.3437 -0.7308
   41CHL1   C15 2978   3.647  -0.116   7.470  0.5198  0.2312 -0.2433
   41CHL1  H15A 2979   3.568  -0.188   7.437  0.5457 -0.8186  1.7800
   41CHL1  H15B 2980   3.747  -0.158   7.446  0.8784  1.2957 -0.6563
   41CHL1   C16 2981   3.633  -0.088   7.625 -0.1371  0.0658  0.6499
   41CHL1  H16A 2982   3.578  -0.174   7.667 -1.9775  0.9428  0.1575
   41CHL1  H16B 2983   3.736  -0.096   7.665 -0.4866 -1.3312  1.3355
   41CHL1   C17 2984   3.569   0.055   7.638 -0.1619  0.7518  0.1503
   41CHL1   H17 2985   3.652   0.128   7.652  0.6134  0.0696 -0.7427
   41CHL1   C13 2986   3.515   0.084   7.495  0.1654  0.0619 -0.0331
   41CHL1   C18 2987   3.378   0.019   7.482  0.3260 -0.1700  0.2966
   41CHL1  H18A 2988   3.302   0.063   7.551 -0.3965  1.2967 -1.3546
   41CHL1  H18B 2989   3.338   0.038   7.380 -2.9591  1.0819  1.6867
   41CHL1  H18C 2990   3.382  -0.091   7.497 -0.4825 -0.2918 -0.3313
   41CHL1   C12 2991   3.498   0.231   7.456  0.1277  0.1229 -0.4240
   41CHL1  H12A 2992   3.406   0.273   7.502  0.3638  0.0255  0.1571
   41CHL1  H12B 2993   3.590   0.278   7.497 -1.0192 -0.0140  2.5689
   41CHL1   C11 2994   3.483   0.258   7.311  0.3691 -0.0038  0.0750
   41CHL1  H11A 2995   3.378   0.242   7.279  0.3661  0.9841 -0.4826
   41CHL1  H11B 2996   3.509   0.367   7.310  0.5420 -0.0436  0.1638
   41CHL1    C9 2997   3.576   0.182   7.215 -0.7803  0.2401 -0.7428
   41CHL1    H9 2998   3.678   0.226   7.219 -0.8376  0.2760  0.6743
   41CHL1   C10 2999   3.537   0.199   7.068 -0.0115  0.1453 -0.6144
   41CHL1   C19 3000   3.388   0.169   7.044  0.1706  0.3972  0.8861
   41CHL1  H19A 3001   3.367   0.073   7.096 -0.2096  0.5997  1.1102
   41CHL1  H19B 3002   3.314   0.243   7.080  1.9222  2.1639  1.0064
   41CHL1  H19C 3003   3.359   0.155   6.938 -2.0476 -2.2358  1.7145
   41CHL1    C1 3004   3.556   0.344   7.022  0.5171  0.0658  0.5695
   41CHL1   H1A 3005   3.486   0.417   7.067 -1.2771 -1.5863  0.5476
   41CHL1   H1B 3006   3.658   0.366   7.061  0.7614  1.1326 -0.6007
   41CHL1    C2 3007   3.557   0.372   6.872  0.5366 -0.0126  0.5014
   41CHL1   H2A 3008   3.590   0.475   6.848 -2.6131  1.6129  2.5562
   41CHL1   H2B 3009   3.459   0.349   6.825  0.8637 -1.5446  0.5232
   41CHL1   C20 3010   3.472   0.081   7.758 -0.7774 -0.2360 -0.6483
   41CHL1   H20 3011   3.366   0.051   7.750 -0.9462  0.0868  0.3019
   41CHL1   C21 3012   3.464   0.234   7.782  0.3199 -0.6803  0.2840
   41CHL1  H21A 3013   3.411   0.260   7.877  0.0632  0.7177 -0.2189
   41CHL1  H21B 3014   3.410   0.297   7.709 -0.5919  1.0149  2.3113
   41CHL1  H21C 3015   3.560   0.287   7.797 -0.4697  1.0076 -0.4475
   41CHL1   C22 3016   3.514   0.016   7.894 -0.1133  0.1249  0.1612
   41CHL1  H22A 3017   3.446   0.040   7.978  0.3341  2.6482 -0.1071
   41CHL1  H22B 3018   3.498  -0.093   7.879 -2.2145  0.4782 -0.4985
   41CHL1   C23 3019   3.660   0.049   7.936 -0.1717  0.7102  0.2095
   41CHL1  H23A 3020   3.727   0.010   7.857 -0.0038  2.7356 -0.7216
   41CHL1  H23B 3021   3.683   0.158   7.928 -1.9429  1.0613 -0.8468
   41CHL1   C24 3022   3.687   0.008   8.078  0.1367 -0.5524 -0.6941
   41CHL1  H24A 3023   3.782   0.052   8.115 -1.1463  1.9089 -0.1526
   41CHL1  H24B 3024   3.603   0.049   8.139  1.1852  1.0719 -0.2819
   41CHL1   C25 3025   3.694  -0.144   8.105  0.7807  0.1255 -0.3864
   41CHL1   H25 3026   3.591  -0.186   8.095  1.4524 -1.3794 -1.5111
   41CHL1   C26 3027   3.787  -0.230   8.020 -0.1236  0.3741 -0.1579
   41CHL1  H26A 3028   3.759  -0.229   7.912  1.3456  0.9338 -0.5620
   41CHL1  H26B 3029   3.893  -0.196   8.014  1.0700 -2.9602 -0.2959
   41CHL1  H26C 3030   3.784  -0.334   8.059 -1.2869  0.5846  0.3508
   41CHL1   C27 3031   3.717  -0.174   8.257 -0.3492 -0.0986  0.2282
   41CHL1  H27A 3032   3.818  -0.148   8.294 -1.7382  2.9245  2.2432
   41CHL1  H27B 3033   3.647  -0.102   8.305  1.2241  0.8152  1.2371
   41CHL1  H27C 3034   3.698  -0.280   8.287  0.0022 -0.3253 -0.3341
   42CHL1    C3 3035   6.519   4.352   6.673  0.1263  0.5854  0.0981
   42CHL1    H3 3036   6.425   4.393   6.716 -1.0166 -2.1889  0.4487
   42CHL1    O3 3037   6.520   4.390   6.536  0.2926 -0.8688 -0.2000
   42CHL1   H3' 3038   6.611   4.386   6.506  0.1981  0.8761 -0.8408
   42CHL1    C4 3039   6.628   4.421   6.754  0.8239  0.4129  0.1107
   42CHL1   H4A 3040   6.719   4.409   6.691  1.6334 -1.5719  1.5337
   42CHL1   H4B 3041   6.612   4.530   6.754  0.1884  0.3385 -1.0641
   42CHL1    C5 3042   6.649   4.364   6.896 -0.1970 -0.1183  0.3259
   42CHL1    C6 3043   6.665   4.454   6.990  0.2030  0.2513 -0.4141
   42CHL1    H6 3044   6.688   4.557   6.960  2.1872  0.0976  0.3790
   42CHL1    C7 3045   6.682   4.413   7.135 -0.0298  0.0324  0.1972
   42CHL1   H7A 3046   6.768   4.455   7.190 -0.4557 -0.0335  0.9320
   42CHL1   H7B 3047   6.597   4.448   7.198 -0.3673  0.3202 -0.4060
   42CHL1    C8 3048   6.698   4.263   7.164 -0.4359  0.4126  0.2059
   42CHL1    H8 3049   6.804   4.229   7.160 -1.4091 -3.0573  0.5487
   42CHL1   C14 3050   6.651   4.228   7.302  0.2637  0.1299 -0.2066
   42CHL1   H14 3051   6.541   4.243   7.296  0.6559  4.2386  0.1060
   42CHL1   C15 3052   6.697   4.308   7.423 -0.4070 -0.8778  0.3582
   42CHL1  H15A 3053   6.805   4.331   7.410 -0.2713  0.1807  2.8457
   42CHL1  H15B 3054   6.642   4.404   7.426 -0.2981 -0.8410  1.5494
   42CHL1   C16 3055   6.681   4.221   7.547 -0.0871  0.2870 -0.1225
   42CHL1  H16A 3056   6.782   4.208   7.592  0.5230  1.0823 -1.2355
   42CHL1  H16B 3057   6.610   4.265   7.620  0.3584  1.8142 -0.5814
   42CHL1   C17 3058   6.622   4.087   7.486 -0.2705  0.7234  0.0113
   42CHL1   H17 3059   6.513   4.100   7.472 -0.3024  0.1372 -0.3201
   42CHL1   C13 3060   6.674   4.083   7.345  0.0230  0.3022 -0.0799
   42CHL1   C18 3061   6.828   4.048   7.356 -0.2100  0.7292 -0.2693
   42CHL1  H18A 3062   6.843   3.941   7.384  0.4164  1.4151  2.2344
   42CHL1  H18B 3063   6.886   4.055   7.261  2.2339 -2.3099  0.8210
   42CHL1  H18C 3064   6.881   4.104   7.436 -2.7598  1.4178  1.0469
   42CHL1   C12 3065   6.607   3.995   7.238 -0.6812 -0.4823 -0.1231
   42CHL1  H12A 3066   6.636   3.892   7.269  0.4281  0.5047  2.3488
   42CHL1  H12B 3067   6.500   4.018   7.252 -0.6140 -0.4274  0.3198
   42CHL1   C11 3068   6.651   4.030   7.098  0.2207 -0.2616 -0.8660
   42CHL1  H11A 3069   6.757   4.002   7.078 -0.1145 -1.8571 -0.5599
   42CHL1  H11B 3070   6.592   3.965   7.030  0.4283  0.2868 -1.5855
   42CHL1    C9 3071   6.625   4.178   7.062 -0.7844  0.4959  0.3942
   42CHL1    H9 3072   6.516   4.197   7.074 -1.2470 -0.5091 -1.7660
   42CHL1   C10 3073   6.644   4.218   6.913 -0.9873 -0.8240  0.2736
   42CHL1   C19 3074   6.781   4.169   6.867 -0.6727  0.3608 -0.3062
   42CHL1  H19A 3075   6.853   4.227   6.930 -0.3678  0.0630 -0.3787
   42CHL1  H19B 3076   6.791   4.060   6.883 -0.8182 -0.0246 -2.4927
   42CHL1  H19C 3077   6.822   4.196   6.767  0.1737  0.4023  0.0385
   42CHL1    C1 3078   6.537   4.157   6.826 -0.5932  0.0062  0.5073
   42CHL1   H1A 3079   6.550   4.048   6.813  2.1675  0.4996 -2.1114
   42CHL1   H1B 3080   6.442   4.183   6.878  0.1972  1.0711  1.4778
   42CHL1    C2 3081   6.527   4.203   6.680  0.1120 -0.0459  0.0936
   42CHL1   H2A 3082   6.438   4.158   6.632 -0.4829  1.3002 -0.1033
   42CHL1   H2B 3083   6.612   4.171   6.615 -0.3215  0.6260 -0.8287
   42CHL1   C20 3084   6.630   3.960   7.571 -0.5732  0.2576 -0.1520
   42CHL1   H20 3085   6.718   3.900   7.541 -0.5637  1.4475 -2.8166
   42CHL1   C21 3086   6.512   3.862   7.534 -0.9224  0.1410 -0.5430
   42CHL1  H21A 3087   6.496   3.842   7.426 -3.5523 -2.6658  0.2247
   42CHL1  H21B 3088   6.419   3.919   7.557 -0.4887  0.4689  0.4598
   42CHL1  H21C 3089   6.523   3.766   7.589  0.1706  0.8329  0.4979
   42CHL1   C22 3090   6.633   3.983   7.725  0.1372 -0.2524  0.5679
   42CHL1  H22A 3091   6.712   4.057   7.749 -0.5474  0.8088 -0.3077
   42CHL1  H22B 3092   6.535   4.028   7.754  0.2384  0.0953  0.3838
   42CHL1   C23 3093   6.652   3.861   7.810  0.3259 -1.0061  0.2683
   42CHL1  H23A 3094   6.569   3.790   7.789 -0.9419  1.0878 -2.7030
   42CHL1  H23B 3095   6.747   3.816   7.776  0.9829 -0.0277  0.7597
   42CHL1   C24 3096   6.662   3.898   7.960 -0.6612 -0.0468  0.8500
   42CHL1  H24A 3097   6.755   3.956   7.977 -0.4617 -0.6310  1.8260
   42CHL1  H24B 3098   6.572   3.961   7.975 -2.3160 -1.9347 -0.5308
   42CHL1   C25 3099   6.654   3.778   8.056  0.8417  0.2754 -0.6765
   42CHL1   H25 3100   6.750   3.723   8.047  0.7332 -0.0818  0.2719
   42CHL1   C26 3101   6.639   3.827   8.198  0.3636  0.3305 -0.0615
   42CHL1  H26A 3102   6.552   3.897   8.199 -0.2202 -0.3182 -1.5280
   42CHL1  H26B 3103   6.622   3.745   8.271 -0.8660  0.1152 -0.5523
   42CHL1  H26C 3104   6.727   3.887   8.229 -0.9749  1.2249  2.3546
   42CHL1   C27 3105   6.535   3.678   8.032  0.0845  0.0547  0.8416
   42CHL1  H27A 3106   6.434   3.724   8.036 -0.5531 -0.3017 -4.1785
   42CHL1  H27B 3107   6.552   3.595   8.104 -0.9825  1.1242  2.3778
   42CHL1  H27C 3108   6.550   3.641   7.928 -0.5692  1.0565  0.3788
   43CHL1    C3 3109   5.339   1.296   6.898 -0.3003 -0.0392 -0.0894
   43CHL1    H3 3110   5.234   1.260   6.893 -0.6280  1.0574 -1.8599
   43CHL1    O3 3111   5.387   1.319   6.766 -0.2949 -0.7540  0.0562
   43CHL1   H3' 3112   5.477   1.351   6.769 -0.7258  0.4494  0.8617
   43CHL1    C4 3113   5.348   1.446   6.956  0.6404  0.4281 -0.7536
   43CHL1   H4A 3114   5.447   1.490   6.932  0.3713  1.2150 -0.4305
   43CHL1   H4B 3115   5.260   1.494   6.908  0.6788  1.5519  0.2736
   43CHL1    C5 3116   5.309   1.445   7.106 -0.4324 -0.8305  0.1685
   43CHL1    C6 3117   5.206   1.521   7.137 -0.1733 -0.6101 -0.2028
   43CHL1    H6 3118   5.161   1.587   7.062 -0.4265  0.2710  0.7063
   43CHL1    C7 3119   5.143   1.514   7.270 -0.1309 -0.5246 -0.0610
   43CHL1   H7A 3120   5.128   1.618   7.307  0.8926 -0.4224  0.1094
   43CHL1   H7B 3121   5.045   1.464   7.261  0.0276 -0.7286 -0.7192
   43CHL1    C8 3122   5.222   1.440   7.380 -0.1031  0.3354  0.7688
   43CHL1    H8 3123   5.301   1.512   7.411 -1.0741  1.5803  0.4574
   43CHL1   C14 3124   5.132   1.400   7.496 -0.3016  0.3060 -0.7195
   43CHL1   H14 3125   5.066   1.320   7.457 -0.1149  0.6663 -1.8230
   43CHL1   C15 3126   5.038   1.507   7.559 -0.9649  0.4402  0.1063
   43CHL1  H15A 3127   5.095   1.602   7.562  0.0682 -0.1898  1.8369
   43CHL1  H15B 3128   4.940   1.522   7.509 -0.3068 -0.3904 -1.5108
   43CHL1   C16 3129   5.007   1.452   7.699  0.4072  0.1389 -0.5716
   43CHL1  H16A 3130   5.020   1.529   7.778 -2.7846  0.4916 -0.2611
   43CHL1  H16B 3131   4.901   1.421   7.693  0.1326  1.2255 -2.2681
   43CHL1   C17 3132   5.096   1.324   7.720 -0.3642 -0.0076  0.3510
   43CHL1   H17 3133   5.033   1.238   7.690  0.1975 -0.5164  0.5910
   43CHL1   C13 3134   5.207   1.338   7.616 -0.1330  0.2771 -0.2276
   43CHL1   C18 3135   5.312   1.431   7.667 -0.4888 -0.3843 -0.1732
   43CHL1  H18A 3136   5.376   1.369   7.734 -0.7313 -1.6835 -1.0954
   43CHL1  H18B 3137   5.374   1.477   7.587 -1.4602 -1.3175 -1.4963
   43CHL1  H18C 3138   5.271   1.515   7.727 -2.2745  0.4664 -2.4536
   43CHL1   C12 3139   5.274   1.213   7.557  0.1826 -0.2369  0.1518
   43CHL1  H12A 3140   5.331   1.165   7.638  1.2945  0.8661  0.0535
   43CHL1  H12B 3141   5.198   1.144   7.515 -1.1914  0.2144  1.7715
   43CHL1   C11 3142   5.366   1.250   7.439  0.1808  0.1204  0.2993
   43CHL1  H11A 3143   5.462   1.292   7.476  0.6292 -0.3178 -0.3599
   43CHL1  H11B 3144   5.408   1.158   7.394 -1.2703 -0.6270  0.3973
   43CHL1    C9 3145   5.285   1.314   7.323  0.0045  0.5981 -0.3293
   43CHL1    H9 3146   5.198   1.248   7.305  0.4091 -0.0778  0.1611
   43CHL1   C10 3147   5.368   1.336   7.197  0.2684  0.5400 -0.0659
   43CHL1   C19 3148   5.514   1.384   7.232 -0.2696 -0.8975 -0.2059
   43CHL1  H19A 3149   5.564   1.407   7.135 -2.3670  0.3561 -1.0642
   43CHL1  H19B 3150   5.512   1.480   7.286  0.3536  0.8089 -2.9851
   43CHL1  H19C 3151   5.573   1.311   7.290  2.3949  2.0920  1.1039
   43CHL1    C1 3152   5.377   1.196   7.130  0.1439 -0.9676  0.3987
   43CHL1   H1A 3153   5.431   1.123   7.193 -0.6080 -0.8386  1.2164
   43CHL1   H1B 3154   5.268   1.174   7.128 -0.6774  2.4263  0.0419
   43CHL1    C2 3155   5.422   1.202   6.986  0.3987  0.0035  0.2945
   43CHL1   H2A 3156   5.416   1.099   6.945 -1.7450 -0.7590  2.2737
   43CHL1   H2B 3157   5.527   1.229   6.964  0.5745 -0.3974  0.6344
   43CHL1   C20 3158   5.128   1.295   7.873  0.1872  0.7754  0.2948
   43CHL1   H20 3159   5.184   1.382   7.914  0.6781  1.0771 -0.9812
   43CHL1   C21 3160   5.226   1.176   7.888 -0.0152 -0.2026  0.4541
   43CHL1  H21A 3161   5.325   1.201   7.844 -0.8093  1.1353 -0.6278
   43CHL1  H21B 3162   5.179   1.084   7.847  1.2470 -2.3884  3.4274
   43CHL1  H21C 3163   5.231   1.144   7.995 -0.8192 -1.5034  0.1282
   43CHL1   C22 3164   4.996   1.283   7.968 -0.0003  0.3335 -0.7458
   43CHL1  H22A 3165   4.938   1.377   7.959 -0.7298  0.5472  3.8244
   43CHL1  H22B 3166   4.928   1.197   7.952 -3.7854  2.6497  1.6040
   43CHL1   C23 3167   5.033   1.274   8.119  0.4995 -0.1750  0.1255
   43CHL1  H23A 3168   5.081   1.176   8.141  0.5933 -0.2880 -0.5583
   43CHL1  H23B 3169   5.111   1.349   8.144 -0.5244  1.0688 -0.3050
   43CHL1   C24 3170   4.905   1.287   8.211 -0.2205 -0.2140  1.1478
   43CHL1  H24A 3171   4.872   1.392   8.195  0.1783 -0.1175  0.9188
   43CHL1  H24B 3172   4.826   1.224   8.166  1.0750 -1.6128  0.7272
   43CHL1   C25 3173   4.898   1.262   8.356  0.1239  0.3532 -0.2208
   43CHL1   H25 3174   4.797   1.276   8.399  0.6775  2.1586  0.5882
   43CHL1   C26 3175   4.946   1.122   8.397  0.2307  0.1718 -0.6214
   43CHL1  H26A 3176   5.055   1.125   8.377  0.3054 -0.4067 -0.3129
   43CHL1  H26B 3177   4.915   1.104   8.502 -1.2443  0.2940 -1.0128
   43CHL1  H26C 3178   4.898   1.051   8.327 -0.6280 -2.0865  2.0568
   43CHL1   C27 3179   4.979   1.371   8.421 -0.7635  0.3468  0.0725
   43CHL1  H27A 3180   4.977   1.371   8.532  1.7971 -0.0713  0.1650
   43CHL1  H27B 3181   5.086   1.347   8.403 -0.5081  2.1561 -1.1197
   43CHL1  H27C 3182   4.952   1.473   8.386  0.1352  0.3911 -0.5163
   44CHL1    C3 3183   4.618   6.645   6.619  0.2476  0.2855  0.1627
   44CHL1    H3 3184   4.622   6.539   6.653 -2.5250  0.0853  0.0575
   44CHL1    O3 3185   4.616   6.658   6.478  0.4203 -0.0933 -0.1596
   44CHL1   H3' 3186   4.660   6.741   6.462 -0.5986  0.5368  0.2390
   44CHL1    C4 3187   4.498   6.708   6.678  0.3656  0.3816  0.0499
   44CHL1   H4A 3188   4.491   6.817   6.655  0.1072  0.4978  0.6542
   44CHL1   H4B 3189   4.415   6.655   6.627 -0.7694  1.1114  1.0591
   44CHL1    C5 3190   4.502   6.691   6.833  0.1550 -0.6421  0.9081
   44CHL1    C6 3191   4.408   6.618   6.894 -0.5257 -0.3315  0.9138
   44CHL1    H6 3192   4.322   6.575   6.841 -1.0596 -0.8002  2.1205
   44CHL1    C7 3193   4.396   6.602   7.044 -0.2661 -0.2649  0.0978
   44CHL1   H7A 3194   4.292   6.620   7.077 -0.6847 -0.4018 -1.1098
   44CHL1   H7B 3195   4.418   6.496   7.070  0.3917  0.0770  1.0172
   44CHL1    C8 3196   4.499   6.693   7.120  0.6203 -0.4724 -0.1104
   44CHL1    H8 3197   4.453   6.794   7.127  0.2493 -0.7038  1.0350
   44CHL1   C14 3198   4.513   6.632   7.256 -1.1119 -0.2108  0.3971
   44CHL1   H14 3199   4.557   6.531   7.244 -1.0248 -0.1732  0.3929
   44CHL1   C15 3200   4.392   6.610   7.339 -0.5029 -0.5604 -0.1222
   44CHL1  H15A 3201   4.324   6.697   7.348 -1.3400 -1.3410  1.5080
   44CHL1  H15B 3202   4.333   6.517   7.323 -0.0230 -1.5236  3.0380
   44CHL1   C16 3203   4.443   6.596   7.483  0.1761 -0.4413  0.7707
   44CHL1  H16A 3204   4.395   6.669   7.553 -0.4920  0.2741 -0.4090
   44CHL1  H16B 3205   4.421   6.499   7.532  1.4941 -0.2005  1.8897
   44CHL1   C17 3206   4.597   6.625   7.476 -0.1186 -0.6898  0.3072
   44CHL1   H17 3207   4.647   6.529   7.455  0.4298 -0.5340  0.8534
   44CHL1   C13 3208   4.610   6.712   7.346  0.9039 -0.2057 -0.4722
   44CHL1   C18 3209   4.550   6.855   7.375 -0.0213  0.3886  1.3074
   44CHL1  H18A 3210   4.538   6.910   7.279 -2.3912  0.1941  1.4298
   44CHL1  H18B 3211   4.446   6.850   7.415 -2.0322  1.6089 -3.1845
   44CHL1  H18C 3212   4.621   6.919   7.431  1.0826  0.2653  0.0932
   44CHL1   C12 3213   4.750   6.724   7.281 -0.5927 -0.1705 -0.5115
   44CHL1  H12A 3214   4.810   6.796   7.340  0.9659 -2.6044  1.0361
   44CHL1  H12B 3215   4.803   6.626   7.280  1.9730  1.1314  0.0419
   44CHL1   C11 3216   4.736   6.774   7.135  0.0392  0.1093 -0.8382
   44CHL1  H11A 3217   4.706   6.880   7.149  1.4724  0.2896  1.5235
   44CHL1  H11B 3218   4.833   6.757   7.084  1.0103  2.2491  0.1494
   44CHL1    C9 3219   4.629   6.698   7.046 -0.2315 -0.2879 -0.1949
   44CHL1    H9 3220   4.654   6.590   7.045 -2.3098 -0.9066 -4.0516
   44CHL1   C10 3221   4.626   6.744   6.897  0.1042  0.5457 -1.3260
   44CHL1   C19 3222   4.628   6.900   6.892  0.3665 -0.4371 -0.2785
   44CHL1  H19A 3223   4.542   6.939   6.951  0.0616 -0.5962 -0.6151
   44CHL1  H19B 3224   4.721   6.938   6.940 -0.0626 -0.1596  0.3383
   44CHL1  H19C 3225   4.614   6.938   6.789 -2.5480 -0.4708  0.0150
   44CHL1    C1 3226   4.748   6.687   6.823 -0.1033 -0.5354 -0.2711
   44CHL1   H1A 3227   4.840   6.736   6.862 -0.0657 -0.3161 -0.6361
   44CHL1   H1B 3228   4.761   6.580   6.849 -1.6741 -0.2239  2.0639
   44CHL1    C2 3229   4.749   6.708   6.674  0.4061 -0.7885 -0.5220
   44CHL1   H2A 3230   4.838   6.661   6.628  1.3047 -0.7824  1.1551
   44CHL1   H2B 3231   4.749   6.816   6.650  0.5647 -1.0320 -1.6798
   44CHL1   C20 3232   4.656   6.680   7.607  0.2137  0.3079 -1.2471
   44CHL1   H20 3233   4.613   6.777   7.640  0.0408 -0.2164  0.1216
   44CHL1   C21 3234   4.809   6.700   7.589  0.1977 -0.0036 -0.3559
   44CHL1  H21A 3235   4.859   6.725   7.685  4.6280  3.6979 -3.1795
   44CHL1  H21B 3236   4.826   6.786   7.521 -1.4965  1.0028  0.4236
   44CHL1  H21C 3237   4.866   6.615   7.547  1.1748  0.3151  0.2930
   44CHL1   C22 3238   4.627   6.575   7.715  0.2803  0.2337  0.7705
   44CHL1  H22A 3239   4.521   6.549   7.736  0.5969 -0.4825  1.5619
   44CHL1  H22B 3240   4.671   6.477   7.686 -0.0802 -0.2525  1.8131
   44CHL1   C23 3241   4.677   6.610   7.858  0.0352  0.0508  0.0099
   44CHL1  H23A 3242   4.784   6.583   7.862 -0.3152 -1.5882 -0.9062
   44CHL1  H23B 3243   4.653   6.716   7.884  0.6770  0.1675  0.1399
   44CHL1   C24 3244   4.604   6.517   7.963 -0.7235  0.1430 -0.2054
   44CHL1  H24A 3245   4.493   6.525   7.961 -0.6613  1.0826 -0.7630
   44CHL1  H24B 3246   4.643   6.417   7.938 -2.4247 -0.5640 -0.1996
   44CHL1   C25 3247   4.662   6.558   8.105  1.2845 -0.4107  0.6329
   44CHL1   H25 3248   4.661   6.669   8.111  2.3630 -0.4380  1.6705
   44CHL1   C26 3249   4.588   6.487   8.218  0.7005 -1.1449 -0.0295
   44CHL1  H26A 3250   4.635   6.513   8.316  2.9173 -0.8875 -1.1088
   44CHL1  H26B 3251   4.482   6.518   8.207  1.5306  1.4991 -1.2886
   44CHL1  H26C 3252   4.603   6.377   8.216  2.3818 -1.0375  2.2368
   44CHL1   C27 3253   4.806   6.522   8.121 -0.3884 -0.1386  0.2324
   44CHL1  H27A 3254   4.837   6.527   8.228  0.6217  2.9385 -0.1085
   44CHL1  H27B 3255   4.824   6.418   8.086 -2.7432 -0.3396 -0.5463
   44CHL1  H27C 3256   4.868   6.603   8.077  0.3536  0.6065  2.4875
   45CHL1    C3 3257   0.268   5.556   6.696 -0.7860 -0.6065  0.5363
   45CHL1    H3 3258   0.324   5.632   6.755  1.8775 -1.8296 -0.2300
   45CHL1    O3 3259   0.276   5.585   6.558 -0.0094 -0.5204 -0.1892
   45CHL1   H3' 3260   0.241   5.509   6.511  0.5415  0.0623 -1.5885
   45CHL1    C4 3261   0.328   5.418   6.719 -0.2545  0.0505 -0.0266
   45CHL1   H4A 3262   0.259   5.346   6.669 -0.7527  1.7863 -1.9741
   45CHL1   H4B 3263   0.425   5.410   6.666 -0.9465  0.7475 -1.4439
   45CHL1    C5 3264   0.319   5.384   6.865 -0.7325 -0.4033 -0.2201
   45CHL1    C6 3265   0.436   5.345   6.931 -0.0988  0.3386  1.0678
   45CHL1    H6 3266   0.532   5.342   6.876  0.0286  0.1006  1.3039
   45CHL1    C7 3267   0.442   5.320   7.077  1.0924 -0.2056  0.6848
   45CHL1   H7A 3268   0.487   5.220   7.097 -1.5747 -2.5485 -3.5164
   45CHL1   H7B 3269   0.506   5.400   7.120  0.6063  0.6636 -0.1668
   45CHL1    C8 3270   0.306   5.324   7.146  0.4217 -0.6828  0.6326
   45CHL1    H8 3271   0.259   5.225   7.126  0.5042 -0.3223 -1.6342
   45CHL1   C14 3272   0.327   5.351   7.293  0.6298 -0.0926 -0.3829
   45CHL1   H14 3273   0.371   5.452   7.302  0.7816 -0.2138  0.2679
   45CHL1   C15 3274   0.436   5.269   7.354  0.1075 -0.0782  0.0335
   45CHL1  H15A 3275   0.448   5.162   7.326  2.4903  0.2208 -0.2550
   45CHL1  H15B 3276   0.536   5.312   7.333 -0.4966 -0.0814 -3.5665
   45CHL1   C16 3277   0.400   5.269   7.509  0.0540  0.6212 -1.0946
   45CHL1  H16A 3278   0.352   5.172   7.536  1.2350 -1.2085 -4.8587
   45CHL1  H16B 3279   0.483   5.299   7.577 -1.8321  0.1138  1.5635
   45CHL1   C17 3280   0.280   5.371   7.519  0.0617  0.0521 -0.2249
   45CHL1   H17 3281   0.322   5.473   7.531 -1.7956  0.8054  0.2102
   45CHL1   C13 3282   0.204   5.358   7.383 -0.0306 -0.2438 -0.6235
   45CHL1   C18 3283   0.128   5.220   7.381 -0.1121 -0.2503 -0.3712
   45CHL1  H18A 3284   0.040   5.211   7.448  1.0529  1.2717  1.4619
   45CHL1  H18B 3285   0.087   5.199   7.280 -0.7141  0.0886 -0.2066
   45CHL1  H18C 3286   0.193   5.131   7.393  1.2249  0.7110 -0.2753
   45CHL1   C12 3287   0.121   5.474   7.339 -0.5872  0.4615  0.6724
   45CHL1  H12A 3288   0.024   5.478   7.394 -1.2826 -2.4324 -0.1501
   45CHL1  H12B 3289   0.175   5.570   7.342  0.9433 -0.3885  2.5239
   45CHL1   C11 3290   0.086   5.452   7.188 -0.0347 -0.3029  0.2453
   45CHL1  H11A 3291   0.005   5.375   7.190 -2.5797  2.2120  1.7074
   45CHL1  H11B 3292   0.048   5.548   7.149  0.3481  0.0836  0.8093
   45CHL1    C9 3293   0.212   5.430   7.089 -0.0534  0.0350 -0.0898
   45CHL1    H9 3294   0.265   5.526   7.108  1.1916 -0.8231  0.9078
   45CHL1   C10 3295   0.187   5.419   6.942 -0.1223  0.3337  0.4872
   45CHL1   C19 3296   0.086   5.307   6.917 -0.5408 -0.2769 -0.4205
   45CHL1  H19A 3297   0.075   5.284   6.809 -0.4467 -0.4646 -0.3900
   45CHL1  H19B 3298   0.115   5.210   6.964 -2.3576 -1.3610 -1.3839
   45CHL1  H19C 3299  -0.012   5.335   6.961 -0.8609  0.6380 -1.6564
   45CHL1    C1 3300   0.128   5.555   6.888  0.4247 -0.1408  0.9750
   45CHL1   H1A 3301   0.027   5.570   6.930 -0.3141 -1.9475 -0.0611
   45CHL1   H1B 3302   0.188   5.640   6.929  0.5395  1.0356 -1.4062
   45CHL1    C2 3303   0.123   5.563   6.736  0.0445 -0.3109 -0.1666
   45CHL1   H2A 3304   0.089   5.666   6.714  0.1916 -0.8012 -3.1730
   45CHL1   H2B 3305   0.056   5.485   6.693 -1.1191  1.9118 -2.6888
   45CHL1   C20 3306   0.203   5.346   7.652 -0.2734 -0.1012  0.8558
   45CHL1   H20 3307   0.189   5.235   7.657  1.3170 -0.3330  0.6463
   45CHL1   C21 3308   0.067   5.420   7.653  0.4502 -0.1979 -0.0343
   45CHL1  H21A 3309   0.088   5.528   7.638  0.2576 -0.3690 -1.6464
   45CHL1  H21B 3310   0.009   5.414   7.748  0.7735  1.0191  0.2612
   45CHL1  H21C 3311  -0.001   5.382   7.574 -0.2061  3.1013 -1.1830
   45CHL1   C22 3312   0.306   5.378   7.770 -0.4537  0.0176  0.0706
   45CHL1  H22A 3313   0.380   5.295   7.760 -1.9697 -1.3651 -0.0866
   45CHL1  H22B 3314   0.355   5.477   7.756  0.5077 -0.1944  1.6719
   45CHL1   C23 3315   0.240   5.366   7.908  0.1069 -0.2261 -0.1233
   45CHL1  H23A 3316   0.186   5.460   7.936  0.0358 -0.0297 -0.8799
   45CHL1  H23B 3317   0.160   5.288   7.909 -1.6214  1.4547  0.9312
   45CHL1   C24 3318   0.337   5.338   8.021  0.6339 -0.2052 -0.5621
   45CHL1  H24A 3319   0.384   5.239   8.001  0.1491  0.0023 -2.8926
   45CHL1  H24B 3320   0.418   5.414   8.011  1.1822 -0.6801  0.0945
   45CHL1   C25 3321   0.277   5.330   8.158 -0.2408 -0.0256  0.0291
   45CHL1   H25 3322   0.217   5.421   8.182 -2.3447 -1.9355  2.5205
   45CHL1   C26 3323   0.185   5.199   8.171 -0.0944  0.5793 -0.0911
   45CHL1  H26A 3324   0.106   5.199   8.093 -2.5685  1.5194  2.2893
   45CHL1  H26B 3325   0.243   5.104   8.176 -0.0450  0.6870  3.0524
   45CHL1  H26C 3326   0.138   5.198   8.272 -1.0221 -2.3398 -0.4547
   45CHL1   C27 3327   0.388   5.345   8.264 -0.1414  0.0784 -0.3578
   45CHL1  H27A 3328   0.348   5.343   8.368  1.1543 -1.4807  0.1514
   45CHL1  H27B 3329   0.451   5.254   8.260 -0.8505 -0.4672  0.6250
   45CHL1  H27C 3330   0.452   5.433   8.241  1.7885 -1.6315 -1.8501
   46CHL1    C3 3331   0.365   6.084   6.820  0.4404  0.2734  0.6543
   46CHL1    H3 3332   0.467   6.127   6.832  1.4414 -1.6878 -0.3013
   46CHL1    O3 3333   0.320   6.110   6.689 -0.7943  0.4246  0.5782
   46CHL1   H3' 3334   0.249   6.174   6.697 -0.0180  1.2083  1.5173
   46CHL1    C4 3335   0.374   5.930   6.846  0.3351  0.0887  0.5605
   46CHL1   H4A 3336   0.279   5.875   6.828  1.1555 -1.1876  0.0297
   46CHL1   H4B 3337   0.444   5.890   6.770 -0.4276 -0.7962  0.3048
   46CHL1    C5 3338   0.407   5.922   6.989 -0.6222 -0.4569 -0.2527
   46CHL1    C6 3339   0.526   5.869   7.023  0.5764  0.2806 -0.2257
   46CHL1    H6 3340   0.594   5.826   6.948  0.4670  1.0277 -0.7683
   46CHL1    C7 3341   0.564   5.843   7.168  0.7646 -0.0132  0.0922
   46CHL1   H7A 3342   0.581   5.734   7.178  0.4903 -0.1576 -0.9217
   46CHL1   H7B 3343   0.651   5.909   7.191 -0.6908  1.8733  0.4396
   46CHL1    C8 3344   0.443   5.862   7.273 -0.2670  0.2931  0.3063
   46CHL1    H8 3345   0.381   5.770   7.268  1.5390 -1.1698  2.5475
   46CHL1   C14 3346   0.490   5.870   7.424 -0.2279 -1.1385  0.2608
   46CHL1   H14 3347   0.558   5.957   7.429 -1.6226 -0.0409  1.3406
   46CHL1   C15 3348   0.580   5.759   7.469  0.3828  0.2002  0.2407
   46CHL1  H15A 3349   0.536   5.664   7.432 -0.8671  0.6051  0.6076
   46CHL1  H15B 3350   0.684   5.752   7.430  1.6567 -2.1472  3.6441
   46CHL1   C16 3351   0.583   5.776   7.623  0.0041  0.5183  0.7049
   46CHL1  H16A 3352   0.560   5.672   7.653  3.5762 -0.7668 -0.4904
   46CHL1  H16B 3353   0.687   5.785   7.660  1.1275 -6.1179  0.3107
   46CHL1   C17 3354   0.476   5.883   7.656  0.1597 -0.2731 -0.4138
   46CHL1   H17 3355   0.527   5.982   7.664 -0.4434 -0.1065  2.6276
   46CHL1   C13 3356   0.390   5.893   7.533  0.5760  1.1206  0.1100
   46CHL1   C18 3357   0.288   5.785   7.538  0.4568  0.0035  0.4500
   46CHL1  H18A 3358   0.202   5.799   7.606  0.3310 -1.8054  0.7271
   46CHL1  H18B 3359   0.246   5.767   7.436  0.7145  1.0732  0.1494
   46CHL1  H18C 3360   0.325   5.686   7.574 -0.9118 -0.0056  1.9679
   46CHL1   C12 3361   0.316   6.020   7.493 -0.7194 -0.6508  0.2217
   46CHL1  H12A 3362   0.234   6.050   7.562 -1.1975  0.1542 -0.6571
   46CHL1  H12B 3363   0.382   6.109   7.506  1.0211 -1.9066  0.2977
   46CHL1   C11 3364   0.256   6.021   7.348 -0.3136 -0.3207  0.4066
   46CHL1  H11A 3365   0.179   5.941   7.350 -0.5741 -0.1017 -0.5614
   46CHL1  H11B 3366   0.200   6.116   7.336  0.0723 -0.2363 -0.8215
   46CHL1    C9 3367   0.362   5.988   7.243  0.0849 -0.2119  0.0292
   46CHL1    H9 3368   0.425   6.078   7.257 -1.5429  0.6760  2.1626
   46CHL1   C10 3369   0.312   5.993   7.089 -0.2149  0.1940 -0.8563
   46CHL1   C19 3370   0.182   5.910   7.086 -0.2173 -0.5925  0.5581
   46CHL1  H19A 3371   0.212   5.804   7.103  1.0026 -0.1414  1.2961
   46CHL1  H19B 3372   0.099   5.955   7.145  0.9572  1.6559  0.5919
   46CHL1  H19C 3373   0.145   5.921   6.982 -1.6323  1.3706  1.2177
   46CHL1    C1 3374   0.299   6.137   7.052 -0.4001 -0.3389  0.0677
   46CHL1   H1A 3375   0.228   6.197   7.114  0.4742  0.7147  0.0698
   46CHL1   H1B 3376   0.399   6.185   7.063  0.0323 -1.2441  0.1758
   46CHL1    C2 3377   0.265   6.155   6.911 -0.1708  0.1964  0.2659
   46CHL1   H2A 3378   0.268   6.262   6.881  0.0827 -0.2292 -1.3426
   46CHL1   H2B 3379   0.161   6.125   6.886 -0.6629  2.2347 -0.3428
   46CHL1   C20 3380   0.411   5.865   7.790 -0.3267 -0.1003 -0.0045
   46CHL1   H20 3381   0.336   5.784   7.793  0.0437 -0.5082 -1.3301
   46CHL1   C21 3382   0.334   6.002   7.819 -0.1997 -0.6483 -0.2911
   46CHL1  H21A 3383   0.390   6.097   7.807  1.7148 -1.8217 -1.1845
   46CHL1  H21B 3384   0.296   6.013   7.923  0.1738  0.0013 -0.2214
   46CHL1  H21C 3385   0.238   6.009   7.762  0.4776  1.7147 -1.2625
   46CHL1   C22 3386   0.512   5.836   7.898 -0.0478 -0.3366  0.1260
   46CHL1  H22A 3387   0.564   5.743   7.869 -2.1486 -1.8456  0.9228
   46CHL1  H22B 3388   0.575   5.927   7.906 -0.3811  0.0433 -1.2299
   46CHL1   C23 3389   0.445   5.809   8.034  0.4975 -0.3813  0.2279
   46CHL1  H23A 3390   0.398   5.903   8.068 -0.4800 -0.0515 -1.8869
   46CHL1  H23B 3391   0.368   5.734   8.007 -1.5130  1.8135 -0.4205
   46CHL1   C24 3392   0.534   5.761   8.150 -0.3599  0.0006 -0.1853
   46CHL1  H24A 3393   0.575   5.662   8.123  1.4226  0.1262  1.7583
   46CHL1  H24B 3394   0.627   5.822   8.153 -0.7161  0.5469  0.0723
   46CHL1   C25 3395   0.468   5.753   8.290  0.5360  0.6056 -0.0109
   46CHL1   H25 3396   0.370   5.706   8.268  0.9183  0.4772 -1.5899
   46CHL1   C26 3397   0.541   5.669   8.391 -1.2856 -0.1312 -0.9376
   46CHL1  H26A 3398   0.623   5.718   8.446 -1.0567  1.2742 -2.4559
   46CHL1  H26B 3399   0.479   5.637   8.477  3.3802 -1.9478  2.1169
   46CHL1  H26C 3400   0.575   5.571   8.351  0.3259 -0.2389  0.6230
   46CHL1   C27 3401   0.439   5.890   8.354  0.8910  0.8372 -0.3611
   46CHL1  H27A 3402   0.350   5.889   8.421 -0.1723 -1.9102 -1.6677
   46CHL1  H27B 3403   0.529   5.916   8.414  0.6855 -1.1773  0.9230
   46CHL1  H27C 3404   0.418   5.966   8.275  0.2474  1.1872  0.1406
   47CHL1    C3 3405   4.492   6.116   6.615  1.0425 -0.0273 -0.5271
   47CHL1    H3 3406   4.448   6.016   6.635  2.1240 -0.3457  0.3419
   47CHL1    O3 3407   4.481   6.161   6.480 -0.2264  0.5842  0.1313
   47CHL1   H3' 3408   4.547   6.230   6.470 -0.0377  0.5192  0.8872
   47CHL1    C4 3409   4.426   6.220   6.701  0.6285 -0.3639 -0.1660
   47CHL1   H4A 3410   4.454   6.319   6.659  1.6083 -1.2827 -1.8159
   47CHL1   H4B 3411   4.317   6.216   6.680  0.7190  0.1569 -0.7559
   47CHL1    C5 3412   4.452   6.218   6.850  1.4503 -0.5463 -0.1500
   47CHL1    C6 3413   4.346   6.198   6.929  0.0482  0.4037 -0.5506
   47CHL1    H6 3414   4.243   6.196   6.889 -0.1509 -0.7066 -0.0281
   47CHL1    C7 3415   4.353   6.162   7.083 -0.4924 -0.8101 -0.1972
   47CHL1   H7A 3416   4.281   6.212   7.152  2.1560 -1.4271  3.2451
   47CHL1   H7B 3417   4.336   6.053   7.078 -0.3756 -0.8215 -0.3375
   47CHL1    C8 3418   4.500   6.190   7.139 -0.1263  0.3348 -0.2532
   47CHL1    H8 3419   4.508   6.301   7.146 -3.6599  0.5835  3.2947
   47CHL1   C14 3420   4.515   6.123   7.276 -0.5151 -0.1141 -0.3851
   47CHL1   H14 3421   4.493   6.015   7.264  0.6537 -0.8935  3.4311
   47CHL1   C15 3422   4.419   6.177   7.387 -0.8814  0.3167  0.5358
   47CHL1  H15A 3423   4.433   6.287   7.394  1.4507  0.0242  1.3028
   47CHL1  H15B 3424   4.310   6.156   7.376 -1.2606  1.2238  2.1613
   47CHL1   C16 3425   4.485   6.119   7.513  0.2420 -0.0833 -0.0984
   47CHL1  H16A 3426   4.479   6.205   7.583  1.1888  0.7813 -1.0305
   47CHL1  H16B 3427   4.420   6.045   7.564  1.0407 -0.9667 -0.3113
   47CHL1   C17 3428   4.626   6.059   7.469  0.7246 -0.5841  0.4042
   47CHL1   H17 3429   4.620   5.948   7.461 -3.0160 -0.7782  2.9533
   47CHL1   C13 3430   4.655   6.131   7.334  0.5954  0.3635  0.7505
   47CHL1   C18 3431   4.689   6.278   7.359 -0.0860  0.0869  0.3983
   47CHL1  H18A 3432   4.626   6.330   7.434  0.5399 -0.2726  1.1867
   47CHL1  H18B 3433   4.795   6.288   7.392 -0.0071 -1.4301  0.7055
   47CHL1  H18C 3434   4.675   6.341   7.269 -1.5948 -1.5755 -0.6058
   47CHL1   C12 3435   4.748   6.060   7.232 -0.2553 -0.3169 -0.0712
   47CHL1  H12A 3436   4.855   6.074   7.259 -0.2241  0.9453 -0.8018
   47CHL1  H12B 3437   4.731   5.950   7.240 -1.4445 -0.0844  0.9769
   47CHL1   C11 3438   4.740   6.119   7.084 -0.3220  0.5776 -0.2614
   47CHL1  H11A 3439   4.788   6.219   7.096  0.7742  0.2131 -1.3442
   47CHL1  H11B 3440   4.815   6.065   7.022 -1.0356 -0.8867  0.1204
   47CHL1    C9 3441   4.600   6.130   7.032  0.6809 -0.0295  0.0120
   47CHL1    H9 3442   4.559   6.028   7.013 -0.8410  0.8202 -1.3963
   47CHL1   C10 3443   4.592   6.190   6.894  0.1183 -1.0988  1.3390
   47CHL1   C19 3444   4.662   6.325   6.886 -0.7151  0.0461  0.2174
   47CHL1  H19A 3445   4.771   6.304   6.893 -0.9601 -1.7152 -0.7011
   47CHL1  H19B 3446   4.653   6.371   6.786  4.6084 -1.1109 -1.0970
   47CHL1  H19C 3447   4.629   6.403   6.957 -0.1837  0.1286  0.3789
   47CHL1    C1 3448   4.656   6.088   6.792  0.0066  0.2640 -0.0221
   47CHL1   H1A 3449   4.764   6.073   6.813 -0.2635 -1.8777  0.0781
   47CHL1   H1B 3450   4.616   5.986   6.813  1.8270 -1.2688 -3.2404
   47CHL1    C2 3451   4.637   6.111   6.647 -0.2957 -0.0374 -0.0946
   47CHL1   H2A 3452   4.702   6.048   6.582 -2.6993 -1.5686 -1.1140
   47CHL1   H2B 3453   4.682   6.212   6.633  1.6026 -0.8923 -0.5244
   47CHL1   C20 3454   4.731   6.079   7.580 -0.5219  0.5147  0.0101
   47CHL1   H20 3455   4.767   6.183   7.597  0.1742  0.4862 -1.2561
   47CHL1   C21 3456   4.866   6.004   7.541 -0.6796 -0.0692  0.1524
   47CHL1  H21A 3457   4.917   6.049   7.453  0.4521  0.9101  1.2827
   47CHL1  H21B 3458   4.842   5.904   7.498  0.0678  0.5059 -1.6979
   47CHL1  H21C 3459   4.939   5.997   7.624 -0.3053 -0.5456 -0.2080
   47CHL1   C22 3460   4.672   6.022   7.713 -0.2082 -0.2282  0.1860
   47CHL1  H22A 3461   4.582   6.079   7.745 -1.0298 -0.7754 -1.0498
   47CHL1  H22B 3462   4.636   5.919   7.693  0.3057 -0.3778  0.0165
   47CHL1   C23 3463   4.771   6.021   7.832  0.1248 -0.8013 -0.5358
   47CHL1  H23A 3464   4.857   5.954   7.814  1.6199  0.5704  1.0274
   47CHL1  H23B 3465   4.807   6.126   7.842 -0.9583 -0.3171 -1.4471
   47CHL1   C24 3466   4.711   5.954   7.963  0.2819  0.4255  0.6942
   47CHL1  H24A 3467   4.614   6.005   7.978 -0.3085 -0.6656  0.6445
   47CHL1  H24B 3468   4.683   5.850   7.936 -1.5623  0.9449  0.4796
   47CHL1   C25 3469   4.792   5.952   8.089  0.5495  0.5988  0.5503
   47CHL1   H25 3470   4.727   5.903   8.165 -1.2151  0.5565 -0.9108
   47CHL1   C26 3471   4.933   5.887   8.082  0.0246  0.0485  0.2261
   47CHL1  H26A 3472   5.002   5.959   8.034 -0.0615 -0.0278 -0.0133
   47CHL1  H26B 3473   4.955   5.886   8.191 -3.6088 -1.0340  1.1019
   47CHL1  H26C 3474   4.933   5.788   8.032 -1.9856  1.5020 -2.9898
   47CHL1   C27 3475   4.823   6.089   8.152 -0.2839  0.0939 -0.4493
   47CHL1  H27A 3476   4.902   6.069   8.228 -0.7371 -2.0123 -0.4554
   47CHL1  H27B 3477   4.853   6.164   8.077  0.2163 -1.6476 -2.0671
   47CHL1  H27C 3478   4.726   6.111   8.201  0.4609 -0.8679  1.5940
   48CHL1    C3 3479   2.834   1.479   6.691  0.6662  0.5523 -0.6044
   48CHL1    H3 3480   2.835   1.368   6.697  0.3768  0.6337  2.4837
   48CHL1    O3 3481   2.814   1.536   6.565 -0.1115  0.5775  0.8681
   48CHL1   H3' 3482   2.901   1.559   6.533  0.5808 -1.8728  0.7405
   48CHL1    C4 3483   2.713   1.524   6.781  0.5326 -0.1843  0.0431
   48CHL1   H4A 3484   2.711   1.635   6.773 -0.6783 -0.0152  2.0527
   48CHL1   H4B 3485   2.615   1.484   6.748  0.3194  1.2084 -1.1167
   48CHL1    C5 3486   2.727   1.491   6.934  0.2379 -0.4864 -0.2281
   48CHL1    C6 3487   2.636   1.407   6.995  0.3712 -0.4879  1.0227
   48CHL1    H6 3488   2.548   1.374   6.938 -0.4000  0.4210  1.6559
   48CHL1    C7 3489   2.651   1.357   7.137  0.0585 -0.1961  0.2436
   48CHL1   H7A 3490   2.549   1.363   7.183 -0.0712  0.4224 -0.1017
   48CHL1   H7B 3491   2.684   1.252   7.151  1.8987  0.3837  0.4992
   48CHL1    C8 3492   2.753   1.452   7.220  0.2456 -0.0059 -0.4742
   48CHL1    H8 3493   2.703   1.551   7.227  1.3230  0.5099  0.2727
   48CHL1   C14 3494   2.791   1.391   7.348 -0.3387 -0.1279  1.0342
   48CHL1   H14 3495   2.838   1.298   7.311 -3.2688 -1.6290  0.8049
   48CHL1   C15 3496   2.680   1.341   7.442 -0.2421  0.3799 -0.2473
   48CHL1  H15A 3497   2.597   1.413   7.460  1.2716  1.7749  1.6536
   48CHL1  H15B 3498   2.647   1.242   7.405  1.5373  0.0114 -0.9095
   48CHL1   C16 3499   2.744   1.326   7.577  0.0368 -1.0301  0.1542
   48CHL1  H16A 3500   2.691   1.404   7.635 -0.9760 -0.6624 -1.2086
   48CHL1  H16B 3501   2.744   1.225   7.623  1.0949 -0.4307  1.5377
   48CHL1   C17 3502   2.891   1.374   7.561 -0.0849  0.1835  0.4579
   48CHL1   H17 3503   2.944   1.279   7.534  1.4498  0.7829  1.2245
   48CHL1   C13 3504   2.888   1.470   7.440  0.1484  0.4088 -0.0082
   48CHL1   C18 3505   2.821   1.608   7.481 -0.2286 -0.1882 -0.4353
   48CHL1  H18A 3506   2.894   1.673   7.532 -0.9962 -1.1243  1.9849
   48CHL1  H18B 3507   2.784   1.657   7.388 -0.8265 -0.2705 -0.2465
   48CHL1  H18C 3508   2.733   1.590   7.546 -0.2412 -1.2505 -0.7271
   48CHL1   C12 3509   3.016   1.483   7.365  0.5603  0.6177 -0.3429
   48CHL1  H12A 3510   3.087   1.544   7.425 -0.2295  1.4646 -0.2546
   48CHL1  H12B 3511   3.053   1.379   7.367  0.7308  0.6803 -0.2494
   48CHL1   C11 3512   2.993   1.544   7.224  0.0737 -0.1616  0.3247
   48CHL1  H11A 3513   2.969   1.652   7.239 -3.7497 -0.9025  0.6022
   48CHL1  H11B 3514   3.090   1.545   7.171 -0.7229 -2.7239 -1.3403
   48CHL1    C9 3515   2.880   1.479   7.143 -0.7195  0.7531 -0.5227
   48CHL1    H9 3516   2.918   1.376   7.127 -3.0860 -0.5693  1.6057
   48CHL1   C10 3517   2.862   1.540   7.003  0.7423  0.4798  0.0377
   48CHL1   C19 3518   2.849   1.691   7.009  0.1098 -0.5361 -0.2128
   48CHL1  H19A 3519   2.765   1.726   7.072 -1.5560 -1.0932 -2.0089
   48CHL1  H19B 3520   2.945   1.738   7.037 -0.3877 -0.2965  1.1374
   48CHL1  H19C 3521   2.832   1.730   6.906  0.7530  0.4859  0.0570
   48CHL1    C1 3522   2.974   1.502   6.910 -0.0716  0.3617  0.2649
   48CHL1   H1A 3523   3.077   1.542   6.920  0.6750 -1.1225 -0.9778
   48CHL1   H1B 3524   2.989   1.392   6.902  0.8260  0.4430  0.6918
   48CHL1    C2 3525   2.961   1.543   6.758  0.4463 -0.0854  0.7100
   48CHL1   H2A 3526   3.049   1.505   6.702 -0.4946 -0.2961 -0.6832
   48CHL1   H2B 3527   2.954   1.652   6.740 -2.9377 -0.2461  0.3600
   48CHL1   C20 3528   2.963   1.432   7.685  0.3251  0.0101  0.0938
   48CHL1   H20 3529   2.963   1.543   7.688 -0.8492  0.0579 -1.0666
   48CHL1   C21 3530   3.113   1.391   7.678  0.4723 -0.1819 -0.1617
   48CHL1  H21A 3531   3.114   1.286   7.714 -1.2544  0.5830  2.4187
   48CHL1  H21B 3532   3.177   1.451   7.746  2.2511  0.8644 -2.6168
   48CHL1  H21C 3533   3.153   1.388   7.574 -1.2095 -0.5366 -0.8404
   48CHL1   C22 3534   2.897   1.375   7.811 -0.1776 -0.6651  0.6284
   48CHL1  H22A 3535   2.796   1.421   7.822  0.2148  0.9449 -1.7048
   48CHL1  H22B 3536   2.891   1.266   7.792  1.9937 -0.3687 -2.5189
   48CHL1   C23 3537   2.976   1.411   7.946 -0.3166  0.0919  0.6880
   48CHL1  H23A 3538   3.071   1.356   7.960  1.1428  2.1605 -0.3722
   48CHL1  H23B 3539   3.011   1.513   7.917  2.1040 -1.1724 -1.2943
   48CHL1   C24 3540   2.885   1.405   8.071 -1.0902  0.3189  0.2320
   48CHL1  H24A 3541   2.799   1.475   8.067 -0.9305  0.5495  0.7235
   48CHL1  H24B 3542   2.845   1.302   8.061 -0.7004  0.3795 -2.9043
   48CHL1   C25 3543   2.948   1.422   8.214  0.0346 -1.4938 -0.5020
   48CHL1   H25 3544   2.864   1.397   8.283  2.4068 -0.4286  3.0184
   48CHL1   C26 3545   3.060   1.327   8.249 -0.3103  0.1146  0.2533
   48CHL1  H26A 3546   3.150   1.352   8.189  1.0871  1.1066  2.6326
   48CHL1  H26B 3547   3.097   1.325   8.353 -1.0571 -0.4540  0.5170
   48CHL1  H26C 3548   3.037   1.230   8.199 -1.0146  0.9385 -1.1101
   48CHL1   C27 3549   2.983   1.565   8.213 -0.3467  0.5015 -0.0752
   48CHL1  H27A 3550   3.068   1.582   8.144 -1.3449  0.6632 -1.2967
   48CHL1  H27B 3551   2.901   1.637   8.194 -1.3494  0.3430  3.0498
   48CHL1  H27C 3552   3.022   1.595   8.313  2.5940 -1.3188 -0.5520
   49CHL1    C3 3553   0.206   2.627   6.633  0.8869 -0.5803 -0.4800
   49CHL1    H3 3554   0.098   2.608   6.645  0.8639  0.1573  0.5366
   49CHL1    O3 3555   0.234   2.651   6.494  0.0589 -0.4662 -0.5392
   49CHL1   H3' 3556   0.330   2.659   6.492 -0.0630  1.1176 -2.1341
   49CHL1    C4 3557   0.251   2.753   6.717 -0.4221  0.0625 -0.2220
   49CHL1   H4A 3558   0.359   2.769   6.697  0.0984 -1.1530  1.3961
   49CHL1   H4B 3559   0.198   2.845   6.684  0.8320  0.7709 -0.2882
   49CHL1    C5 3560   0.233   2.717   6.870  0.7236  0.2900  0.1584
   49CHL1    C6 3561   0.154   2.792   6.951 -0.0879  0.1996 -0.1267
   49CHL1    H6 3562   0.101   2.879   6.910 -1.2895  0.1496  1.2591
   49CHL1    C7 3563   0.128   2.768   7.099 -0.7730  0.8484  0.1571
   49CHL1   H7A 3564   0.120   2.862   7.157  0.3570  0.0718  1.6547
   49CHL1   H7B 3565   0.028   2.719   7.104 -1.3985  2.2127  2.5026
   49CHL1    C8 3566   0.225   2.662   7.163  0.3175  0.7790  0.1606
   49CHL1    H8 3567   0.324   2.709   7.179  1.3070 -0.9873 -0.4990
   49CHL1   C14 3568   0.174   2.620   7.295  0.1718  0.1831  0.0001
   49CHL1   H14 3569   0.070   2.583   7.280  0.8359 -1.0931 -1.7614
   49CHL1   C15 3570   0.148   2.730   7.395 -0.0856 -0.6581 -0.6471
   49CHL1  H15A 3571   0.227   2.808   7.382  0.5794 -1.4527 -1.5366
   49CHL1  H15B 3572   0.045   2.768   7.381 -0.2504 -0.2777  1.2610
   49CHL1   C16 3573   0.135   2.661   7.533  0.3746  0.1868  0.9555
   49CHL1  H16A 3574   0.187   2.717   7.613  1.7492 -0.3681  0.4931
   49CHL1  H16B 3575   0.030   2.658   7.568  0.0557  1.6531  0.2017
   49CHL1   C17 3576   0.192   2.516   7.502  0.1884  0.5241  0.2993
   49CHL1   H17 3577   0.104   2.453   7.480  0.8822 -0.6280  0.7192
   49CHL1   C13 3578   0.266   2.516   7.366  0.3974  0.2621  0.2796
   49CHL1   C18 3579   0.405   2.581   7.385  0.1469 -0.8170 -0.2495
   49CHL1  H18A 3580   0.393   2.670   7.451  1.3037 -1.0146  0.2409
   49CHL1  H18B 3581   0.473   2.533   7.458 -0.6201  0.4197  1.3495
   49CHL1  H18C 3582   0.460   2.614   7.295  0.5904 -0.5215  0.1230
   49CHL1   C12 3583   0.266   2.389   7.271 -0.0045  0.3140 -0.3479
   49CHL1  H12A 3584   0.327   2.318   7.331 -0.9154  0.7890  1.1797
   49CHL1  H12B 3585   0.165   2.343   7.267 -0.1930  0.6165  0.6652
   49CHL1   C11 3586   0.319   2.424   7.130 -0.4951 -0.2883  0.9266
   49CHL1  H11A 3587   0.428   2.445   7.130 -0.8751  1.9587  0.7604
   49CHL1  H11B 3588   0.310   2.338   7.060  0.6731 -1.9969  2.7484
   49CHL1    C9 3589   0.245   2.546   7.067 -0.5759 -0.2591 -0.6588
   49CHL1    H9 3590   0.143   2.511   7.042 -1.0662  1.3523 -1.0051
   49CHL1   C10 3591   0.307   2.594   6.921  0.5409  0.7454  0.4369
   49CHL1   C19 3592   0.456   2.632   6.921 -0.1064  0.0361  0.5211
   49CHL1  H19A 3593   0.478   2.722   6.982  3.7778  0.2888 -1.0275
   49CHL1  H19B 3594   0.514   2.545   6.959 -1.5499 -1.0823  0.2771
   49CHL1  H19C 3595   0.498   2.666   6.824  0.2001  1.8429  1.2578
   49CHL1    C1 3596   0.282   2.469   6.823 -0.3078  1.1187  0.3166
   49CHL1   H1A 3597   0.355   2.388   6.839 -1.0706 -0.1820 -2.3294
   49CHL1   H1B 3598   0.185   2.417   6.843  0.0762  1.1428  2.5766
   49CHL1    C2 3599   0.295   2.501   6.673 -0.3994 -0.6084 -0.0425
   49CHL1   H2A 3600   0.257   2.414   6.615 -0.7139  0.1543 -1.0180
   49CHL1   H2B 3601   0.398   2.525   6.640  0.8941 -1.5723  3.0010
   49CHL1   C20 3602   0.247   2.449   7.628 -0.1072 -0.6503  0.7520
   49CHL1   H20 3603   0.327   2.515   7.667  1.6174 -2.0712 -0.2128
   49CHL1   C21 3604   0.308   2.314   7.596 -0.0580 -0.6991  0.0435
   49CHL1  H21A 3605   0.372   2.268   7.674 -1.0453 -0.3215  1.1070
   49CHL1  H21B 3606   0.381   2.320   7.513  1.6393  0.1873  1.5139
   49CHL1  H21C 3607   0.227   2.242   7.570  0.2278 -1.2351  0.5931
   49CHL1   C22 3608   0.142   2.432   7.744  0.0201  0.2231 -0.3567
   49CHL1  H22A 3609   0.094   2.529   7.770 -0.4048  0.6381 -2.4372
   49CHL1  H22B 3610   0.055   2.366   7.720 -0.9299 -0.3282  3.8690
   49CHL1   C23 3611   0.186   2.355   7.870  0.5857 -0.0245  0.1761
   49CHL1  H23A 3612   0.092   2.336   7.926  0.4572  1.7872  0.6290
   49CHL1  H23B 3613   0.232   2.257   7.843  2.5130  0.8112  0.2796
   49CHL1   C24 3614   0.284   2.442   7.946 -0.0744 -0.1875 -0.3879
   49CHL1  H24A 3615   0.371   2.467   7.882  1.5159 -1.7981  1.0349
   49CHL1  H24B 3616   0.232   2.538   7.968  0.9380  0.7541 -1.9281
   49CHL1   C25 3617   0.335   2.380   8.075  0.4506 -0.2778  0.0554
   49CHL1   H25 3618   0.247   2.339   8.129  1.3089 -1.0059  0.9377
   49CHL1   C26 3619   0.423   2.262   8.054  0.1173  1.0576  0.0376
   49CHL1  H26A 3620   0.504   2.274   7.979  2.1117 -0.4551  1.8178
   49CHL1  H26B 3621   0.457   2.232   8.156 -0.6390  0.8903  0.2520
   49CHL1  H26C 3622   0.368   2.172   8.018  2.4598 -0.5737  0.2790
   49CHL1   C27 3623   0.405   2.487   8.157  0.7528  0.2692 -0.0462
   49CHL1  H27A 3624   0.507   2.508   8.116  0.3919  0.2130 -0.9942
   49CHL1  H27B 3625   0.348   2.583   8.160  3.8472  2.3701 -1.7965
   49CHL1  H27C 3626   0.401   2.437   8.256 -1.7595  1.1240  0.3496
   50CHL1    C3 3627   1.673   5.038   6.905 -0.0567  0.0049  0.1619
   50CHL1    H3 3628   1.577   4.985   6.925  0.1396 -0.3343  0.2070
   50CHL1    O3 3629   1.667   5.076   6.763  0.4418  0.1309  0.0143
   50CHL1   H3' 3630   1.758   5.104   6.755  0.8444 -1.3079 -0.7185
   50CHL1    C4 3631   1.691   5.167   6.989  0.2944 -0.0694  0.7324
   50CHL1   H4A 3632   1.782   5.221   6.954 -1.1585  2.1791  0.2274
   50CHL1   H4B 3633   1.604   5.228   6.959  0.7940  0.3879  0.1843
   50CHL1    C5 3634   1.698   5.123   7.133 -0.5291 -0.8532 -1.1714
   50CHL1    C6 3635   1.618   5.189   7.223 -0.3360  0.1889  0.2090
   50CHL1    H6 3636   1.550   5.271   7.194 -0.7825  0.4569  1.8676
   50CHL1    C7 3637   1.613   5.164   7.365 -0.0623 -0.0469 -0.5482
   50CHL1   H7A 3638   1.627   5.259   7.420  0.7243 -1.0948  1.1099
   50CHL1   H7B 3639   1.518   5.113   7.392  0.2080  0.0120  0.5489
   50CHL1    C8 3640   1.729   5.074   7.419 -0.3797  0.1339 -0.2165
   50CHL1    H8 3641   1.826   5.127   7.428 -1.9507  2.8809  2.5505
   50CHL1   C14 3642   1.696   5.023   7.559  1.0307 -0.5591  0.1506
   50CHL1   H14 3643   1.595   4.980   7.544 -0.4545  2.2475  1.2580
   50CHL1   C15 3644   1.660   5.123   7.673 -0.4440  0.6809  0.4618
   50CHL1  H15A 3645   1.740   5.199   7.686  0.9616 -0.6687  0.0447
   50CHL1  H15B 3646   1.574   5.185   7.638  0.5947  2.0180  0.1662
   50CHL1   C16 3647   1.668   5.033   7.800 -0.6162  0.0248 -0.5716
   50CHL1  H16A 3648   1.724   5.082   7.883  0.3041 -0.5026 -0.8638
   50CHL1  H16B 3649   1.564   5.025   7.840 -0.1674 -1.9778  0.3215
   50CHL1   C17 3650   1.727   4.895   7.757  0.2891 -0.0029 -0.5216
   50CHL1   H17 3651   1.643   4.827   7.730 -0.4752  0.3600  0.8783
   50CHL1   C13 3652   1.796   4.918   7.618  0.5697 -0.2394  0.3407
   50CHL1   C18 3653   1.941   4.975   7.637  0.1389 -0.3407  0.5098
   50CHL1  H18A 3654   2.005   4.894   7.679 -0.4999 -0.9014  0.4206
   50CHL1  H18B 3655   1.999   5.015   7.551 -0.5338  2.5446  1.2990
   50CHL1  H18C 3656   1.938   5.061   7.708  1.3753 -0.8102  1.1738
   50CHL1   C12 3657   1.791   4.793   7.515  0.3626  0.0695  0.7532
   50CHL1  H12A 3658   1.859   4.712   7.549  0.6709  0.1645  0.3786
   50CHL1  H12B 3659   1.687   4.757   7.514  0.9719 -1.8166  1.6761
   50CHL1   C11 3660   1.827   4.838   7.375 -0.0603  0.4190  0.3111
   50CHL1  H11A 3661   1.936   4.856   7.366  0.0349 -0.1397  0.2897
   50CHL1  H11B 3662   1.809   4.752   7.306  0.0160  1.7955 -1.5096
   50CHL1    C9 3663   1.748   4.956   7.318 -0.2815  0.0379 -0.5944
   50CHL1    H9 3664   1.647   4.916   7.294 -0.1611  0.0466 -1.1439
   50CHL1   C10 3665   1.791   5.000   7.176  0.2863 -0.5123 -0.2036
   50CHL1   C19 3666   1.937   5.051   7.178 -0.2307 -0.3537  0.2564
   50CHL1  H19A 3667   1.964   5.087   7.076 -0.5228  1.0234  0.6423
   50CHL1  H19B 3668   1.965   5.124   7.257 -0.0610  0.9334 -0.9507
   50CHL1  H19C 3669   2.004   4.965   7.199  1.7975  1.5397  1.9906
   50CHL1    C1 3670   1.763   4.883   7.075 -0.2935 -0.4618 -0.2344
   50CHL1   H1A 3671   1.832   4.800   7.102 -0.6065 -0.5177  0.4021
   50CHL1   H1B 3672   1.657   4.854   7.087 -1.0926  2.3194  0.1139
   50CHL1    C2 3673   1.781   4.932   6.933 -0.4313 -0.5761 -0.8100
   50CHL1   H2A 3674   1.754   4.844   6.871 -0.8693 -1.0832  0.0752
   50CHL1   H2B 3675   1.881   4.976   6.913 -1.3247  1.6984 -0.5807
   50CHL1   C20 3676   1.805   4.824   7.871  0.9945  0.1152  0.5071
   50CHL1   H20 3677   1.884   4.897   7.898  0.5743  1.1620 -0.9958
   50CHL1   C21 3678   1.864   4.693   7.814 -0.2731 -0.4229 -0.0337
   50CHL1  H21A 3679   1.937   4.714   7.733 -0.5258  1.2662  0.1470
   50CHL1  H21B 3680   1.788   4.622   7.774 -0.4676 -0.5032  0.4727
   50CHL1  H21C 3681   1.923   4.640   7.891  1.7884  0.7136 -0.7467
   50CHL1   C22 3682   1.702   4.809   7.987  0.0518  0.6701  0.6676
   50CHL1  H22A 3683   1.664   4.908   8.021 -0.1533 -0.0481  2.6575
   50CHL1  H22B 3684   1.614   4.748   7.956 -0.1563  2.0002 -1.5963
   50CHL1   C23 3685   1.770   4.753   8.114 -0.1449 -0.1360  0.6795
   50CHL1  H23A 3686   1.798   4.650   8.083  1.7433  0.7127 -0.6680
   50CHL1  H23B 3687   1.866   4.806   8.133 -0.6306 -0.2046  3.8269
   50CHL1   C24 3688   1.684   4.738   8.242 -0.2460 -0.1778 -0.0200
   50CHL1  H24A 3689   1.621   4.829   8.243 -1.0354 -0.6250 -2.5224
   50CHL1  H24B 3690   1.622   4.648   8.227 -0.5633  0.2128 -1.1667
   50CHL1   C25 3691   1.741   4.725   8.389  0.0999 -0.3351 -0.6085
   50CHL1   H25 3692   1.787   4.825   8.409  0.9058 -0.4159 -1.9207
   50CHL1   C26 3693   1.629   4.699   8.488 -0.7343 -0.1151  0.4387
   50CHL1  H26A 3694   1.540   4.762   8.466 -1.3247 -0.1838  2.4091
   50CHL1  H26B 3695   1.609   4.589   8.490  0.1669 -0.3337  3.9561
   50CHL1  H26C 3696   1.662   4.719   8.592 -1.0229  2.5810  0.0739
   50CHL1   C27 3697   1.851   4.618   8.390  0.1866 -0.0381  0.8795
   50CHL1  H27A 3698   1.936   4.650   8.326 -1.8570 -1.0073 -2.5871
   50CHL1  H27B 3699   1.884   4.615   8.496 -1.6357  1.1327  1.5229
   50CHL1  H27C 3700   1.817   4.517   8.361  1.9317 -0.4213  0.0669
   51CHL1    C3 3701   1.241   2.397   6.772 -0.5245 -0.2357 -0.8628
   51CHL1    H3 3702   1.132   2.404   6.794 -0.2116  2.0499  0.1733
   51CHL1    O3 3703   1.256   2.353   6.645  0.0593 -0.0094 -0.0653
   51CHL1   H3' 3704   1.255   2.439   6.601 -1.4303 -0.7374 -1.6026
   51CHL1    C4 3705   1.312   2.528   6.805  0.3908 -0.8414 -0.3234
   51CHL1   H4A 3706   1.416   2.501   6.777  0.8026 -0.4175  0.7386
   51CHL1   H4B 3707   1.268   2.601   6.734 -0.0081 -0.4828  0.2827
   51CHL1    C5 3708   1.292   2.566   6.949 -0.7424  0.3875  0.3172
   51CHL1    C6 3709   1.231   2.682   6.980 -0.2251 -0.1571 -0.1782
   51CHL1    H6 3710   1.211   2.750   6.896  3.7519  3.2412  1.2788
   51CHL1    C7 3711   1.221   2.741   7.120  0.3700 -0.8170 -0.1498
   51CHL1   H7A 3712   1.247   2.849   7.127 -0.6754 -0.3127 -2.7019
   51CHL1   H7B 3713   1.119   2.731   7.163  0.2539 -0.1030 -0.2408
   51CHL1    C8 3714   1.321   2.659   7.212  0.3918 -0.4464 -0.2289
   51CHL1    H8 3715   1.422   2.687   7.174 -0.1139  0.2401 -1.1153
   51CHL1   C14 3716   1.300   2.707   7.356 -0.4397  1.0493 -0.0974
   51CHL1   H14 3717   1.194   2.687   7.381 -0.4435  1.3563  0.1382
   51CHL1   C15 3718   1.324   2.857   7.387  0.3984 -0.3679 -0.3805
   51CHL1  H15A 3719   1.414   2.896   7.335 -0.4257 -0.4278 -1.9242
   51CHL1  H15B 3720   1.230   2.913   7.365  0.4819  0.3764  1.0408
   51CHL1   C16 3721   1.347   2.856   7.541  0.6463  0.2729  0.4163
   51CHL1  H16A 3722   1.447   2.897   7.563  0.6870  1.1413 -1.2154
   51CHL1  H16B 3723   1.268   2.919   7.585 -0.4582  0.2782 -1.4361
   51CHL1   C17 3724   1.337   2.708   7.590  0.1105 -0.2035  0.1219
   51CHL1   H17 3725   1.230   2.690   7.611 -0.5875 -1.6001 -3.8250
   51CHL1   C13 3726   1.375   2.619   7.467  0.3330 -0.1766  0.4040
   51CHL1   C18 3727   1.525   2.626   7.445  0.2244 -0.0266  0.0070
   51CHL1  H18A 3728   1.569   2.728   7.435  0.4367 -0.2308 -1.3708
   51CHL1  H18B 3729   1.581   2.590   7.534  0.4703  2.4994  0.9643
   51CHL1  H18C 3730   1.561   2.576   7.352 -0.4279  0.1868 -0.3673
   51CHL1   C12 3731   1.318   2.474   7.451 -0.1135 -0.2514 -0.1577
   51CHL1  H12A 3732   1.359   2.405   7.527  2.4053  0.2581 -0.9422
   51CHL1  H12B 3733   1.208   2.488   7.454  0.0119  1.7423 -1.9893
   51CHL1   C11 3734   1.345   2.419   7.312 -0.5205  1.5472 -0.5159
   51CHL1  H11A 3735   1.455   2.411   7.300 -0.0134  1.1585  3.3615
   51CHL1  H11B 3736   1.308   2.315   7.302  2.5711  0.1477  1.1962
   51CHL1    C9 3737   1.301   2.513   7.193  0.3402  0.4002 -0.1510
   51CHL1    H9 3738   1.190   2.499   7.199  0.5213 -2.2691 -1.4170
   51CHL1   C10 3739   1.352   2.464   7.051  1.1753  0.1261  0.0663
   51CHL1   C19 3740   1.512   2.469   7.046  1.1907 -0.7538  0.4054
   51CHL1  H19A 3741   1.548   2.417   6.955  1.2950  0.1701 -0.0983
   51CHL1  H19B 3742   1.557   2.570   7.048  0.6690 -0.4956 -0.4103
   51CHL1  H19C 3743   1.558   2.409   7.127 -1.1958 -2.8196  0.3642
   51CHL1    C1 3744   1.286   2.327   7.015 -0.5618  1.0859  0.3646
   51CHL1   H1A 3745   1.323   2.243   7.077  0.6307  0.8527 -0.6125
   51CHL1   H1B 3746   1.176   2.337   7.029 -0.6328 -0.1726  0.7875
   51CHL1    C2 3747   1.290   2.281   6.866  0.5111 -1.3287 -0.0647
   51CHL1   H2A 3748   1.215   2.200   6.847 -1.4180  0.3794 -0.0857
   51CHL1   H2B 3749   1.393   2.246   6.843  1.1355 -0.2618  1.0227
   51CHL1   C20 3750   1.420   2.689   7.725  0.2853  0.0168 -0.0136
   51CHL1   H20 3751   1.530   2.700   7.710  0.2854 -0.7812 -0.6549
   51CHL1   C21 3752   1.405   2.539   7.761 -0.6418 -0.5379 -0.0409
   51CHL1  H21A 3753   1.312   2.480   7.745 -0.4403 -1.1890  1.0458
   51CHL1  H21B 3754   1.436   2.521   7.866  0.0501  0.7855  0.0066
   51CHL1  H21C 3755   1.476   2.472   7.707  0.7761 -0.6182  1.7909
   51CHL1   C22 3756   1.355   2.792   7.827 -0.5060 -0.6764  0.5620
   51CHL1  H22A 3757   1.371   2.892   7.781 -0.0987 -0.8646  0.2895
   51CHL1  H22B 3758   1.248   2.768   7.845 -1.2949  0.4087 -2.1813
   51CHL1   C23 3759   1.435   2.795   7.960  0.0865 -0.8976  0.6977
   51CHL1  H23A 3760   1.419   2.695   8.006 -1.6136 -0.3966  1.2585
   51CHL1  H23B 3761   1.542   2.801   7.931  0.1763  0.2408  1.2354
   51CHL1   C24 3762   1.393   2.896   8.070 -0.2352 -0.9503  1.7507
   51CHL1  H24A 3763   1.378   2.997   8.027 -0.8202 -1.6227  0.3103
   51CHL1  H24B 3764   1.287   2.875   8.097 -0.2508  0.0371  2.5414
   51CHL1   C25 3765   1.483   2.904   8.197 -0.1334 -0.1986 -0.0927
   51CHL1   H25 3766   1.511   2.801   8.229  1.9359  0.3564  0.0747
   51CHL1   C26 3767   1.610   2.983   8.173  0.7818  0.8503 -0.3986
   51CHL1  H26A 3768   1.585   3.090   8.154 -0.9497  0.2752 -1.6277
   51CHL1  H26B 3769   1.682   2.969   8.256 -0.2477 -1.2541  0.2026
   51CHL1  H26C 3770   1.663   2.939   8.086 -0.0103 -0.3650 -0.2926
   51CHL1   C27 3771   1.402   2.957   8.317 -0.5431  0.1708  0.2768
   51CHL1  H27A 3772   1.337   3.041   8.283 -1.3791 -0.6497 -0.1838
   51CHL1  H27B 3773   1.342   2.876   8.363  0.0539 -0.5161 -0.1314
   51CHL1  H27C 3774   1.470   2.992   8.398  0.4103 -1.4499  0.2215
   52CHL1    C3 3775   4.040   2.947   6.865 -0.3582 -0.6802  0.2452
   52CHL1    H3 3776   4.000   2.852   6.908 -2.8993 -0.5132 -1.5202
   52CHL1    O3 3777   4.000   2.966   6.728  0.2297  0.0406 -0.7113
   52CHL1   H3' 3778   4.074   3.013   6.689  0.2381 -0.2648 -1.0702
   52CHL1    C4 3779   3.990   3.071   6.945  0.7021 -0.0882 -0.1630
   52CHL1   H4A 3780   4.030   3.160   6.891 -0.8173 -0.4309 -1.9791
   52CHL1   H4B 3781   3.879   3.080   6.932  0.4039 -2.6214  0.2041
   52CHL1    C5 3782   4.037   3.070   7.086  0.0136  0.8738 -0.6219
   52CHL1    C6 3783   3.954   3.071   7.191 -0.1057  0.1828  0.2401
   52CHL1    H6 3784   3.848   3.073   7.160 -0.3751 -1.7057  0.8865
   52CHL1    C7 3785   3.988   3.093   7.337 -0.7770 -0.3888  0.1526
   52CHL1   H7A 3786   3.929   3.176   7.383 -1.8895 -0.1247 -1.6329
   52CHL1   H7B 3787   3.959   3.002   7.394 -0.0147 -0.3810  0.5680
   52CHL1    C8 3788   4.141   3.129   7.353  0.7476 -0.4504  0.8697
   52CHL1    H8 3789   4.143   3.232   7.313 -2.3875 -2.0891 -4.6281
   52CHL1   C14 3790   4.181   3.111   7.497 -0.4663 -0.4713  0.3645
   52CHL1   H14 3791   4.143   3.009   7.520 -1.7969 -0.2511 -0.7115
   52CHL1   C15 3792   4.120   3.205   7.603 -0.5059 -0.7432 -0.8502
   52CHL1  H15A 3793   4.132   3.309   7.566  1.3066 -0.6445 -0.0901
   52CHL1  H15B 3794   4.014   3.178   7.622  0.0545 -1.5813  1.4222
   52CHL1   C16 3795   4.205   3.173   7.729 -0.3101  0.0630  0.1321
   52CHL1  H16A 3796   4.238   3.265   7.781  1.9152 -0.7483  0.2440
   52CHL1  H16B 3797   4.150   3.108   7.801  0.9357 -1.8698 -0.5793
   52CHL1   C17 3798   4.329   3.097   7.684  0.6505  0.1311 -0.4054
   52CHL1   H17 3799   4.317   2.989   7.706 -0.4951  0.6408  1.8041
   52CHL1   C13 3800   4.325   3.109   7.525 -0.3936  0.2555 -0.0638
   52CHL1   C18 3801   4.381   3.248   7.487 -0.0828  0.1187  0.1346
   52CHL1  H18A 3802   4.379   3.265   7.377  0.2089 -1.3636 -0.1130
   52CHL1  H18B 3803   4.323   3.330   7.536  1.6485  1.1627  0.5455
   52CHL1  H18C 3804   4.488   3.247   7.517 -0.0240 -0.8443 -0.0772
   52CHL1   C12 3805   4.396   3.000   7.444  0.7582  0.6649  0.2878
   52CHL1  H12A 3806   4.506   3.002   7.461  1.3409  2.4642 -2.9186
   52CHL1  H12B 3807   4.367   2.900   7.482  4.2617 -0.7436 -0.3564
   52CHL1   C11 3808   4.367   3.011   7.296 -0.0644  0.4351 -0.2634
   52CHL1  H11A 3809   4.427   3.095   7.255  1.4896 -1.4171 -1.9319
   52CHL1  H11B 3810   4.391   2.920   7.237  1.1071  0.8290 -0.4155
   52CHL1    C9 3811   4.211   3.025   7.260 -0.1349  0.1158 -0.3190
   52CHL1    H9 3812   4.172   2.924   7.283 -0.6057  0.3320 -0.1620
   52CHL1   C10 3813   4.188   3.050   7.108 -0.3796  0.1698  0.6507
   52CHL1   C19 3814   4.261   3.187   7.064 -0.3450 -0.1460  0.4898
   52CHL1  H19A 3815   4.371   3.177   7.071 -0.4251 -0.3035  1.8042
   52CHL1  H19B 3816   4.229   3.215   6.961 -0.8753 -1.1747  0.3593
   52CHL1  H19C 3817   4.232   3.267   7.135 -2.3101 -1.4447  1.2634
   52CHL1    C1 3818   4.250   2.943   7.024  0.1666  0.0313  0.4944
   52CHL1   H1A 3819   4.360   2.943   7.034  0.0114  1.9546  3.2103
   52CHL1   H1B 3820   4.225   2.846   7.072 -2.0808  0.1990 -0.1784
   52CHL1    C2 3821   4.190   2.930   6.875 -0.4750 -0.4804 -0.0369
   52CHL1   H2A 3822   4.216   2.830   6.835 -0.2875 -0.5860  0.3414
   52CHL1   H2B 3823   4.244   3.009   6.820 -0.8896 -0.8096 -0.9463
   52CHL1   C20 3824   4.454   3.142   7.766 -0.4735  0.3466  0.2519
   52CHL1   H20 3825   4.468   3.252   7.757  2.2835  0.2214  1.9439
   52CHL1   C21 3826   4.594   3.083   7.723  0.4105  0.5132  0.0888
   52CHL1  H21A 3827   4.614   3.099   7.615 -0.0421 -0.8113 -0.2210
   52CHL1  H21B 3828   4.593   2.975   7.750 -0.7020  0.9788  2.0525
   52CHL1  H21C 3829   4.682   3.116   7.782  2.0126 -2.9036 -0.1352
   52CHL1   C22 3830   4.436   3.126   7.917 -0.5584  0.4041 -0.4178
   52CHL1  H22A 3831   4.334   3.149   7.955 -0.6023 -1.5861  0.8097
   52CHL1  H22B 3832   4.458   3.019   7.940  0.6335  0.6000 -0.5948
   52CHL1   C23 3833   4.532   3.213   8.004 -0.5269 -0.5672 -0.1051
   52CHL1  H23A 3834   4.634   3.194   7.963 -1.1645 -1.1745 -1.4423
   52CHL1  H23B 3835   4.521   3.320   7.977 -0.4512 -0.6357 -0.4163
   52CHL1   C24 3836   4.515   3.193   8.155 -1.2433  0.2624 -0.4063
   52CHL1  H24A 3837   4.412   3.223   8.184 -0.1158  2.1544  2.0110
   52CHL1  H24B 3838   4.501   3.084   8.172  0.8286 -0.7442 -4.1510
   52CHL1   C25 3839   4.618   3.257   8.245 -0.1941 -0.0661  0.7139
   52CHL1   H25 3840   4.725   3.237   8.221  0.3795  4.2386 -1.1597
   52CHL1   C26 3841   4.609   3.415   8.236 -0.5747 -0.1564  0.2871
   52CHL1  H26A 3842   4.516   3.448   8.288 -1.6165 -1.6842 -0.5260
   52CHL1  H26B 3843   4.700   3.440   8.294  0.0365 -3.0555  0.7579
   52CHL1  H26C 3844   4.601   3.450   8.131 -0.5663 -2.1393 -0.4132
   52CHL1   C27 3845   4.589   3.202   8.379 -0.2049 -0.2360 -0.7451
   52CHL1  H27A 3846   4.663   3.246   8.449 -0.5304  0.8518 -1.0505
   52CHL1  H27B 3847   4.488   3.239   8.408  0.0937  0.4410 -0.5558
   52CHL1  H27C 3848   4.593   3.092   8.386  1.8252 -0.1190  0.7490
   53CHL1    C3 3849   2.146   6.095   6.977  0.8598  0.0768  0.6907
   53CHL1    H3 3850   2.236   6.145   6.937 -0.3560  2.1263  0.3550
   53CHL1    O3 3851   2.049   6.082   6.874  0.4019 -0.3637 -0.1166
   53CHL1   H3' 3852   2.013   6.171   6.873  3.3700  0.9562 -0.9427
   53CHL1    C4 3853   2.188   5.957   7.030  0.3582  0.4774  0.9861
   53CHL1   H4A 3854   2.097   5.893   7.031  0.7935 -0.1721  0.1156
   53CHL1   H4B 3855   2.252   5.917   6.948 -1.8574 -0.8430 -0.1986
   53CHL1    C5 3856   2.253   5.948   7.163  0.2135  0.3111  0.3276
   53CHL1    C6 3857   2.367   5.878   7.181 -0.2192  0.2983  0.7203
   53CHL1    H6 3858   2.408   5.822   7.096 -0.1117  1.5084 -0.0554
   53CHL1    C7 3859   2.442   5.866   7.314  0.0225  0.0141 -0.6893
   53CHL1   H7A 3860   2.471   5.762   7.340  2.3607  0.8753  0.4722
   53CHL1   H7B 3861   2.530   5.934   7.310 -2.1849  3.1288  0.0744
   53CHL1    C8 3862   2.352   5.918   7.430 -0.0668 -0.3527  0.0560
   53CHL1    H8 3863   2.275   5.844   7.459 -0.2992  1.2932  4.4702
   53CHL1   C14 3864   2.439   5.943   7.552 -0.1605 -0.3113 -0.5607
   53CHL1   H14 3865   2.508   6.023   7.518  1.2966 -1.3964 -0.2197
   53CHL1   C15 3866   2.538   5.828   7.594  0.2837 -0.5719 -0.0771
   53CHL1  H15A 3867   2.484   5.731   7.594 -0.5171 -0.3274  4.5076
   53CHL1  H15B 3868   2.625   5.830   7.525  0.5312  1.1643  0.2392
   53CHL1   C16 3869   2.585   5.869   7.731 -0.6083 -0.0553 -0.1751
   53CHL1  H16A 3870   2.578   5.791   7.809  1.0503  1.0688  1.1832
   53CHL1  H16B 3871   2.691   5.900   7.717  0.7631 -2.9172  2.6654
   53CHL1   C17 3872   2.500   5.999   7.770  0.0692  0.1879  0.3674
   53CHL1   H17 3873   2.558   6.087   7.733  0.1219  1.1633  2.5861
   53CHL1   C13 3874   2.375   6.000   7.679  0.0246 -0.4503  0.8680
   53CHL1   C18 3875   2.264   5.899   7.732  0.3574 -0.5572 -0.1413
   53CHL1  H18A 3876   2.199   5.880   7.644  0.2668 -2.3384  0.2864
   53CHL1  H18B 3877   2.312   5.801   7.751  0.1916 -0.5806  0.1505
   53CHL1  H18C 3878   2.211   5.925   7.826 -0.2680 -0.2081 -0.5845
   53CHL1   C12 3879   2.318   6.141   7.641  0.1798 -0.0634  0.0510
   53CHL1  H12A 3880   2.268   6.197   7.724  0.7226  3.6158 -1.8960
   53CHL1  H12B 3881   2.402   6.210   7.619  0.8926 -0.5009  1.3327
   53CHL1   C11 3882   2.222   6.121   7.520  0.0898 -0.6578 -0.3755
   53CHL1  H11A 3883   2.131   6.067   7.556  1.2415 -2.3625  0.1296
   53CHL1  H11B 3884   2.187   6.220   7.485 -1.0101 -0.5566  0.9215
   53CHL1    C9 3885   2.284   6.052   7.395 -0.3757  0.1868  0.4405
   53CHL1    H9 3886   2.366   6.116   7.357 -0.2878 -1.0770 -1.6347
   53CHL1   C10 3887   2.193   6.035   7.271 -0.2490 -0.0969 -0.7752
   53CHL1   C19 3888   2.063   5.961   7.315 -0.0412 -0.7621 -0.5667
   53CHL1  H19A 3889   1.994   5.955   7.228 -0.1343 -1.2062 -0.4615
   53CHL1  H19B 3890   2.075   5.858   7.354 -1.0103 -1.5538 -2.2259
   53CHL1  H19C 3891   2.015   6.017   7.398 -0.8484  0.3805 -1.7574
   53CHL1    C1 3892   2.174   6.177   7.215 -0.1222  0.4931  0.0781
   53CHL1   H1A 3893   2.124   6.235   7.295 -0.7815 -2.4799  1.9860
   53CHL1   H1B 3894   2.272   6.222   7.187 -0.7740  1.2868 -1.0291
   53CHL1    C2 3895   2.087   6.185   7.089  0.0361  0.2744  0.1280
   53CHL1   H2A 3896   2.086   6.290   7.053  0.1977  0.5328  0.8578
   53CHL1   H2B 3897   1.985   6.155   7.118  0.3997 -0.7949  0.3445
   53CHL1   C20 3898   2.482   6.005   7.924  0.5945 -0.0006 -0.5707
   53CHL1   H20 3899   2.454   5.904   7.963 -1.5692 -0.5040 -3.1695
   53CHL1   C21 3900   2.386   6.125   7.949  0.2715  0.1111 -0.0634
   53CHL1  H21A 3901   2.421   6.217   7.897  1.9168 -0.7299 -0.5251
   53CHL1  H21B 3902   2.371   6.140   8.058  0.8486  1.7295 -0.1926
   53CHL1  H21C 3903   2.285   6.099   7.909  1.2117 -1.0971 -1.7755
   53CHL1   C22 3904   2.608   6.027   7.994 -0.2562 -0.1617  0.2788
   53CHL1  H22A 3905   2.691   5.971   7.945  0.4798  0.7820  0.4183
   53CHL1  H22B 3906   2.633   6.135   7.987 -0.4206 -0.2188 -1.8515
   53CHL1   C23 3907   2.604   5.983   8.140 -0.4810  0.4734  0.2975
   53CHL1  H23A 3908   2.676   6.047   8.195  0.8026  1.9879 -2.9509
   53CHL1  H23B 3909   2.509   6.017   8.187  0.7470  2.4411  1.5085
   53CHL1   C24 3910   2.635   5.835   8.155 -0.0033 -0.0176 -0.0301
   53CHL1  H24A 3911   2.557   5.775   8.102 -1.0959  1.4010 -0.0767
   53CHL1  H24B 3912   2.738   5.816   8.118  0.5489  1.2238  0.8064
   53CHL1   C25 3913   2.640   5.786   8.298 -0.9574 -0.2237  0.0809
   53CHL1   H25 3914   2.699   5.857   8.360 -0.5701 -1.0210  0.6485
   53CHL1   C26 3915   2.495   5.773   8.355  0.1676 -0.2260 -0.0336
   53CHL1  H26A 3916   2.446   5.677   8.328 -0.6718  0.1012  0.3195
   53CHL1  H26B 3917   2.515   5.772   8.464  0.8576  1.0559 -0.1308
   53CHL1  H26C 3918   2.430   5.861   8.338 -0.5505 -0.4796  1.2859
   53CHL1   C27 3919   2.703   5.651   8.304  0.1927 -0.2848  0.1379
   53CHL1  H27A 3920   2.705   5.621   8.411 -2.6211 -0.6791  0.1762
   53CHL1  H27B 3921   2.635   5.584   8.248 -2.2073  0.3773  2.0686
   53CHL1  H27C 3922   2.803   5.653   8.257  0.2955  0.3727  0.3738
   54CHL1    C3 3923   5.352   2.947   6.992 -0.2642 -0.3693  0.0252
   54CHL1    H3 3924   5.289   2.859   6.966 -2.8356  1.5037 -0.5170
   54CHL1    O3 3925   5.388   3.015   6.874 -0.0668  0.1370 -0.0009
   54CHL1   H3' 3926   5.372   3.105   6.902  1.1938  0.2376  0.4334
   54CHL1    C4 3927   5.265   3.048   7.070  0.5968  0.0447  0.6327
   54CHL1   H4A 3928   5.311   3.149   7.076  0.1051  0.3233 -0.0623
   54CHL1   H4B 3929   5.182   3.069   6.999  1.0053  0.0371  0.1432
   54CHL1    C5 3930   5.213   2.991   7.201  0.3164 -0.3088  0.0812
   54CHL1    C6 3931   5.084   2.979   7.229  0.0700  0.4630 -0.3382
   54CHL1    H6 3932   5.005   3.010   7.158  0.6211 -1.2994 -1.8097
   54CHL1    C7 3933   5.034   2.934   7.365 -0.1616  0.5353  0.4885
   54CHL1   H7A 3934   4.963   3.015   7.395 -2.1484 -0.7237 -0.6154
   54CHL1   H7B 3935   4.978   2.840   7.348  0.3529  0.3418 -0.1562
   54CHL1    C8 3936   5.143   2.930   7.480 -0.4246  0.4255  0.3205
   54CHL1    H8 3937   5.165   3.033   7.517 -0.1806 -0.1090  1.7057
   54CHL1   C14 3938   5.095   2.850   7.605  0.3689 -0.0035  0.9313
   54CHL1   H14 3939   5.082   2.745   7.571 -1.2750 -0.1272  1.8610
   54CHL1   C15 3940   4.969   2.892   7.670  1.0246 -0.3354 -0.6921
   54CHL1  H15A 3941   4.980   3.002   7.673  0.3316 -0.2820  0.5067
   54CHL1  H15B 3942   4.874   2.865   7.619  0.0599  1.6430 -0.0642
   54CHL1   C16 3943   4.971   2.811   7.801 -0.2092 -0.2927  0.3362
   54CHL1  H16A 3944   4.943   2.871   7.890  2.6371  1.5758  0.0930
   54CHL1  H16B 3945   4.898   2.727   7.801 -0.2729 -0.3092 -2.2892
   54CHL1   C17 3946   5.122   2.767   7.824  0.3102 -0.2897  0.2259
   54CHL1   H17 3947   5.123   2.664   7.780  0.8297  0.8696 -2.7572
   54CHL1   C13 3948   5.201   2.843   7.710 -0.6546 -0.8030  0.1109
   54CHL1   C18 3949   5.243   2.991   7.766 -0.5443  0.5510 -0.1134
   54CHL1  H18A 3950   5.152   3.046   7.798 -2.6295 -1.9522 -1.3830
   54CHL1  H18B 3951   5.325   2.993   7.841  0.7105 -0.0344 -1.3964
   54CHL1  H18C 3952   5.287   3.055   7.686  1.1487 -0.1932  0.1715
   54CHL1   C12 3953   5.327   2.769   7.655  0.3919  0.0006  0.0463
   54CHL1  H12A 3954   5.411   2.761   7.727 -0.6327  1.6368  1.5201
   54CHL1  H12B 3955   5.283   2.671   7.627  0.4625  0.2159 -0.8386
   54CHL1   C11 3956   5.382   2.842   7.530 -0.6217 -0.2760 -0.4150
   54CHL1  H11A 3957   5.420   2.937   7.574  0.6004 -0.0295 -1.9003
   54CHL1  H11B 3958   5.472   2.793   7.489 -0.6768 -0.4602 -0.3171
   54CHL1    C9 3959   5.275   2.871   7.423  0.6748  0.8125  0.2066
   54CHL1    H9 3960   5.253   2.773   7.378  1.6530  0.5282  0.3127
   54CHL1   C10 3961   5.325   2.950   7.293 -0.5959  1.1389  0.0815
   54CHL1   C19 3962   5.389   3.078   7.342 -0.3173 -0.3738  0.1972
   54CHL1  H19A 3963   5.400   3.162   7.270  2.9804  1.0882  2.1420
   54CHL1  H19B 3964   5.333   3.116   7.430 -0.2302  1.3835 -0.4638
   54CHL1  H19C 3965   5.493   3.043   7.356 -0.5235 -2.6619 -2.9736
   54CHL1    C1 3966   5.432   2.864   7.217  0.1259  0.4958  0.4257
   54CHL1   H1A 3967   5.527   2.867   7.275  2.3330  0.8396 -2.9191
   54CHL1   H1B 3968   5.411   2.756   7.200 -0.0285  0.6066 -0.1023
   54CHL1    C2 3969   5.472   2.921   7.078 -0.0416  0.2179  0.2152
   54CHL1   H2A 3970   5.551   2.861   7.027 -0.3342  1.5024 -1.9188
   54CHL1   H2B 3971   5.525   3.018   7.089 -1.0129  0.7486  0.3086
   54CHL1   C20 3972   5.167   2.775   7.964 -0.7233  0.4464  0.1583
   54CHL1   H20 3973   5.164   2.879   8.002 -1.9684  0.4242  0.1549
   54CHL1   C21 3974   5.306   2.724   7.986 -0.2144 -0.2185 -0.7613
   54CHL1  H21A 3975   5.328   2.624   7.941 -0.8464  0.5362 -2.8831
   54CHL1  H21B 3976   5.320   2.704   8.094  0.2126 -1.6231 -1.0478
   54CHL1  H21C 3977   5.386   2.798   7.963 -1.1573  0.8972 -0.5459
   54CHL1   C22 3978   5.071   2.695   8.058 -0.0046  0.0062  0.6408
   54CHL1  H22A 3979   4.972   2.745   8.050 -0.4776 -0.5795  2.4184
   54CHL1  H22B 3980   5.065   2.586   8.034  0.2336  0.1205  0.0354
   54CHL1   C23 3981   5.109   2.702   8.214  0.4516  0.0490  1.2963
   54CHL1  H23A 3982   5.167   2.610   8.238  2.2261  0.3212 -1.4562
   54CHL1  H23B 3983   5.177   2.789   8.229  2.7275 -1.7049  1.8440
   54CHL1   C24 3984   4.983   2.706   8.309 -1.0499 -0.4203  0.0214
   54CHL1  H24A 3985   4.940   2.807   8.294 -0.8869 -0.4318 -0.5677
   54CHL1  H24B 3986   4.907   2.628   8.288 -2.8446  1.2110  0.1837
   54CHL1   C25 3987   5.017   2.657   8.451 -0.3421 -0.0966  0.1033
   54CHL1   H25 3988   5.072   2.562   8.441 -1.4677 -0.9688  1.6730
   54CHL1   C26 3989   5.104   2.755   8.534  0.2903  0.1534 -0.0961
   54CHL1  H26A 3990   5.125   2.708   8.633 -0.9218  0.8686  0.5219
   54CHL1  H26B 3991   5.201   2.772   8.481  1.1530  1.0666  1.6718
   54CHL1  H26C 3992   5.050   2.851   8.538 -1.2184 -0.5207 -2.2907
   54CHL1   C27 3993   4.883   2.621   8.523 -0.1645 -0.3507  0.6273
   54CHL1  H27A 3994   4.850   2.713   8.574  2.5148 -0.3568  2.5637
   54CHL1  H27B 3995   4.804   2.564   8.469 -0.7437 -0.5768  1.7020
   54CHL1  H27C 3996   4.913   2.552   8.605 -0.2872 -0.3970  0.6329
   55CHL1    C3 3997   6.191   3.853   6.872 -0.1822 -0.6556  0.4832
   55CHL1    H3 3998   6.089   3.895   6.862  0.3671  0.7016  0.3801
   55CHL1    O3 3999   6.254   3.876   6.751 -0.5451  0.0810  0.4065
   55CHL1   H3' 4000   6.304   3.797   6.727  1.3649  0.8478  1.6218
   55CHL1    C4 4001   6.267   3.935   6.977 -0.3163 -0.2752  0.3118
   55CHL1   H4A 4002   6.378   3.929   6.966 -0.3342  1.1429 -1.1040
   55CHL1   H4B 4003   6.256   4.041   6.948 -1.0357  0.0603  1.7637
   55CHL1    C5 4004   6.229   3.902   7.118  0.4093  0.1233  0.3986
   55CHL1    C6 4005   6.208   4.001   7.202  0.7503  0.0362 -0.6724
   55CHL1    H6 4006   6.212   4.106   7.169 -1.1478  0.1962 -0.4601
   55CHL1    C7 4007   6.153   3.980   7.337  0.2545 -0.4741 -0.6184
   55CHL1   H7A 4008   6.208   4.044   7.409 -0.5213 -0.4771 -0.0109
   55CHL1   H7B 4009   6.046   4.010   7.336  0.3720 -0.0555 -1.2876
   55CHL1    C8 4010   6.161   3.838   7.389 -0.3675 -0.4900  0.4139
   55CHL1    H8 4011   6.263   3.818   7.428  0.4229  0.0935 -1.2888
   55CHL1   C14 4012   6.060   3.825   7.503  0.2542 -0.2699  0.0466
   55CHL1   H14 4013   5.962   3.840   7.453  1.0426  0.4497 -1.3430
   55CHL1   C15 4014   6.064   3.919   7.626 -0.4857  0.1307  0.7308
   55CHL1  H15A 4015   6.167   3.922   7.666  0.3386  0.3642 -1.2807
   55CHL1  H15B 4016   6.040   4.026   7.608  1.7120  1.2483  3.7153
   55CHL1   C16 4017   5.986   3.858   7.740  0.3767 -0.4279 -0.3999
   55CHL1  H16A 4018   6.036   3.853   7.839  1.7388 -0.6659 -1.0804
   55CHL1  H16B 4019   5.884   3.901   7.750  0.3120 -0.9630  1.7024
   55CHL1   C17 4020   5.964   3.705   7.690 -0.2335 -0.1427  0.1236
   55CHL1   H17 4021   5.874   3.708   7.626 -0.3210 -1.0394  0.1971
   55CHL1   C13 4022   6.065   3.688   7.573 -0.4613  0.1520  0.1252
   55CHL1   C18 4023   6.205   3.660   7.635 -0.5928 -0.0338 -0.1820
   55CHL1  H18A 4024   6.286   3.654   7.559  0.2660 -2.0344  0.8045
   55CHL1  H18B 4025   6.230   3.734   7.714 -1.2438  0.8870 -0.8202
   55CHL1  H18C 4026   6.205   3.560   7.683 -0.5350 -1.0505 -2.2004
   55CHL1   C12 4027   6.034   3.582   7.475  0.4816 -0.4994  0.5593
   55CHL1  H12A 4028   6.033   3.481   7.523  3.5251 -0.9867 -0.2169
   55CHL1  H12B 4029   5.934   3.603   7.432  1.2834 -1.2442 -1.8016
   55CHL1   C11 4030   6.133   3.588   7.349  0.2670 -0.1530  0.2610
   55CHL1  H11A 4031   6.236   3.566   7.382 -0.1073  1.0268  2.4218
   55CHL1  H11B 4032   6.088   3.521   7.273 -0.8123  2.2474 -1.3547
   55CHL1    C9 4033   6.125   3.733   7.287  0.1230  0.4371  0.9939
   55CHL1    H9 4034   6.020   3.744   7.252 -0.7666 -2.7855  2.3020
   55CHL1   C10 4035   6.208   3.758   7.154 -0.3326 -0.4195 -0.5501
   55CHL1   C19 4036   6.346   3.693   7.184 -0.3741  0.0487 -0.3771
   55CHL1  H19A 4037   6.352   3.584   7.206  2.0992  0.3813  1.0471
   55CHL1  H19B 4038   6.406   3.697   7.090  1.0636 -2.9071  0.2795
   55CHL1  H19C 4039   6.401   3.753   7.259 -1.0966  0.7538 -0.3951
   55CHL1    C1 4040   6.136   3.685   7.040 -0.4384 -0.2211  0.2601
   55CHL1   H1A 4041   6.134   3.575   7.057 -0.9481 -0.5524 -1.7219
   55CHL1   H1B 4042   6.029   3.715   7.044 -0.6834 -0.9403 -0.5742
   55CHL1    C2 4043   6.186   3.710   6.897 -0.2828 -0.0258  0.0736
   55CHL1   H2A 4044   6.115   3.660   6.826  0.2525 -0.3909 -0.2153
   55CHL1   H2B 4045   6.280   3.651   6.895 -0.9681 -1.3316  2.4239
   55CHL1   C20 4046   5.949   3.610   7.810  0.0822  0.0101  0.0083
   55CHL1   H20 4047   6.048   3.601   7.859  0.4999  1.7089 -0.4556
   55CHL1   C21 4048   5.899   3.470   7.760  0.3757 -0.2092  0.8481
   55CHL1  H21A 4049   5.976   3.416   7.700  1.8502  1.6347  0.9487
   55CHL1  H21B 4050   5.811   3.491   7.696  3.6643  3.3376 -3.1216
   55CHL1  H21C 4051   5.874   3.409   7.849  2.4196 -0.5274  1.2714
   55CHL1   C22 4052   5.860   3.654   7.927  0.3312  0.4164  0.2284
   55CHL1  H22A 4053   5.857   3.762   7.953  0.4683  0.4659  0.0411
   55CHL1  H22B 4054   5.760   3.619   7.895  0.3583 -1.0567  1.6610
   55CHL1   C23 4055   5.893   3.584   8.056  0.0194 -0.6104  0.5954
   55CHL1  H23A 4056   5.871   3.475   8.051  0.9401 -0.7441 -1.5605
   55CHL1  H23B 4057   5.997   3.599   8.092 -0.1620  1.7127  0.2615
   55CHL1   C24 4058   5.811   3.656   8.165 -0.1413  0.4526  0.3215
   55CHL1  H24A 4059   5.823   3.766   8.164  3.1621  0.2167  1.5040
   55CHL1  H24B 4060   5.705   3.642   8.133  1.1375 -2.1492 -3.4239
   55CHL1   C25 4061   5.829   3.607   8.312  0.0382 -0.3951  0.2695
   55CHL1   H25 4062   5.938   3.592   8.332  0.1964 -0.9795 -0.9197
   55CHL1   C26 4063   5.766   3.710   8.394  0.3003 -0.3866 -0.8148
   55CHL1  H26A 4064   5.658   3.721   8.371 -0.2038 -0.5254  1.2842
   55CHL1  H26B 4065   5.770   3.683   8.502  0.0049 -0.8617 -0.9179
   55CHL1  H26C 4066   5.806   3.811   8.373 -0.3406  0.1776  0.5590
   55CHL1   C27 4067   5.755   3.479   8.320  0.7330 -0.4498 -0.7145
   55CHL1  H27A 4068   5.786   3.423   8.411  0.6912  1.4615  0.5449
   55CHL1  H27B 4069   5.644   3.481   8.316  0.7522  0.1901 -1.0813
   55CHL1  H27C 4070   5.793   3.420   8.234  2.3842  1.2009 -1.1913
   56CHL1    C3 4071   4.871   2.063   6.961 -1.0422  0.1543  0.3250
   56CHL1    H3 4072   4.926   2.147   7.009 -1.0257  1.1939 -1.4016
   56CHL1    O3 4073   4.918   2.046   6.827  0.2255  0.3153  0.4647
   56CHL1   H3' 4074   4.840   2.013   6.783 -1.0834  2.2850  1.1953
   56CHL1    C4 4075   4.887   1.934   7.037 -0.4128  0.2067 -0.2480
   56CHL1   H4A 4076   4.822   1.863   6.982  1.2285 -1.3057 -0.3463
   56CHL1   H4B 4077   4.989   1.889   7.033  0.2760  1.6357  0.3306
   56CHL1    C5 4078   4.837   1.939   7.181 -0.1682 -0.3508  0.0209
   56CHL1    C6 4079   4.932   1.911   7.273 -0.3071  0.2442  0.4531
   56CHL1    H6 4080   5.035   1.885   7.248  0.7133  3.2222  1.1249
   56CHL1    C7 4081   4.892   1.908   7.419  0.5788  0.7816 -0.2711
   56CHL1   H7A 4082   4.920   1.808   7.458 -0.1204  0.4361 -0.6302
   56CHL1   H7B 4083   4.939   1.989   7.479 -0.3773 -0.0611  1.7119
   56CHL1    C8 4084   4.739   1.922   7.447 -0.1080  0.1783 -0.2460
   56CHL1    H8 4085   4.688   1.826   7.425 -0.4646  0.5837 -1.2364
   56CHL1   C14 4086   4.712   1.945   7.597  0.5565  0.2001 -0.7336
   56CHL1   H14 4087   4.767   2.037   7.628 -0.6287  0.7144 -0.0506
   56CHL1   C15 4088   4.750   1.834   7.688 -0.5659  0.1763  0.1528
   56CHL1  H15A 4089   4.712   1.735   7.654 -0.2797  0.2722 -0.4591
   56CHL1  H15B 4090   4.859   1.832   7.710 -0.6007  0.5280  0.3697
   56CHL1   C16 4091   4.680   1.873   7.820 -0.1912 -0.5387  0.0105
   56CHL1  H16A 4092   4.629   1.792   7.876 -0.7560 -0.7651 -0.8034
   56CHL1  H16B 4093   4.759   1.932   7.871  0.7076 -0.9964 -0.8140
   56CHL1   C17 4094   4.583   1.985   7.785  0.6079 -0.5966  0.2782
   56CHL1   H17 4095   4.624   2.087   7.801 -1.6677  0.6469 -1.2716
   56CHL1   C13 4096   4.564   1.971   7.632  1.0566 -0.3671  0.1742
   56CHL1   C18 4097   4.468   1.859   7.601  0.3884  0.5507 -0.4679
   56CHL1  H18A 4098   4.362   1.891   7.610  0.4540  0.5138  0.6323
   56CHL1  H18B 4099   4.483   1.825   7.497  2.5005  0.9697 -0.3287
   56CHL1  H18C 4100   4.484   1.774   7.672 -1.1690  0.8955  0.3476
   56CHL1   C12 4101   4.528   2.102   7.554 -0.2906 -0.2256  1.1716
   56CHL1  H12A 4102   4.423   2.138   7.559  0.1934  1.3536  0.4739
   56CHL1  H12B 4103   4.594   2.180   7.596 -0.9119  0.8935  0.1440
   56CHL1   C11 4104   4.529   2.075   7.400  0.0809  0.0261  0.5093
   56CHL1  H11A 4105   4.449   2.000   7.380  1.3670 -1.9034  2.1767
   56CHL1  H11B 4106   4.500   2.167   7.345 -0.9352 -0.2988  0.4773
   56CHL1    C9 4107   4.672   2.025   7.353 -0.1143  0.1393 -0.4036
   56CHL1    H9 4108   4.737   2.115   7.360  0.1826 -0.0785 -0.3471
   56CHL1   C10 4109   4.685   1.990   7.199  0.1320 -0.0941 -0.3172
   56CHL1   C19 4110   4.591   1.878   7.158 -0.5767  0.3498 -1.0296
   56CHL1  H19A 4111   4.619   1.832   7.061 -1.9639 -0.5053 -1.0592
   56CHL1  H19B 4112   4.591   1.789   7.225 -0.0356  1.2459  0.2030
   56CHL1  H19C 4113   4.484   1.908   7.162 -1.0674 -1.4066 -0.4682
   56CHL1    C1 4114   4.676   2.111   7.105  0.4090 -0.8966  0.2067
   56CHL1   H1A 4115   4.571   2.145   7.092  0.7049 -0.0808 -0.1074
   56CHL1   H1B 4116   4.737   2.193   7.149  1.6805 -0.2323 -2.6041
   56CHL1    C2 4117   4.722   2.092   6.956 -0.6057  0.1916  0.0932
   56CHL1   H2A 4118   4.700   2.184   6.898  1.1892  1.8261  1.8297
   56CHL1   H2B 4119   4.661   2.003   6.927  1.6711 -2.0661  1.7617
   56CHL1   C20 4120   4.459   1.991   7.882  0.6376  0.0533  0.2417
   56CHL1   H20 4121   4.385   1.909   7.874  1.1335 -0.6586  2.2541
   56CHL1   C21 4122   4.386   2.127   7.871  0.0660 -0.3034 -0.4115
   56CHL1  H21A 4123   4.456   2.205   7.908  0.2056 -0.4342 -0.3954
   56CHL1  H21B 4124   4.288   2.120   7.924  0.9765  0.3785  1.4687
   56CHL1  H21C 4125   4.367   2.154   7.765  0.1370 -0.0835 -0.3687
   56CHL1   C22 4126   4.514   1.977   8.027 -0.6207  0.1601  0.7826
   56CHL1  H22A 4127   4.527   1.869   8.049  0.3522  0.2417  0.6428
   56CHL1  H22B 4128   4.611   2.031   8.037 -0.2941 -0.4555  0.9477
   56CHL1   C23 4129   4.421   2.030   8.138  0.1821  0.2067 -0.1525
   56CHL1  H23A 4130   4.398   2.139   8.132 -0.7896  0.0490  0.6198
   56CHL1  H23B 4131   4.326   1.973   8.137 -0.3390  1.0514 -0.5589
   56CHL1   C24 4132   4.479   2.009   8.278 -0.2948  0.3752 -0.3647
   56CHL1  H24A 4133   4.503   1.901   8.289 -0.2905  0.4273  0.1438
   56CHL1  H24B 4134   4.572   2.069   8.276 -0.3427  0.4421 -0.7872
   56CHL1   C25 4135   4.400   2.051   8.401  0.5946 -0.4359  0.0105
   56CHL1   H25 4136   4.301   2.001   8.393  0.7497 -1.3327  2.7580
   56CHL1   C26 4137   4.468   2.005   8.527 -1.5308  0.5125  0.1182
   56CHL1  H26A 4138   4.560   2.064   8.547  0.1894 -1.2731 -1.9317
   56CHL1  H26B 4139   4.490   1.896   8.524 -0.1194  0.7749 -2.0068
   56CHL1  H26C 4140   4.400   2.022   8.612 -1.3830 -1.2536  0.6289
   56CHL1   C27 4141   4.379   2.205   8.407  0.3722 -0.0806  0.0636
   56CHL1  H27A 4142   4.316   2.233   8.494  0.6594  1.7265 -0.2783
   56CHL1  H27B 4143   4.473   2.264   8.410 -0.2535  0.9137  0.8622
   56CHL1  H27C 4144   4.322   2.247   8.321 -3.4872 -4.0369  0.2975
   57SAPC     N 4145   0.191   1.320  10.794  0.2505 -0.3222  0.2760
   57SAPC   C12 4146   0.144   1.172  10.789  0.2335 -0.2770 -0.2986
   57SAPC  H12A 4147   0.093   1.156  10.883  0.0028 -0.0312 -0.3815
   57SAPC  H12B 4148   0.225   1.100  10.781  0.9073  0.3698  0.6399
   57SAPC   C13 4149   0.316   1.348  10.863 -0.1633 -0.0113 -0.1096
   57SAPC  H13A 4150   0.348   1.447  10.833 -0.5256  0.6149  1.4429
   57SAPC  H13B 4151   0.298   1.334  10.969  0.2323  1.2640  0.1451
   57SAPC  H13C 4152   0.396   1.284  10.830 -0.0089  1.4263 -2.7845
   57SAPC   C14 4153   0.211   1.368  10.656  0.0470  0.2287 -0.9647
   57SAPC  H14A 4154   0.214   1.476  10.652  0.7793  0.3166  0.9885
   57SAPC  H14B 4155   0.311   1.347  10.623  0.5574 -0.5782  0.9927
   57SAPC  H14C 4156   0.128   1.337  10.594  0.6998 -3.6914 -0.1080
   57SAPC   C15 4157   0.087   1.407  10.850 -0.1542  0.3294  0.4559
   57SAPC  H15A 4158  -0.012   1.377  10.819  0.2137 -0.6310  0.1554
   57SAPC  H15B 4159   0.079   1.391  10.957  1.5435 -1.5445  0.3626
   57SAPC  H15C 4160   0.100   1.511  10.824 -0.0315 -0.0772 -1.2143
   57SAPC   C11 4161   0.035   1.132  10.687 -0.6856 -0.2978  0.0127
   57SAPC  H11A 4162   0.019   1.022  10.698  3.8982 -1.1591  0.4884
   57SAPC  H11B 4163   0.080   1.147  10.587  0.9537  0.8478  0.8732
   57SAPC     P 4164  -0.221   1.161  10.718  0.5621  0.3247  0.1245
   57SAPC   O13 4165  -0.240   1.099  10.850 -0.0676 -0.1511 -0.1017
   57SAPC   O14 4166  -0.310   1.265  10.684  0.6014 -0.2495 -0.5979
   57SAPC   O12 4167  -0.076   1.215  10.698 -0.3512  0.1632  0.5923
   57SAPC   O11 4168  -0.239   1.039  10.615 -0.1059  0.1686  0.3670
   57SAPC    C1 4169  -0.190   1.051  10.480 -0.5523 -0.0161 -0.5280
   57SAPC    HA 4170  -0.089   1.097  10.484  0.2426 -1.7634  3.1432
   57SAPC    HB 4171  -0.190   0.952  10.428 -0.7500 -0.4706  0.3174
   57SAPC    C2 4172  -0.282   1.150  10.401 -0.1592  0.5030  0.1014
   57SAPC    HS 4173  -0.342   1.221  10.462 -1.9234 -1.3545  0.6241
   57SAPC   O21 4174  -0.371   1.069  10.323 -0.1416  0.0730  0.4338
   57SAPC   C21 4175  -0.491   1.109  10.293 -0.4521 -0.1114 -0.2586
   57SAPC   O22 4176  -0.538   1.221  10.325  0.2088  0.6979  0.7933
   57SAPC   C22 4177  -0.571   1.005  10.226 -0.2993  0.1147  0.5738
   57SAPC   H2R 4178  -0.678   1.036  10.227 -0.1554  0.8957 -1.5324
   57SAPC   H2S 4179  -0.538   0.997  10.120  0.0304 -0.7785  0.7331
   57SAPC    C3 4180  -0.194   1.231  10.297  0.4362  0.3744  0.3418
   57SAPC    HX 4181  -0.113   1.278  10.357 -0.0945  0.3126  1.1277
   57SAPC    HY 4182  -0.253   1.318  10.262 -1.8051  0.1397  3.1340
   57SAPC   O31 4183  -0.131   1.153  10.195  0.0886  0.6664  0.2890
   57SAPC   C31 4184  -0.205   1.154  10.085 -0.2537  0.1798 -0.4711
   57SAPC   O32 4185  -0.313   1.209  10.075  0.3805 -0.0134  0.4781
   57SAPC   C32 4186  -0.140   1.071   9.976 -0.2463  0.7537  0.8537
   57SAPC   H2X 4187  -0.111   0.972  10.015 -2.9007 -0.3097  0.3382
   57SAPC   H2Y 4188  -0.059   1.131   9.929 -0.4747  0.5906  0.2448
   57SAPC   C23 4189  -0.574   0.867  10.292  0.2263  0.3701  0.8720
   57SAPC   H3R 4190  -0.615   0.879  10.394  2.4174 -1.3917  2.0373
   57SAPC   H3S 4191  -0.470   0.830  10.305  0.5253  1.0267  0.4029
   57SAPC   C24 4192  -0.669   0.759  10.229 -0.6116 -0.1341  0.4432
   57SAPC   H4R 4193  -0.773   0.789  10.203 -0.5048 -1.0345 -1.2010
   57SAPC   H4S 4194  -0.686   0.683  10.308  0.3089 -1.3781 -0.5203
   57SAPC   C25 4195  -0.605   0.676  10.119  0.6318  0.0085 -0.8958
   57SAPC   H5R 4196  -0.518   0.617  10.152  0.9530 -0.5410 -2.6121
   57SAPC   C26 4197  -0.635   0.680   9.991 -0.0639  0.4184  0.2054
   57SAPC   H6R 4198  -0.573   0.619   9.923  0.5413  0.3304  0.8287
   57SAPC   C27 4199  -0.736   0.781   9.927  0.4052 -0.0024 -1.1975
   57SAPC   H7R 4200  -0.759   0.872   9.986 -1.7773 -0.1455 -1.7329
   57SAPC   H7S 4201  -0.833   0.727   9.915 -0.7104  1.5773  0.2586
   57SAPC   C28 4202  -0.671   0.830   9.802  0.3592  0.5219 -0.4490
   57SAPC   H8R 4203  -0.584   0.894   9.820 -1.3077  2.4809  1.1812
   57SAPC   C29 4204  -0.704   0.809   9.672  0.4440  0.0769 -0.6519
   57SAPC   H9R 4205  -0.644   0.864   9.598  1.1285 -0.7080 -0.7009
   57SAPC  C210 4206  -0.812   0.728   9.608 -0.3928  0.2757 -0.1154
   57SAPC  H10R 4207  -0.848   0.780   9.517  0.5341  0.3311 -0.4623
   57SAPC  H10S 4208  -0.901   0.730   9.675  0.3820  1.4542  0.9336
   57SAPC  C211 4209  -0.771   0.581   9.594 -0.5780 -0.1668  0.0443
   57SAPC  H11R 4210  -0.754   0.526   9.688 -1.2066 -0.7440 -0.1698
   57SAPC  C212 4211  -0.754   0.508   9.483  0.6527  0.4284 -0.2733
   57SAPC  H12R 4212  -0.728   0.402   9.493 -2.3913 -0.3276  0.6845
   57SAPC  C213 4213  -0.788   0.562   9.341  0.2541  0.4507  0.0888
   57SAPC  H13R 4214  -0.886   0.613   9.355  1.0716  1.1739  4.4475
   57SAPC  H13S 4215  -0.815   0.474   9.279 -0.3840  0.9768 -0.3910
   57SAPC  C214 4216  -0.682   0.651   9.279 -0.7029 -0.6322  0.6756
   57SAPC  H14R 4217  -0.621   0.706   9.352 -0.2467  0.9011 -0.7853
   57SAPC  C215 4218  -0.673   0.677   9.145 -0.4860  0.9009 -0.0004
   57SAPC  H15R 4219  -0.607   0.755   9.104  0.5294  0.5445  0.9093
   57SAPC  C216 4220  -0.766   0.620   9.040  0.6171  0.5716 -0.0841
   57SAPC  H16R 4221  -0.829   0.535   9.074  0.4443  0.3433 -0.9389
   57SAPC  H16S 4222  -0.707   0.571   8.959 -0.5934 -0.8531 -0.1327
   57SAPC  C217 4223  -0.849   0.735   8.989 -0.9069 -0.2357 -0.6356
   57SAPC  H17R 4224  -0.894   0.787   9.076 -0.1339  1.5138 -1.2324
   57SAPC  H17S 4225  -0.932   0.698   8.924 -0.3857  1.6492 -2.4840
   57SAPC  C218 4226  -0.772   0.849   8.913 -0.5067  0.1286  0.0853
   57SAPC  H18R 4227  -0.689   0.889   8.975 -0.0744  3.8931 -2.5175
   57SAPC  H18S 4228  -0.859   0.916   8.894 -2.0329 -2.2116 -1.7960
   57SAPC  C219 4229  -0.720   0.808   8.774  0.0683  0.1412  0.3656
   57SAPC  H19R 4230  -0.796   0.749   8.717  0.2506  1.0265 -0.8414
   57SAPC  H19S 4231  -0.633   0.741   8.789 -1.6485 -2.5040 -0.7584
   57SAPC  C220 4232  -0.669   0.932   8.693 -0.1672 -0.1303 -1.1746
   57SAPC  H20R 4233  -0.592   0.979   8.757 -1.2830  2.3048 -1.5198
   57SAPC  H20S 4234  -0.752   1.004   8.677  0.4442  0.8504 -0.1131
   57SAPC  H20T 4235  -0.628   0.904   8.594 -0.8733  3.2912 -2.5891
   57SAPC   C33 4236  -0.243   1.042   9.860  0.7941 -0.1685  0.2679
   57SAPC   H3X 4237  -0.276   1.136   9.811  0.6455 -0.1837  0.3386
   57SAPC   H3Y 4238  -0.333   0.987   9.896  0.3367 -0.7141 -1.5679
   57SAPC   C34 4239  -0.179   0.962   9.742  0.5225  0.0821  0.3363
   57SAPC   H4X 4240  -0.260   0.901   9.696  2.7969 -1.0774 -2.3856
   57SAPC   H4Y 4241  -0.115   0.884   9.790  1.8576  1.7918  1.4526
   57SAPC   C35 4242  -0.093   1.036   9.639  0.9401  0.1680 -0.3359
   57SAPC   H5X 4243  -0.044   1.113   9.702  1.1780 -0.5158  0.3322
   57SAPC   H5Y 4244  -0.154   1.096   9.568 -2.0598  1.8860  3.3687
   57SAPC   C36 4245   0.010   0.937   9.573  0.1657  0.6720 -0.0370
   57SAPC   H6X 4246  -0.045   0.849   9.531  1.6044  0.2953 -1.1943
   57SAPC   H6Y 4247   0.079   0.904   9.654  1.9082  0.3651 -1.5816
   57SAPC   C37 4248   0.072   1.000   9.450 -0.0763  0.3432  0.2708
   57SAPC   H7X 4249   0.133   1.089   9.475 -1.6412  1.4594  0.1894
   57SAPC   H7Y 4250  -0.009   1.029   9.380 -0.6368 -3.1085 -0.7278
   57SAPC   C38 4251   0.158   0.903   9.374  0.5595  0.7057 -0.3079
   57SAPC   H8X 4252   0.111   0.806   9.349 -1.3505  1.4592  0.1919
   57SAPC   H8Y 4253   0.248   0.889   9.438  0.3058  4.2103  1.0688
   57SAPC   C39 4254   0.199   0.959   9.240 -0.2106 -1.1566  0.3207
   57SAPC   H9X 4255   0.203   1.069   9.250 -1.4440 -1.1179  0.4935
   57SAPC   H9Y 4256   0.119   0.935   9.167 -0.9762  1.5698  0.1820
   57SAPC  C310 4257   0.345   0.923   9.201  0.1648  0.1986 -0.4953
   57SAPC  H10X 4258   0.351   0.820   9.162 -0.1859 -0.2825  0.6599
   57SAPC  H10Y 4259   0.421   0.925   9.283 -0.9455  1.0792  0.5651
   57SAPC  C311 4260   0.394   1.011   9.086 -0.5118 -0.5139 -0.5582
   57SAPC  H11X 4261   0.490   0.965   9.056  2.0923  2.6027  2.1716
   57SAPC  H11Y 4262   0.430   1.107   9.129 -0.3090 -0.9296  0.2046
   57SAPC  C312 4263   0.305   1.042   8.965  0.2275  0.0969 -0.2147
   57SAPC  H12X 4264   0.213   1.088   9.008  0.9263 -1.9401  4.0146
   57SAPC  H12Y 4265   0.270   0.939   8.943 -1.8456  0.7083  0.0163
   57SAPC  C313 4266   0.373   1.109   8.843 -0.2759  0.2487 -0.3914
   57SAPC  H13X 4267   0.476   1.070   8.830  0.0999  0.2063  2.2777
   57SAPC  H13Y 4268   0.395   1.216   8.864 -2.1178  0.6292 -0.2959
   57SAPC  C314 4269   0.295   1.108   8.716  0.1232  0.6794  0.0495
   57SAPC  H14X 4270   0.188   1.134   8.731 -0.2317  0.3384 -1.6848
   57SAPC  H14Y 4271   0.297   1.002   8.686  2.2929  0.3237  1.2366
   57SAPC  C315 4272   0.349   1.193   8.599 -0.0096 -0.2224 -0.0677
   57SAPC  H15X 4273   0.453   1.169   8.571 -0.2472  0.0192 -1.2000
   57SAPC  H15Y 4274   0.349   1.301   8.627  0.9955  0.0116 -0.9249
   57SAPC  C316 4275   0.259   1.192   8.474  0.2906  0.8462  0.4586
   57SAPC  H16X 4276   0.155   1.202   8.512 -0.1722  0.0444 -0.5603
   57SAPC  H16Y 4277   0.267   1.088   8.437 -2.4715 -0.0110  1.9824
   57SAPC  C317 4278   0.301   1.295   8.375 -0.3531 -0.0780 -0.3542
   57SAPC  H17X 4279   0.411   1.307   8.376 -0.5049  2.2018  2.3088
   57SAPC  H17Y 4280   0.248   1.390   8.400  2.0041  1.8313 -2.1719
   57SAPC  C318 4281   0.262   1.261   8.229  0.0254 -0.1787 -0.7397
   57SAPC  H18X 4282   0.301   1.338   8.159  1.7676  0.1015  0.4841
   57SAPC  H18Y 4283   0.153   1.246   8.211 -0.2349  0.2096  0.4235
   57SAPC  H18Z 4284   0.313   1.166   8.205  0.8775 -0.3860  1.6105
   58SAPC     N 4285   2.141   3.015  10.859 -0.0402  0.4342  0.6558
   58SAPC   C12 4286   2.045   2.927  10.940  0.4432 -0.9780  0.4357
   58SAPC  H12A 4287   1.961   2.994  10.951  1.5920  0.3797  1.4099
   58SAPC  H12B 4288   2.084   2.915  11.040 -0.4940 -0.9585  0.8173
   58SAPC   C13 4289   2.190   3.136  10.939  0.7057 -0.3349 -0.5700
   58SAPC  H13A 4290   2.228   3.105  11.035  0.9585  4.3052  1.0956
   58SAPC  H13B 4291   2.271   3.180  10.883  0.6969  0.3908 -0.0362
   58SAPC  H13C 4292   2.119   3.213  10.967  1.4672  0.0561  0.3506
   58SAPC   C14 4293   2.256   2.937  10.817  0.2476  0.2615 -0.0601
   58SAPC  H14A 4294   2.332   2.994  10.766  1.8382 -1.7004  0.0058
   58SAPC  H14B 4295   2.301   2.900  10.908 -0.4894  0.2035  0.2863
   58SAPC  H14C 4296   2.232   2.847  10.763  1.8255 -1.3985  1.8770
   58SAPC   C15 4297   2.072   3.061  10.737 -0.4488  0.2985  0.1350
   58SAPC  H15A 4298   1.999   3.138  10.756  0.0848  1.3165 -1.7275
   58SAPC  H15B 4299   2.139   3.118  10.675  0.0147 -0.4624 -0.0706
   58SAPC  H15C 4300   2.025   2.977  10.689 -0.4170  0.6341 -0.4905
   58SAPC   C11 4301   2.004   2.793  10.882 -0.1148  0.7549 -0.5432
   58SAPC  H11A 4302   1.940   2.735  10.952  1.4051  0.2430  0.4906
   58SAPC  H11B 4303   2.089   2.722  10.875 -1.6118 -1.0452 -1.3821
   58SAPC     P 4304   1.906   2.674  10.669 -0.2599  0.0206  0.0304
   58SAPC   O13 4305   2.039   2.606  10.648  0.1436 -0.5828  0.5104
   58SAPC   O14 4306   1.802   2.593  10.726  0.3471  0.0286 -0.4980
   58SAPC   O12 4307   1.932   2.804  10.757  0.3567  0.1974 -0.2149
   58SAPC   O11 4308   1.840   2.720  10.534 -0.1815  0.1818 -0.2832
   58SAPC    C1 4309   1.729   2.816  10.536  0.8983  0.4300  0.0871
   58SAPC    HA 4310   1.641   2.758  10.502  2.0975 -0.2978 -1.9983
   58SAPC    HB 4311   1.705   2.864  10.633  1.9114 -0.5609  0.8644
   58SAPC    C2 4312   1.742   2.932  10.432  0.4486  0.4950  0.4505
   58SAPC    HS 4313   1.738   3.033  10.480  1.5508  0.9516 -0.3579
   58SAPC   O21 4314   1.649   2.915  10.326 -0.1106  0.4375  0.5894
   58SAPC   C21 4315   1.521   2.936  10.375 -0.1375 -0.0253 -0.0002
   58SAPC   O22 4316   1.492   2.978  10.483  0.3076 -0.3857  0.6007
   58SAPC   C22 4317   1.425   2.920  10.266  0.1478 -0.0719 -0.2120
   58SAPC   H2R 4318   1.346   2.865  10.321  0.3360  0.0100  0.1393
   58SAPC   H2S 4319   1.403   3.026  10.240 -1.6995 -0.2721  0.3863
   58SAPC    C3 4320   1.887   2.933  10.378 -0.2850 -0.0032  0.0226
   58SAPC    HX 4321   1.906   2.829  10.346  0.0705  0.1355 -0.2310
   58SAPC    HY 4322   1.962   2.946  10.458 -0.6596 -1.3856  0.6195
   58SAPC   O31 4323   1.908   3.027  10.270 -0.3432  0.2658 -0.4773
   58SAPC   C31 4324   2.026   3.014  10.203  0.5105 -0.3542 -0.2211
   58SAPC   O32 4325   2.109   2.925  10.216 -0.1538 -0.3176 -0.3090
   58SAPC   C32 4326   2.049   3.136  10.114 -0.1912  0.0151 -0.3971
   58SAPC   H2X 4327   2.079   3.222  10.177 -3.3068  0.7562  0.2320
   58SAPC   H2Y 4328   1.947   3.149  10.073  0.0881 -1.9803 -1.9150
   58SAPC   C23 4329   1.466   2.846  10.132 -0.2957  0.2776 -0.1278
   58SAPC   H3R 4330   1.499   2.745  10.165 -0.8742  1.1606  3.5484
   58SAPC   H3S 4331   1.547   2.898  10.075 -0.1941 -0.2080 -0.4363
   58SAPC   C24 4332   1.343   2.842  10.037  0.9452 -0.0441 -0.3185
   58SAPC   H4R 4333   1.263   2.790  10.095 -0.0461  0.3637 -1.2761
   58SAPC   H4S 4334   1.364   2.765   9.960  0.3672  0.5324 -1.0700
   58SAPC   C25 4335   1.299   2.971   9.984  0.2411  0.1815  0.6336
   58SAPC   H5R 4336   1.203   3.011  10.019  0.2447  2.8126 -1.9951
   58SAPC   C26 4337   1.366   3.040   9.889  0.4925 -0.0140 -0.3337
   58SAPC   H6R 4338   1.332   3.143   9.869  1.3490  0.4125  0.3399
   58SAPC   C27 4339   1.490   2.996   9.816  0.3359 -0.3752 -0.0819
   58SAPC   H7R 4340   1.490   2.885   9.826  0.0852 -0.3698 -0.0282
   58SAPC   H7S 4341   1.578   3.033   9.873  0.8916 -1.7432 -0.0118
   58SAPC   C28 4342   1.502   3.052   9.675 -0.1114 -0.6613 -0.3373
   58SAPC   H8R 4343   1.592   3.112   9.654  1.9280 -2.5041  2.4817
   58SAPC   C29 4344   1.425   3.019   9.573  0.4262 -0.2855  0.1099
   58SAPC   H9R 4345   1.452   3.060   9.475 -2.2591  2.1602  0.2696
   58SAPC  C210 4346   1.307   2.922   9.573 -1.1459  0.9755 -0.1837
   58SAPC  H10R 4347   1.217   2.972   9.614 -0.5764  1.6871  0.2232
   58SAPC  H10S 4348   1.317   2.834   9.640 -2.1414  1.1886  0.2727
   58SAPC  C211 4349   1.280   2.865   9.438  0.1795  0.1166 -0.1530
   58SAPC  H11R 4350   1.176   2.884   9.407 -1.1725 -2.5156  2.3219
   58SAPC  C212 4351   1.360   2.794   9.359 -0.6040  0.1085 -0.2577
   58SAPC  H12R 4352   1.314   2.758   9.266 -1.9026 -0.8976  0.7349
   58SAPC  C213 4353   1.501   2.754   9.380  0.0336 -0.3358 -0.1350
   58SAPC  H13R 4354   1.487   2.650   9.416  0.7181 -0.6830 -0.8314
   58SAPC  H13S 4355   1.536   2.820   9.463 -0.6642  0.1874 -0.2536
   58SAPC  C214 4356   1.594   2.745   9.263  0.6842 -0.5455 -0.3007
   58SAPC  H14R 4357   1.576   2.658   9.199 -0.8250  0.6705 -1.5962
   58SAPC  C215 4358   1.698   2.818   9.224 -0.0045  0.2815 -0.0699
   58SAPC  H15R 4359   1.757   2.783   9.138 -1.0418 -0.1605 -0.6234
   58SAPC  C216 4360   1.752   2.939   9.288  0.3537  0.1293  0.1279
   58SAPC  H16R 4361   1.672   2.977   9.356  1.0345 -0.8426  1.5372
   58SAPC  H16S 4362   1.768   3.024   9.219 -1.9200 -0.2801 -0.9985
   58SAPC  C217 4363   1.886   2.917   9.361  0.5278  0.2508  0.2554
   58SAPC  H17R 4364   1.970   2.882   9.298  1.0964  1.9286  0.0267
   58SAPC  H17S 4365   1.872   2.841   9.441 -0.1677 -0.0503 -0.1443
   58SAPC  C218 4366   1.919   3.044   9.440  0.4753 -0.6664 -0.1286
   58SAPC  H18R 4367   1.825   3.072   9.493  2.1526  0.1950  2.5987
   58SAPC  H18S 4368   1.941   3.123   9.364  0.8767 -0.0949  0.5590
   58SAPC  C219 4369   2.020   3.041   9.551 -0.3495 -0.0062 -0.8028
   58SAPC  H19R 4370   2.006   2.949   9.612  0.7059 -0.4854 -1.2738
   58SAPC  H19S 4371   2.004   3.125   9.622 -0.0581 -1.0040  0.4844
   58SAPC  C220 4372   2.164   3.057   9.501  0.4193 -0.3363  0.2578
   58SAPC  H20R 4373   2.195   2.976   9.432 -2.2245 -0.4178 -0.9429
   58SAPC  H20S 4374   2.242   3.053   9.581  0.8817 -0.8291 -0.2037
   58SAPC  H20T 4375   2.173   3.154   9.447  0.5735 -1.2793 -1.4611
   58SAPC   C33 4376   2.139   3.102   9.983 -0.7228 -0.0029 -0.6349
   58SAPC   H3X 4377   2.124   2.995   9.957  0.0296  0.1257 -1.7032
   58SAPC   H3Y 4378   2.247   3.110  10.007 -0.1579 -1.0200 -2.6103
   58SAPC   C34 4379   2.103   3.199   9.874 -0.1180 -0.1447 -0.3482
   58SAPC   H4X 4380   1.995   3.224   9.865  0.6533  3.5340 -0.9827
   58SAPC   H4Y 4381   2.130   3.139   9.784 -0.9047 -0.8692 -0.1192
   58SAPC   C35 4382   2.196   3.326   9.883 -0.8641  0.2499 -0.0192
   58SAPC   H5X 4383   2.302   3.299   9.861 -0.4110  1.3511  0.6727
   58SAPC   H5Y 4384   2.187   3.367   9.986  3.2026  2.6659 -0.3574
   58SAPC   C36 4385   2.150   3.435   9.785 -0.5752  0.2688 -0.2413
   58SAPC   H6X 4386   2.193   3.529   9.827 -3.7460  1.2090  1.2150
   58SAPC   H6Y 4387   2.039   3.437   9.785 -0.6438 -1.7425 -1.1799
   58SAPC   C37 4388   2.184   3.417   9.637 -0.7147 -0.3887  0.0714
   58SAPC   H7X 4389   2.148   3.319   9.600  0.5515 -0.5027 -0.8908
   58SAPC   H7Y 4390   2.294   3.407   9.627 -0.1735  1.8307  2.6270
   58SAPC   C38 4391   2.127   3.513   9.534 -0.0086  0.0124  0.3215
   58SAPC   H8X 4392   2.172   3.612   9.551  2.3661 -0.9016 -0.2528
   58SAPC   H8Y 4393   2.017   3.519   9.554  0.0995  0.4815  0.7912
   58SAPC   C39 4394   2.154   3.462   9.394  0.2231  1.1216  0.4802
   58SAPC   H9X 4395   2.119   3.357   9.379  2.1054  0.4010  0.8370
   58SAPC   H9Y 4396   2.265   3.464   9.392  0.2952  1.1726 -3.2983
   58SAPC  C310 4397   2.116   3.553   9.274 -0.1734  0.7102 -0.2351
   58SAPC  H10X 4398   2.154   3.652   9.305  0.1669  0.9688 -1.4102
   58SAPC  H10Y 4399   2.005   3.557   9.271 -0.3364 -1.4455  0.6593
   58SAPC  C311 4400   2.178   3.523   9.137  0.7737  0.5822  0.5479
   58SAPC  H11X 4401   2.134   3.422   9.126  0.0015  0.8190  1.3392
   58SAPC  H11Y 4402   2.288   3.521   9.150  0.7307  0.8631  0.9811
   58SAPC  C312 4403   2.137   3.614   9.023  0.1462  0.0395  0.4086
   58SAPC  H12X 4404   2.035   3.658   9.029  0.6176  1.6077 -1.8139
   58SAPC  H12Y 4405   2.150   3.549   8.934  0.3994  1.5766 -0.7169
   58SAPC  C313 4406   2.236   3.730   8.999  0.3774 -0.1904  0.0386
   58SAPC  H13X 4407   2.344   3.707   8.984  0.7768  1.8363 -0.5991
   58SAPC  H13Y 4408   2.228   3.811   9.075 -0.3273  1.3148 -1.5788
   58SAPC  C314 4409   2.208   3.801   8.869  0.1843  0.3588  0.0182
   58SAPC  H14X 4410   2.111   3.853   8.884 -1.4174 -2.4287 -0.1398
   58SAPC  H14Y 4411   2.190   3.722   8.793  0.8922 -1.8591  2.0616
   58SAPC  C315 4412   2.319   3.903   8.824 -0.0430 -0.1070  0.2205
   58SAPC  H15X 4413   2.407   3.852   8.779 -0.2918  0.6562 -1.1912
   58SAPC  H15Y 4414   2.352   3.958   8.915 -3.2765  0.6446  1.1054
   58SAPC  C316 4415   2.275   4.011   8.719 -0.2393 -0.6110  0.0595
   58SAPC  H16X 4416   2.178   4.057   8.746 -0.3219 -1.3018  1.0258
   58SAPC  H16Y 4417   2.263   3.957   8.622  0.6081 -0.5431 -0.0967
   58SAPC  C317 4418   2.384   4.115   8.711 -0.1794 -0.5596  0.2846
   58SAPC  H17X 4419   2.477   4.055   8.696  0.2405  0.2017 -0.2548
   58SAPC  H17Y 4420   2.372   4.168   8.808 -1.4855 -0.8014  0.2686
   58SAPC  C318 4421   2.345   4.210   8.597  0.4187  1.0382 -0.0070
   58SAPC  H18X 4422   2.415   4.295   8.584 -0.6287  2.0539  0.7869
   58SAPC  H18Y 4423   2.253   4.261   8.633 -0.5631 -2.2031  2.6456
   58SAPC  H18Z 4424   2.337   4.154   8.502 -1.3608  1.6732 -0.2708
   59SAPC     N 4425   2.127   5.846  11.267  0.2909 -0.2801  0.1601
   59SAPC   C12 4426   2.005   5.930  11.244 -0.4932 -0.3687  0.6490
   59SAPC  H12A 4427   1.927   5.881  11.300  0.0300 -1.6319  0.3045
   59SAPC  H12B 4428   1.967   5.933  11.143 -2.2168  2.3514  1.2646
   59SAPC   C13 4429   2.087   5.705  11.229 -1.0705 -0.6471  0.3721
   59SAPC  H13A 4430   2.164   5.632  11.251 -0.2255 -0.0543 -0.5669
   59SAPC  H13B 4431   2.004   5.675  11.291 -1.6000  0.6406  0.3175
   59SAPC  H13C 4432   2.075   5.690  11.123  0.4481  0.4439  0.0114
   59SAPC   C14 4433   2.246   5.887  11.190 -0.1746  0.7846 -0.2616
   59SAPC  H14A 4434   2.230   5.892  11.084  0.4054  0.4167 -0.3716
   59SAPC  H14B 4435   2.288   5.983  11.214  0.8484 -0.2914  2.8331
   59SAPC  H14C 4436   2.328   5.818  11.206 -0.4226  1.0242  2.7181
   59SAPC   C15 4437   2.152   5.847  11.417 -0.8084  0.6582  0.2328
   59SAPC  H15A 4438   2.218   5.768  11.449 -0.3388  1.3316  0.9600
   59SAPC  H15B 4439   2.205   5.939  11.435  1.8182  0.0314 -3.2621
   59SAPC  H15C 4440   2.060   5.835  11.472 -0.2890 -2.8285  0.5555
   59SAPC   C11 4441   2.015   6.082  11.277 -0.5469  0.2872  0.7920
   59SAPC  H11A 4442   2.037   6.087  11.386 -2.7092  0.1829  1.2717
   59SAPC  H11B 4443   1.921   6.139  11.265  0.8499  2.7012  0.5701
   59SAPC     P 4444   2.092   6.166  11.039  0.0452  0.1228  0.0913
   59SAPC   O13 4445   2.033   6.300  11.034 -0.0649 -0.5072  0.7121
   59SAPC   O14 4446   2.223   6.143  10.979  0.2080 -0.3880  0.2120
   59SAPC   O12 4447   2.111   6.131  11.192  0.2398  0.6934  0.2430
   59SAPC   O11 4448   1.990   6.058  10.987 -0.3038  0.2641  0.2776
   59SAPC    C1 4449   2.021   5.965  10.884  0.6267 -0.1487 -0.4128
   59SAPC    HA 4450   2.107   5.903  10.915  0.3352  0.9237  2.8719
   59SAPC    HB 4451   1.925   5.908  10.877  1.7088 -2.2865  1.1649
   59SAPC    C2 4452   2.045   6.033  10.747  0.0773 -0.2814 -0.4694
   59SAPC    HS 4453   2.138   6.093  10.758 -1.1479  1.3656  1.6331
   59SAPC   O21 4454   1.932   6.109  10.714  0.3827 -0.1261  0.6166
   59SAPC   C21 4455   1.946   6.207  10.632  0.1335 -0.5953 -0.3734
   59SAPC   O22 4456   2.053   6.247  10.585 -0.3889  1.0336 -0.0882
   59SAPC   C22 4457   1.811   6.270  10.598  0.1644 -0.0692 -0.0064
   59SAPC   H2R 4458   1.737   6.205  10.649  0.1809 -0.2852 -0.2562
   59SAPC   H2S 4459   1.811   6.373  10.641  1.6163  0.1892 -0.5471
   59SAPC    C3 4460   2.073   5.922  10.639 -0.1686 -0.5527 -0.3739
   59SAPC    HX 4461   2.167   5.869  10.666 -0.3680  0.7187  3.4228
   59SAPC    HY 4462   2.090   5.966  10.538 -0.1129  3.2515  1.0926
   59SAPC   O31 4463   1.973   5.819  10.626  0.2457 -0.2196 -0.7931
   59SAPC   C31 4464   1.879   5.833  10.532  1.0524  0.2594 -0.3646
   59SAPC   O32 4465   1.870   5.920  10.449 -0.0304  0.0120 -0.5376
   59SAPC   C32 4466   1.772   5.732  10.557  0.2011 -0.1232 -0.4453
   59SAPC   H2X 4467   1.709   5.765  10.642 -0.5201 -0.8290 -0.6885
   59SAPC   H2Y 4468   1.822   5.633  10.568  0.1347 -0.4254 -2.4393
   59SAPC   C23 4469   1.778   6.266  10.445  0.3134 -0.3904  0.6309
   59SAPC   H3R 4470   1.801   6.161  10.416 -0.4210 -0.3178 -0.2429
   59SAPC   H3S 4471   1.846   6.332  10.386  0.1093 -1.5241 -0.9250
   59SAPC   C24 4472   1.639   6.322  10.407  0.0715  0.5089 -0.1113
   59SAPC   H4R 4473   1.638   6.433  10.417  1.3761  0.4967  0.3932
   59SAPC   H4S 4474   1.570   6.290  10.488  0.6832 -1.3263 -0.2681
   59SAPC   C25 4475   1.575   6.268  10.278  0.4118 -0.6434 -0.6256
   59SAPC   H5R 4476   1.536   6.166  10.285  1.1582 -0.9291 -0.5549
   59SAPC   C26 4477   1.550   6.334  10.159 -0.0639  0.4920 -0.5724
   59SAPC   H6R 4478   1.487   6.285  10.084 -1.0265  1.0567 -0.1535
   59SAPC   C27 4479   1.574   6.474  10.116  0.3610  0.5126  0.0694
   59SAPC   H7R 4480   1.618   6.482  10.014  0.1692 -0.2451 -0.0771
   59SAPC   H7S 4481   1.651   6.518  10.183  2.0649  0.4041 -1.7251
   59SAPC   C28 4482   1.444   6.552  10.123  0.4145  0.1754 -0.2785
   59SAPC   H8R 4483   1.370   6.522  10.199  0.3933 -0.3169 -0.4846
   59SAPC   C29 4484   1.400   6.642  10.025  0.6934  0.1150 -0.1363
   59SAPC   H9R 4485   1.319   6.713  10.047 -0.1922 -1.2719  1.3018
   59SAPC  C210 4486   1.483   6.678   9.910 -0.4009 -0.3187  0.0217
   59SAPC  H10R 4487   1.486   6.581   9.856 -2.0278 -1.8531  2.4678
   59SAPC  H10S 4488   1.590   6.690   9.938 -0.1646  0.4713 -1.1503
   59SAPC  C211 4489   1.439   6.799   9.826  0.4965 -0.3532  0.2144
   59SAPC  H11R 4490   1.453   6.895   9.878 -0.9589  1.5426 -2.6571
   59SAPC  C212 4491   1.395   6.795   9.699  0.3700 -0.0906  0.3925
   59SAPC  H12R 4492   1.378   6.887   9.641  0.8950  0.0416  0.4353
   59SAPC  C213 4493   1.388   6.669   9.607 -0.5798  0.1371  0.1875
   59SAPC  H13R 4494   1.441   6.577   9.640  1.1389  0.7112 -0.8789
   59SAPC  H13S 4495   1.436   6.686   9.509 -0.8331 -0.1449  0.0141
   59SAPC  C214 4496   1.243   6.647   9.582 -0.2686  0.2675  0.2413
   59SAPC  H14R 4497   1.187   6.603   9.666 -1.7257 -0.1609 -0.9161
   59SAPC  C215 4498   1.170   6.665   9.469 -0.3681 -0.4974 -0.2917
   59SAPC  H15R 4499   1.062   6.647   9.461 -0.2384 -2.2826  1.3620
   59SAPC  C216 4500   1.218   6.717   9.344 -0.2780 -0.0180 -0.2172
   59SAPC  H16R 4501   1.322   6.755   9.339 -0.6876  0.9671 -2.8354
   59SAPC  H16S 4502   1.163   6.812   9.326  2.6859  2.0327  0.6912
   59SAPC  C217 4503   1.205   6.614   9.226  0.3837  0.3794 -0.1527
   59SAPC  H17R 4504   1.095   6.595   9.219  0.4318 -0.4059  0.8277
   59SAPC  H17S 4505   1.251   6.516   9.253 -0.8824 -0.3096 -0.4127
   59SAPC  C218 4506   1.268   6.663   9.090 -0.0705 -0.0803 -0.3241
   59SAPC  H18R 4507   1.369   6.689   9.128 -0.2397  0.4200 -0.1999
   59SAPC  H18S 4508   1.218   6.756   9.054 -2.5107 -0.3873  1.9429
   59SAPC  C219 4509   1.289   6.561   8.976  0.5577 -0.3614 -0.0166
   59SAPC  H19R 4510   1.359   6.483   9.013  0.2609  0.3338  2.1257
   59SAPC  H19S 4511   1.335   6.613   8.889 -1.0371 -3.0067 -2.6531
   59SAPC  C220 4512   1.164   6.490   8.917  0.2472  0.7156  1.0373
   59SAPC  H20R 4513   1.088   6.562   8.881 -0.6105 -0.9645 -0.6469
   59SAPC  H20S 4514   1.124   6.426   8.999 -0.0747 -0.2557  0.1422
   59SAPC  H20T 4515   1.208   6.436   8.831 -0.0633  2.0940 -0.0266
   59SAPC   C33 4516   1.673   5.730  10.431 -0.4018  0.1164  0.0158
   59SAPC   H3X 4517   1.622   5.632  10.439  1.0509 -0.5422  2.4551
   59SAPC   H3Y 4518   1.743   5.725  10.345 -1.8023 -2.7934 -1.0823
   59SAPC   C34 4519   1.573   5.837  10.427  0.1536  0.4010  0.3621
   59SAPC   H4X 4520   1.627   5.932  10.406  1.4098 -0.5590 -0.9277
   59SAPC   H4Y 4521   1.517   5.834  10.523 -0.4293  1.4634  0.0723
   59SAPC   C35 4522   1.451   5.824  10.331 -0.3906  0.5047  0.2198
   59SAPC   H5X 4523   1.387   5.915  10.340 -0.1566  0.7602 -0.5922
   59SAPC   H5Y 4524   1.399   5.736  10.373 -0.6180  0.6290  0.2034
   59SAPC   C36 4525   1.486   5.799  10.183  0.2501  1.0249  0.0221
   59SAPC   H6X 4526   1.546   5.706  10.176 -2.1283 -0.5983  0.0606
   59SAPC   H6Y 4527   1.520   5.893  10.135  1.0171  0.6873 -0.1143
   59SAPC   C37 4528   1.368   5.768  10.093  0.2500 -0.1653 -0.1484
   59SAPC   H7X 4529   1.306   5.858  10.074  0.5972  0.3208  0.9440
   59SAPC   H7Y 4530   1.299   5.690  10.132 -2.4889  1.7606 -0.8731
   59SAPC   C38 4531   1.419   5.718   9.962  0.4962  0.4016  0.3869
   59SAPC   H8X 4532   1.454   5.613   9.970 -1.6359 -0.5022 -1.2582
   59SAPC   H8Y 4533   1.503   5.779   9.921  0.5617 -0.2617 -0.4946
   59SAPC   C39 4534   1.298   5.717   9.858  0.3620 -0.5075 -0.1791
   59SAPC   H9X 4535   1.262   5.822   9.853  0.9399 -0.3639 -1.7181
   59SAPC   H9Y 4536   1.226   5.645   9.904 -0.7102  0.0091 -0.9957
   59SAPC  C310 4537   1.337   5.665   9.718  0.2814 -0.1653  0.3130
   59SAPC  H10X 4538   1.362   5.557   9.719  0.7947 -0.0637  2.0967
   59SAPC  H10Y 4539   1.430   5.722   9.695 -0.2869  0.4976 -0.4113
   59SAPC  C311 4540   1.233   5.699   9.612 -0.2662 -0.5983  0.6873
   59SAPC  H11X 4541   1.198   5.802   9.634  0.3884 -0.1090 -0.4888
   59SAPC  H11Y 4542   1.148   5.630   9.632 -0.3591 -0.9336 -0.7316
   59SAPC  C312 4543   1.286   5.693   9.460 -0.0239  0.4400  0.1479
   59SAPC  H12X 4544   1.385   5.741   9.449  0.2958 -0.7367 -2.8618
   59SAPC  H12Y 4545   1.225   5.772   9.411  1.0590  0.8384 -0.5726
   59SAPC  C313 4546   1.269   5.558   9.387  0.3244 -0.3403 -0.3058
   59SAPC  H13X 4547   1.162   5.557   9.356 -0.3454 -0.6584  1.8077
   59SAPC  H13Y 4548   1.285   5.473   9.456 -1.4433 -0.8451 -0.4837
   59SAPC  C314 4549   1.357   5.552   9.260  0.1869  0.2808  0.1951
   59SAPC  H14X 4550   1.350   5.449   9.218  0.4255 -0.4668  1.8927
   59SAPC  H14Y 4551   1.463   5.563   9.293 -0.1454 -1.9722  2.3330
   59SAPC  C315 4552   1.315   5.647   9.144 -0.5457 -0.7205 -0.4938
   59SAPC  H15X 4553   1.311   5.752   9.180  0.6218 -1.9767  3.8690
   59SAPC  H15Y 4554   1.211   5.611   9.127  0.0972 -1.9273 -2.1508
   59SAPC  C316 4555   1.377   5.638   9.009  0.0893 -0.0378 -0.2133
   59SAPC  H16X 4556   1.411   5.532   9.006  0.2783  0.0186 -0.0845
   59SAPC  H16Y 4557   1.463   5.708   9.004  1.4668 -1.5555  1.0553
   59SAPC  C317 4558   1.284   5.670   8.895  0.1133  0.0074 -0.2634
   59SAPC  H17X 4559   1.220   5.754   8.930 -2.2577 -1.0651 -1.7006
   59SAPC  H17Y 4560   1.209   5.589   8.879 -0.6917  0.4783  1.0212
   59SAPC  C318 4561   1.349   5.702   8.764 -0.2880  0.1220 -0.1748
   59SAPC  H18X 4562   1.275   5.702   8.681 -1.5399  3.2408  0.8201
   59SAPC  H18Y 4563   1.419   5.625   8.726  0.5540 -0.0555  1.6102
   59SAPC  H18Z 4564   1.411   5.794   8.770  0.0356 -0.1476  0.8250
   60SAPC     N 4565   3.363   3.873  10.460  0.3965  0.2604 -0.6564
   60SAPC   C12 4566   3.242   3.957  10.399 -0.7665 -0.1350 -0.9787
   60SAPC  H12A 4567   3.157   3.914  10.449 -1.1243 -2.0611 -3.0317
   60SAPC  H12B 4568   3.228   3.921  10.298 -2.5198  2.3925 -1.7161
   60SAPC   C13 4569   3.403   3.935  10.591 -0.4610 -0.2059  0.3506
   60SAPC  H13A 4570   3.507   3.918  10.614 -0.5726 -1.6821 -0.1133
   60SAPC  H13B 4571   3.392   4.041  10.572  1.3380 -0.5217 -3.2615
   60SAPC  H13C 4572   3.345   3.904  10.677 -0.3220 -1.3419  0.0522
   60SAPC   C14 4573   3.316   3.733  10.474  0.5364 -0.7396  1.0830
   60SAPC  H14A 4574   3.240   3.737  10.551 -1.6056 -0.6462 -0.9144
   60SAPC  H14B 4575   3.268   3.712  10.379 -2.8395  0.1801  2.4269
   60SAPC  H14C 4576   3.399   3.667  10.495  0.7246 -0.4762  1.1663
   60SAPC   C15 4577   3.484   3.880  10.373 -1.3269 -0.0843  0.3391
   60SAPC  H15A 4578   3.569   3.822  10.405  0.6025  0.0270 -3.9028
   60SAPC  H15B 4579   3.457   3.855  10.271 -0.9668  1.1744 -0.0790
   60SAPC  H15C 4580   3.524   3.980  10.372  0.7093 -0.8590  0.2815
   60SAPC   C11 4581   3.241   4.108  10.405 -0.7306  0.0151 -0.9846
   60SAPC  H11A 4582   3.154   4.146  10.347 -2.4921 -1.6044  0.4750
   60SAPC  H11B 4583   3.337   4.134  10.356 -0.9204 -0.0050 -1.3718
   60SAPC     P 4584   3.280   4.293  10.601 -0.2950 -0.0077  0.1336
   60SAPC   O13 4585   3.189   4.326  10.709  0.4136 -0.5128 -0.3177
   60SAPC   O14 4586   3.421   4.272  10.628 -0.2595  0.1279  0.4600
   60SAPC   O12 4587   3.229   4.156  10.540 -0.2854  0.0005 -0.0279
   60SAPC   O11 4588   3.264   4.402  10.484 -0.1340 -0.6745 -0.0706
   60SAPC    C1 4589   3.139   4.467  10.476 -0.6806  0.4396  0.4564
   60SAPC    HA 4590   3.067   4.408  10.417  1.5508 -1.1224 -0.8486
   60SAPC    HB 4591   3.104   4.486  10.580  1.9085 -1.4973  1.7737
   60SAPC    C2 4592   3.158   4.605  10.402  0.5845 -0.3072 -0.1836
   60SAPC    HS 4593   3.061   4.658  10.389 -1.1445 -1.8270  4.4408
   60SAPC   O21 4594   3.226   4.594  10.274  0.3059  0.1014  0.0761
   60SAPC   C21 4595   3.157   4.511  10.192  0.2087 -0.1603 -0.6032
   60SAPC   O22 4596   3.041   4.474  10.203 -0.5372 -0.0679  0.5256
   60SAPC   C22 4597   3.243   4.460  10.075  0.3725 -0.0766  0.5160
   60SAPC   H2R 4598   3.243   4.543  10.001  2.1439 -0.3031  0.2073
   60SAPC   H2S 4599   3.344   4.450  10.121 -0.2094 -1.3510  1.5976
   60SAPC    C3 4600   3.234   4.713  10.488  0.2099 -0.5305  0.5764
   60SAPC    HX 4601   3.304   4.677  10.567  0.5476 -0.4855  0.2988
   60SAPC    HY 4602   3.151   4.750  10.553 -1.4428 -1.3056 -1.0110
   60SAPC   O31 4603   3.285   4.826  10.412 -0.1445  0.4005  0.1335
   60SAPC   C31 4604   3.399   4.811  10.357 -0.6061 -0.5122  0.3890
   60SAPC   O32 4605   3.485   4.733  10.393 -0.0606 -0.4601 -0.0148
   60SAPC   C32 4606   3.413   4.906  10.237 -0.5029  0.1596 -0.2743
   60SAPC   H2X 4607   3.509   4.898  10.182 -1.0468  0.1229 -1.2620
   60SAPC   H2Y 4608   3.399   5.012  10.268  1.3741  0.5861 -0.7971
   60SAPC   C23 4609   3.208   4.325  10.015 -0.3513  0.3701 -0.2549
   60SAPC   H3R 4610   3.104   4.324   9.973 -0.4933 -1.1889  0.0843
   60SAPC   H3S 4611   3.214   4.245  10.091  1.8350  1.2570  0.5691
   60SAPC   C24 4612   3.315   4.290   9.902 -0.0327  0.3952 -0.7607
   60SAPC   H4R 4613   3.419   4.304   9.939  0.7980 -1.8660 -2.0450
   60SAPC   H4S 4614   3.296   4.361   9.820  1.2603  2.5526  0.7082
   60SAPC   C25 4615   3.310   4.138   9.875  0.0232  0.4364  0.2321
   60SAPC   H5R 4616   3.317   4.071   9.962  0.6175 -0.5146 -0.5344
   60SAPC   C26 4617   3.306   4.080   9.753 -1.0490 -0.0912 -0.1272
   60SAPC   H6R 4618   3.302   3.970   9.753  0.4279 -0.1828  0.6477
   60SAPC   C27 4619   3.303   4.150   9.617  0.0152 -0.5927 -0.2610
   60SAPC   H7R 4620   3.327   4.083   9.531  2.9959 -0.0155 -0.0006
   60SAPC   H7S 4621   3.382   4.228   9.605 -0.7137  0.0241 -1.2231
   60SAPC   C28 4622   3.169   4.223   9.592  0.5883  1.0803 -0.2109
   60SAPC   H8R 4623   3.096   4.233   9.673 -0.3555 -2.2398 -0.5051
   60SAPC   C29 4624   3.133   4.282   9.469  0.3238 -0.1816 -0.6354
   60SAPC   H9R 4625   3.027   4.313   9.469  0.1018 -0.9408 -0.2730
   60SAPC  C210 4626   3.213   4.293   9.344  0.5342 -0.5569 -0.0022
   60SAPC  H10R 4627   3.156   4.261   9.254  1.7247  0.3902 -1.1298
   60SAPC  H10S 4628   3.294   4.217   9.340  1.4551  0.4466 -2.2590
   60SAPC  C211 4629   3.277   4.425   9.329 -0.3494  0.2561 -0.5365
   60SAPC  H11R 4630   3.380   4.420   9.369 -0.7100  1.7991  0.6754
   60SAPC  C212 4631   3.246   4.539   9.270  0.1911 -0.2465 -0.4216
   60SAPC  H12R 4632   3.306   4.629   9.291 -0.6456 -0.0424  1.2819
   60SAPC  C213 4633   3.112   4.570   9.201  0.0729  0.7405  0.1048
   60SAPC  H13R 4634   3.038   4.605   9.276 -0.0292  0.4352  0.1489
   60SAPC  H13S 4635   3.061   4.473   9.182  0.2165  0.6741  0.0505
   60SAPC  C214 4636   3.118   4.666   9.086 -0.5096  0.0266  0.1012
   60SAPC  H14R 4637   3.147   4.770   9.104 -0.3354 -0.2956  1.8551
   60SAPC  C215 4638   3.130   4.628   8.961  0.1816 -0.5609 -0.7813
   60SAPC  H15R 4639   3.145   4.696   8.876 -3.6857  1.7997  0.2402
   60SAPC  C216 4640   3.118   4.478   8.916 -0.1516  0.1722  0.4111
   60SAPC  H16R 4641   3.092   4.474   8.808  0.9334  1.8921  0.0415
   60SAPC  H16S 4642   3.045   4.427   8.981  0.3137 -0.7055  0.2537
   60SAPC  C217 4643   3.247   4.395   8.934  1.0715  0.3331 -0.4450
   60SAPC  H17R 4644   3.293   4.421   9.032 -2.1297 -0.0118  1.2763
   60SAPC  H17S 4645   3.315   4.417   8.849  1.2117  0.9615 -0.1801
   60SAPC  C218 4646   3.204   4.248   8.924  0.5594  0.8992  0.2882
   60SAPC  H18R 4647   3.170   4.229   8.820  3.7215  0.5073 -0.7796
   60SAPC  H18S 4648   3.126   4.230   9.001 -0.1435  0.4944 -0.5058
   60SAPC  C219 4649   3.328   4.158   8.941 -0.7101 -0.3576  0.3840
   60SAPC  H19R 4650   3.407   4.211   8.998  1.4039 -2.5913 -0.3195
   60SAPC  H19S 4651   3.366   4.142   8.838 -0.1234 -0.5350  0.6235
   60SAPC  C220 4652   3.305   4.022   9.004 -0.3076  0.1790 -0.2470
   60SAPC  H20R 4653   3.312   4.038   9.113 -2.9042  1.1561 -0.1513
   60SAPC  H20S 4654   3.380   3.952   8.960 -1.3214 -1.4720  0.5822
   60SAPC  H20T 4655   3.212   3.976   8.964 -1.0559  1.6344 -0.2040
   60SAPC   C33 4656   3.303   4.881  10.137  0.4616  0.1366 -0.5681
   60SAPC   H3X 4657   3.201   4.889  10.181 -0.8223 -0.8157 -3.1361
   60SAPC   H3Y 4658   3.314   4.778  10.097 -2.0261 -0.4024 -0.0711
   60SAPC   C34 4659   3.317   4.976  10.021 -0.0951  0.2557 -0.1052
   60SAPC   H4X 4660   3.422   4.987   9.989 -0.6614  2.3689 -1.3814
   60SAPC   H4Y 4661   3.287   5.080  10.045  1.1760  0.6839 -0.3302
   60SAPC   C35 4662   3.238   4.934   9.900 -1.0143 -0.1936  0.1996
   60SAPC   H5X 4663   3.131   4.928   9.930 -0.7947  1.4550  1.4808
   60SAPC   H5Y 4664   3.279   4.834   9.877  1.2531  0.4951  1.0386
   60SAPC   C36 4665   3.255   5.024   9.779 -0.3044  0.0774  0.0350
   60SAPC   H6X 4666   3.363   5.022   9.753 -0.0118  1.9426  0.9429
   60SAPC   H6Y 4667   3.226   5.128   9.805 -1.6740 -0.1145 -0.6518
   60SAPC   C37 4668   3.160   4.976   9.666  0.6217  0.2744  0.4798
   60SAPC   H7X 4669   3.059   4.999   9.705  0.9987  0.1319  1.5935
   60SAPC   H7Y 4670   3.174   4.867   9.653 -0.6248  0.0302  1.0920
   60SAPC   C38 4671   3.165   5.048   9.528 -0.4070 -0.8174 -0.5713
   60SAPC   H8X 4672   3.268   5.051   9.486 -0.1292 -0.3141  0.1261
   60SAPC   H8Y 4673   3.144   5.157   9.540  0.8838 -0.5973 -0.0747
   60SAPC   C39 4674   3.070   4.988   9.429  0.6873 -0.4693 -0.4907
   60SAPC   H9X 4675   2.965   4.990   9.466  0.1879 -1.8230 -1.7510
   60SAPC   H9Y 4676   3.106   4.883   9.424 -0.2147 -0.7643 -1.2253
   60SAPC  C310 4677   3.086   5.058   9.289 -0.0945  0.4088 -0.5738
   60SAPC  H10X 4678   3.194   5.051   9.263  0.0027 -1.6406  0.2131
   60SAPC  H10Y 4679   3.061   5.166   9.297  1.9528  1.1772 -2.9863
   60SAPC  C311 4680   2.989   5.020   9.173 -0.9009  0.1416  0.1194
   60SAPC  H11X 4681   2.892   4.983   9.212  0.5570 -4.1288  0.2377
   60SAPC  H11Y 4682   3.049   4.940   9.123  1.1240  0.7364  1.4515
   60SAPC  C312 4683   2.978   5.136   9.073 -0.0018  0.1239 -0.2564
   60SAPC  H12X 4684   3.075   5.190   9.066 -0.9764  2.0070  0.0862
   60SAPC  H12Y 4685   2.903   5.205   9.117  0.5410  1.0337 -0.7188
   60SAPC  C313 4686   2.939   5.091   8.931  0.2824  0.2147  0.2492
   60SAPC  H13X 4687   2.886   4.995   8.951  2.0374 -0.8387  0.0625
   60SAPC  H13Y 4688   3.027   5.071   8.866 -0.1829 -0.6128 -0.1389
   60SAPC  C314 4689   2.851   5.194   8.867  0.5158 -0.2566  0.1238
   60SAPC  H14X 4690   2.893   5.295   8.844 -2.1292  1.4366  2.0992
   60SAPC  H14Y 4691   2.761   5.220   8.927  0.8233  1.2851 -0.0312
   60SAPC  C315 4692   2.797   5.125   8.742  0.1609 -0.5237 -0.3640
   60SAPC  H15X 4693   2.746   5.030   8.769 -0.3210  0.2809  1.6975
   60SAPC  H15Y 4694   2.882   5.104   8.673 -0.3617  2.4628 -2.1260
   60SAPC  C316 4695   2.703   5.212   8.657 -0.5400  0.0368  0.1974
   60SAPC  H16X 4696   2.760   5.301   8.623  0.0517 -0.3552  0.1558
   60SAPC  H16Y 4697   2.623   5.251   8.724 -1.8912  1.3547 -2.0525
   60SAPC  C317 4698   2.632   5.151   8.542  0.0205  0.1107  0.3703
   60SAPC  H17X 4699   2.716   5.115   8.479 -0.7761 -0.1844 -0.5506
   60SAPC  H17Y 4700   2.570   5.232   8.498  0.8369  0.3240 -0.4084
   60SAPC  C318 4701   2.533   5.036   8.565  0.8047  0.8410  0.0504
   60SAPC  H18X 4702   2.490   5.010   8.465  0.2692 -0.9963  0.7232
   60SAPC  H18Y 4703   2.451   5.061   8.636 -0.9320  3.0497 -2.4820
   60SAPC  H18Z 4704   2.593   4.946   8.587  0.6471  1.1972  2.1203
   61SAPC     N 4705   5.401   3.634  10.903  0.4882  0.8934  0.2131
   61SAPC   C12 4706   5.426   3.623  10.754 -0.3624 -0.5049 -0.5162
   61SAPC  H12A 4707   5.510   3.561  10.727  0.2880  0.9385 -2.0180
   61SAPC  H12B 4708   5.450   3.721  10.715 -0.0041 -0.3477  0.0999
   61SAPC   C13 4709   5.342   3.504  10.959 -0.3576 -0.2991  0.4535
   61SAPC  H13A 4710   5.333   3.526  11.064  0.8773  2.8102  0.0424
   61SAPC  H13B 4711   5.244   3.476  10.923 -1.3528  0.4168  2.4522
   61SAPC  H13C 4712   5.409   3.420  10.947 -1.1686 -1.0523  1.1458
   61SAPC   C14 4713   5.534   3.652  10.970  0.6047 -0.2246 -0.1811
   61SAPC  H14A 4714   5.520   3.665  11.077  0.9246 -0.1416 -0.1488
   61SAPC  H14B 4715   5.605   3.572  10.953 -0.8421 -0.9578 -3.4047
   61SAPC  H14C 4716   5.583   3.731  10.916 -2.3386  0.4222 -2.1454
   61SAPC   C15 4717   5.305   3.744  10.943 -0.3475 -0.4964  0.2059
   61SAPC  H15A 4718   5.344   3.840  10.911 -1.3727  0.4111  1.5447
   61SAPC  H15B 4719   5.208   3.737  10.897 -1.0337  0.1697  1.5040
   61SAPC  H15C 4720   5.279   3.742  11.048 -2.6862 -0.8010 -0.3281
   61SAPC   C11 4721   5.299   3.572  10.672 -0.4398  0.3420  0.4509
   61SAPC  H11A 4722   5.287   3.462  10.679  1.4530  0.0214 -0.3899
   61SAPC  H11B 4723   5.341   3.586  10.570  3.3902 -1.3864  1.5968
   61SAPC     P 4724   5.043   3.622  10.638 -0.2511  0.0042 -0.1886
   61SAPC   O13 4725   5.001   3.481  10.668 -0.5309  0.5625 -0.2771
   61SAPC   O14 4726   4.950   3.731  10.684 -0.3564  0.6069 -0.8023
   61SAPC   O12 4727   5.180   3.649  10.698  0.2004 -0.1152  0.2768
   61SAPC   O11 4728   5.063   3.641  10.485 -0.1820  0.3600 -0.2548
   61SAPC    C1 4729   5.125   3.764  10.444  0.4321 -0.0811  0.0181
   61SAPC    HA 4730   5.061   3.850  10.473  1.1377  0.1420  0.9423
   61SAPC    HB 4731   5.226   3.774  10.488  1.1656 -1.4168 -1.2827
   61SAPC    C2 4732   5.150   3.757  10.293 -0.0663  0.2420 -0.3659
   61SAPC    HS 4733   5.198   3.851  10.259 -1.2382  0.9299 -0.1692
   61SAPC   O21 4734   5.027   3.748  10.228  0.3968 -0.7380 -0.4362
   61SAPC   C21 4735   5.027   3.797  10.097  1.2079  0.1824 -0.6486
   61SAPC   O22 4736   5.121   3.847  10.046  0.2381  0.0806 -0.1236
   61SAPC   C22 4737   4.897   3.754  10.015  0.4958  0.0671 -0.4119
   61SAPC   H2R 4738   4.919   3.646   9.997  0.1462 -0.1403  0.3539
   61SAPC   H2S 4739   4.809   3.765  10.082  2.1929 -0.4255  2.0637
   61SAPC    C3 4740   5.247   3.639  10.257 -0.2744 -0.4263  0.3525
   61SAPC    HX 4741   5.190   3.550  10.289 -0.1255 -0.6930 -0.1159
   61SAPC    HY 4742   5.341   3.646  10.316 -0.3270  0.4138  0.3573
   61SAPC   O31 4743   5.274   3.622  10.116 -0.1414 -0.0246 -0.4653
   61SAPC   C31 4744   5.392   3.673  10.075 -0.4054 -0.0883  0.7909
   61SAPC   O32 4745   5.466   3.747  10.133 -0.8003 -0.1900  0.1553
   61SAPC   C32 4746   5.417   3.627   9.930  0.4260 -0.0082 -0.6033
   61SAPC   H2X 4747   5.396   3.519   9.917 -0.5955  0.1598 -0.4935
   61SAPC   H2Y 4748   5.527   3.643   9.925  0.7523 -2.0529 -0.7695
   61SAPC   C23 4749   4.890   3.817   9.879  0.3065 -0.6098  0.2207
   61SAPC   H3R 4750   4.980   3.809   9.814  1.0219  1.2277  0.9201
   61SAPC   H3S 4751   4.863   3.923   9.898 -2.7332 -1.2866  0.1176
   61SAPC   C24 4752   4.760   3.761   9.806  0.5035  0.0331  0.1012
   61SAPC   H4R 4753   4.684   3.796   9.879  0.6195  2.7131 -0.9754
   61SAPC   H4S 4754   4.769   3.650   9.807  0.6064  0.0426  0.2592
   61SAPC   C25 4755   4.726   3.814   9.670 -0.4234  0.5602  0.4169
   61SAPC   H5R 4756   4.815   3.852   9.617  0.5654 -0.8039  1.0194
   61SAPC   C26 4757   4.606   3.810   9.607  0.5597  0.4860 -0.3621
   61SAPC   H6R 4758   4.591   3.848   9.505 -1.2884  4.5118  1.1825
   61SAPC   C27 4759   4.481   3.755   9.675 -0.5093 -0.0984 -0.1820
   61SAPC   H7R 4760   4.493   3.677   9.753 -1.7820  0.2717  0.4149
   61SAPC   H7S 4761   4.422   3.720   9.588 -2.2086  0.4144  0.7229
   61SAPC   C28 4762   4.399   3.864   9.744 -0.3566  0.4525 -0.2254
   61SAPC   H8R 4763   4.400   3.849   9.853 -0.6706 -0.5276 -0.3460
   61SAPC   C29 4764   4.338   3.966   9.693 -0.0064 -0.0193 -0.4688
   61SAPC   H9R 4765   4.294   4.039   9.762  0.7230 -0.6844  0.7395
   61SAPC  C210 4766   4.337   3.996   9.548 -1.1548 -0.4530 -0.0379
   61SAPC  H10R 4767   4.232   3.999   9.509 -1.5409  1.0745  1.0450
   61SAPC  H10S 4768   4.383   3.913   9.490 -1.6395 -2.4017  2.2559
   61SAPC  C211 4769   4.402   4.120   9.499  0.0487  0.2561 -0.5265
   61SAPC  H11R 4770   4.444   4.188   9.575 -0.4766  0.7981 -0.7119
   61SAPC  C212 4771   4.390   4.157   9.368  0.3373  0.1240  0.9520
   61SAPC  H12R 4772   4.434   4.256   9.350 -0.3314  0.0156 -1.7319
   61SAPC  C213 4773   4.321   4.094   9.254 -0.3722  0.3240 -0.6122
   61SAPC  H13R 4774   4.336   3.986   9.276  0.2493  0.7470  1.1523
   61SAPC  H13S 4775   4.375   4.116   9.159  0.0571  0.0358 -0.4375
   61SAPC  C214 4776   4.169   4.104   9.245  0.3891  0.0015 -0.1495
   61SAPC  H14R 4777   4.119   4.030   9.309  1.8042 -0.2981  0.6444
   61SAPC  C215 4778   4.095   4.184   9.159 -0.0632  0.3999  0.0603
   61SAPC  H15R 4779   3.986   4.192   9.172  0.0819  0.2872  1.4889
   61SAPC  C216 4780   4.141   4.273   9.046 -0.8174 -0.5857 -0.5154
   61SAPC  H16R 4781   4.244   4.308   9.070  0.1435 -1.1343 -3.3676
   61SAPC  H16S 4782   4.079   4.364   9.046  3.2109  2.4621  1.3809
   61SAPC  C217 4783   4.151   4.197   8.911 -0.0220  0.1156  0.4422
   61SAPC  H17R 4784   4.200   4.272   8.845  0.4341 -2.7451 -2.7296
   61SAPC  H17S 4785   4.048   4.185   8.871 -0.3526 -1.3708  1.6407
   61SAPC  C218 4786   4.250   4.073   8.903 -0.3905  0.0583  0.2821
   61SAPC  H18R 4787   4.208   3.998   8.974 -0.9786  0.5148  0.4242
   61SAPC  H18S 4788   4.351   4.107   8.933 -0.7404  0.7952  0.6380
   61SAPC  C219 4789   4.283   4.013   8.766 -0.3964 -0.2295 -0.2451
   61SAPC  H19R 4790   4.197   3.948   8.739 -0.6573 -0.1861  0.4639
   61SAPC  H19S 4791   4.378   3.956   8.780 -0.1973  0.2474  0.4102
   61SAPC  C220 4792   4.303   4.115   8.658  0.7694 -0.4614 -0.6582
   61SAPC  H20R 4793   4.313   4.072   8.556  2.2083 -1.8861  0.0354
   61SAPC  H20S 4794   4.377   4.194   8.681 -0.8680  0.7246  0.8261
   61SAPC  H20T 4795   4.211   4.177   8.651  0.5363 -0.7001  0.1913
   61SAPC   C33 4796   5.346   3.693   9.816  0.1868  0.4484  0.2709
   61SAPC   H3X 4797   5.377   3.800   9.808  0.2486  0.3245 -1.4841
   61SAPC   H3Y 4798   5.236   3.689   9.833  0.2923 -2.8237  0.7335
   61SAPC   C34 4799   5.390   3.633   9.681 -0.4649 -0.6173 -0.2952
   61SAPC   H4X 4800   5.369   3.523   9.681  2.5226 -1.2665 -0.1596
   61SAPC   H4Y 4801   5.500   3.626   9.694 -0.2982 -0.3876 -1.4611
   61SAPC   C35 4802   5.353   3.712   9.554 -0.3413 -0.2456  0.4858
   61SAPC   H5X 4803   5.416   3.678   9.469 -0.0351 -0.2114  0.6968
   61SAPC   H5Y 4804   5.376   3.818   9.579 -1.0269  0.1468 -0.4994
   61SAPC   C36 4805   5.197   3.703   9.526  0.1730  0.2029 -0.1193
   61SAPC   H6X 4806   5.132   3.727   9.613 -1.2222 -0.9944 -0.7818
   61SAPC   H6Y 4807   5.164   3.600   9.498 -1.2177  0.1866  1.4430
   61SAPC   C37 4808   5.167   3.804   9.413  0.2474  0.4720 -1.2312
   61SAPC   H7X 4809   5.239   3.768   9.336  0.1544  1.8681 -2.0202
   61SAPC   H7Y 4810   5.201   3.906   9.443 -1.4518  0.6224  0.3875
   61SAPC   C38 4811   5.023   3.800   9.361 -0.1780 -0.3431 -0.5166
   61SAPC   H8X 4812   4.948   3.806   9.443 -0.4953 -2.1966 -0.6313
   61SAPC   H8Y 4813   4.999   3.697   9.325 -1.7055 -0.0477 -0.4307
   61SAPC   C39 4814   4.990   3.895   9.247  0.6881  0.1212 -0.2442
   61SAPC   H9X 4815   5.067   3.885   9.168 -0.4898 -1.6378 -1.2441
   61SAPC   H9Y 4816   4.986   3.999   9.285  1.0253 -0.7465  2.3716
   61SAPC  C310 4817   4.853   3.875   9.180 -0.4895  0.0502 -0.0652
   61SAPC  H10X 4818   4.858   3.795   9.103 -1.6622  0.1535 -0.2734
   61SAPC  H10Y 4819   4.825   3.965   9.122 -1.1443  0.4041  0.7693
   61SAPC  C311 4820   4.740   3.851   9.279  0.2415 -0.1931 -0.0213
   61SAPC  H11X 4821   4.742   3.923   9.364 -2.1168 -0.6080  0.4675
   61SAPC  H11Y 4822   4.755   3.751   9.325 -2.2451 -0.6346 -0.0228
   61SAPC  C312 4823   4.596   3.854   9.218  0.4813 -0.4464 -0.2184
   61SAPC  H12X 4824   4.563   3.955   9.185  1.7612  0.4492  1.0779
   61SAPC  H12Y 4825   4.520   3.812   9.287 -0.0682  1.4165  0.3799
   61SAPC  C313 4826   4.582   3.766   9.097  0.5017  0.4728  0.5139
   61SAPC  H13X 4827   4.586   3.661   9.133  0.1722 -0.2568 -1.4482
   61SAPC  H13Y 4828   4.646   3.788   9.009 -0.0639 -0.4685 -0.1488
   61SAPC  C314 4829   4.435   3.788   9.046 -0.5416  0.2117 -0.3640
   61SAPC  H14X 4830   4.428   3.895   9.017 -0.3773  0.6050  1.0017
   61SAPC  H14Y 4831   4.381   3.760   9.139  0.4909  1.3197  0.6052
   61SAPC  C315 4832   4.394   3.688   8.933  0.5741  0.4426 -0.7086
   61SAPC  H15X 4833   4.293   3.707   8.892 -0.3531 -3.7428 -0.8154
   61SAPC  H15Y 4834   4.388   3.590   8.985 -0.5369  1.4102  1.0846
   61SAPC  C316 4835   4.486   3.669   8.816  0.0204  0.2878 -0.1894
   61SAPC  H16X 4836   4.566   3.597   8.845 -0.8960 -0.4832  0.4853
   61SAPC  H16Y 4837   4.533   3.763   8.781  0.5814 -0.0264 -0.2822
   61SAPC  C317 4838   4.424   3.598   8.696  0.2203 -0.3027  0.5061
   61SAPC  H17X 4839   4.505   3.592   8.619 -0.5336 -0.0483 -0.3227
   61SAPC  H17Y 4840   4.349   3.664   8.647  3.0938  3.2363  0.3501
   61SAPC  C318 4841   4.371   3.453   8.711  0.5250 -0.4325  0.3182
   61SAPC  H18X 4842   4.292   3.430   8.637  1.2360  2.0484 -1.3462
   61SAPC  H18Y 4843   4.329   3.447   8.814 -0.6301 -0.0926 -0.1171
   61SAPC  H18Z 4844   4.448   3.373   8.711  1.1913  0.1323  2.3396
   62SAPC     N 4845   3.425   1.215  10.830 -0.1342  0.1525  0.0276
   62SAPC   C12 4846   3.399   1.214  10.682 -0.1575  0.1664  0.3687
   62SAPC  H12A 4847   3.365   1.309  10.645 -1.7739 -0.5422 -0.0355
   62SAPC  H12B 4848   3.323   1.142  10.657  0.9346 -0.8064 -0.2937
   62SAPC   C13 4849   3.528   1.318  10.871 -0.3809 -0.0493  0.5418
   62SAPC  H13A 4850   3.504   1.415  10.829 -0.8552  0.3077  1.6054
   62SAPC  H13B 4851   3.533   1.344  10.975  0.1818  0.2821  0.4360
   62SAPC  H13C 4852   3.623   1.290  10.829 -1.2528 -2.0121 -0.2877
   62SAPC   C14 4853   3.297   1.246  10.904 -0.4510  0.7118  0.0294
   62SAPC  H14A 4854   3.266   1.349  10.894 -0.0331  0.8154 -0.2158
   62SAPC  H14B 4855   3.217   1.184  10.865 -0.5317  0.8280  0.0106
   62SAPC  H14C 4856   3.313   1.237  11.010 -0.7654  1.0902  0.1082
   62SAPC   C15 4857   3.477   1.086  10.872  0.0451  0.1318  0.2456
   62SAPC  H15A 4858   3.434   1.005  10.813 -1.9455  3.0686 -2.7044
   62SAPC  H15B 4859   3.578   1.091  10.833 -0.3230  3.6194 -0.6071
   62SAPC  H15C 4860   3.460   1.073  10.978  0.1474 -1.8424  0.0547
   62SAPC   C11 4861   3.516   1.174  10.589 -0.7742 -0.0938  0.5551
   62SAPC  H11A 4862   3.485   1.176  10.482 -0.3048 -0.1924  0.4158
   62SAPC  H11B 4863   3.544   1.071  10.621 -1.4894 -0.1408  1.0650
   62SAPC     P 4864   3.626   1.395  10.520 -0.6025  0.1337  0.0817
   62SAPC   O13 4865   3.494   1.452  10.522 -0.2497 -0.0839  0.1353
   62SAPC   O14 4866   3.741   1.483  10.554 -0.4636 -0.0330  0.2899
   62SAPC   O12 4867   3.628   1.258  10.611 -0.4508 -0.2291 -0.3791
   62SAPC   O11 4868   3.661   1.343  10.378  0.2137  0.3470 -0.2304
   62SAPC    C1 4869   3.755   1.239  10.363  0.2635  1.0876 -0.3359
   62SAPC    HA 4870   3.837   1.228  10.437  1.3369 -1.0422 -1.7179
   62SAPC    HB 4871   3.698   1.144  10.365  2.0583 -0.0954 -1.4815
   62SAPC    C2 4872   3.825   1.241  10.223  1.5102 -1.0676 -0.5475
   62SAPC    HS 4873   3.883   1.336  10.225  0.5195 -0.4471  0.8972
   62SAPC   O21 4874   3.722   1.257  10.124 -0.3526  0.6390 -0.1886
   62SAPC   C21 4875   3.754   1.318  10.010  0.2274  0.2383  0.0491
   62SAPC   O22 4876   3.861   1.371   9.988  0.5022  0.5871 -0.2017
   62SAPC   C22 4877   3.628   1.315   9.917  0.0771  0.2285 -0.6035
   62SAPC   H2R 4878   3.575   1.219   9.934  1.1641 -0.1997  0.4888
   62SAPC   H2S 4879   3.564   1.396   9.958  1.0162  0.2299  0.9179
   62SAPC    C3 4880   3.916   1.119  10.198  0.2719  0.5236 -0.2002
   62SAPC    HX 4881   3.858   1.026  10.215  0.9541  0.3397  1.2450
   62SAPC    HY 4882   3.991   1.104  10.278 -0.6527 -0.3471  0.5402
   62SAPC   O31 4883   3.952   1.105  10.059 -0.0179  0.0143  0.0475
   62SAPC   C31 4884   4.077   1.137  10.033 -0.3412  0.2983 -1.1293
   62SAPC   O32 4885   4.163   1.166  10.114 -0.4662 -0.1757  0.0497
   62SAPC   C32 4886   4.107   1.124   9.886 -0.0272 -0.2116  0.8254
   62SAPC   H2X 4887   4.024   1.177   9.835  1.0861  1.7022  0.8893
   62SAPC   H2Y 4888   4.111   1.014   9.871  0.6350 -0.4373  2.4638
   62SAPC   C23 4889   3.653   1.350   9.769 -0.3773 -0.0192 -0.5044
   62SAPC   H3R 4890   3.712   1.265   9.728 -1.6630 -1.2850  0.1577
   62SAPC   H3S 4891   3.707   1.446   9.777  0.3682 -0.5633  1.5476
   62SAPC   C24 4892   3.530   1.363   9.689  0.7340  0.2822  0.2106
   62SAPC   H4R 4893   3.466   1.447   9.725 -0.0249  0.3759 -1.2956
   62SAPC   H4S 4894   3.457   1.280   9.695 -0.6246  1.4770  0.9426
   62SAPC   C25 4895   3.563   1.400   9.546  0.1005 -0.3064 -0.8795
   62SAPC   H5R 4896   3.611   1.498   9.534  0.0504 -0.1694 -0.0247
   62SAPC   C26 4897   3.563   1.323   9.436 -0.4959  0.9382  0.2734
   62SAPC   H6R 4898   3.582   1.360   9.335 -0.4314  0.5564  0.1437
   62SAPC   C27 4899   3.524   1.179   9.430  0.0644 -0.4660 -0.3322
   62SAPC   H7R 4900   3.457   1.172   9.518  0.1296 -1.7530 -0.3674
   62SAPC   H7S 4901   3.604   1.105   9.451 -1.8645 -1.9455  2.4659
   62SAPC   C28 4902   3.430   1.152   9.312 -0.9197  0.1058 -0.3530
   62SAPC   H8R 4903   3.324   1.160   9.342 -0.7934  1.1999 -0.1505
   62SAPC   C29 4904   3.467   1.106   9.191 -0.2928  0.0828  0.7098
   62SAPC   H9R 4905   3.383   1.085   9.122 -0.0498  0.6016  0.2447
   62SAPC  C210 4906   3.604   1.056   9.146 -0.0404 -0.0527  0.2553
   62SAPC  H10R 4907   3.620   0.948   9.170  3.2629  0.3548  0.3418
   62SAPC  H10S 4908   3.685   1.099   9.209 -0.4375  0.0266  0.7154
   62SAPC  C211 4909   3.635   1.092   9.001  0.6348 -0.4638  0.1825
   62SAPC  H11R 4910   3.645   1.194   8.961 -0.7442 -0.4568 -0.1666
   62SAPC  C212 4911   3.627   0.994   8.908 -0.1833  0.1995 -0.6427
   62SAPC  H12R 4912   3.664   1.020   8.808  3.1787  0.1222  0.4801
   62SAPC  C213 4913   3.613   0.841   8.927 -0.3911 -0.7450  0.1241
   62SAPC  H13R 4914   3.558   0.814   9.020 -1.4177  1.7989  0.3510
   62SAPC  H13S 4915   3.716   0.806   8.950  0.4877  2.2632  1.2677
   62SAPC  C214 4916   3.557   0.762   8.814  0.8304 -0.6893  0.5195
   62SAPC  H14R 4917   3.448   0.748   8.819  0.4537  1.3925 -0.8445
   62SAPC  C215 4918   3.617   0.711   8.699  1.1582  0.1161 -0.2252
   62SAPC  H15R 4919   3.556   0.651   8.630 -2.1414  2.1414  0.6854
   62SAPC  C216 4920   3.761   0.728   8.670  0.0735  0.3435 -0.3719
   62SAPC  H16R 4921   3.813   0.632   8.692  0.0620  0.3964 -0.1103
   62SAPC  H16S 4922   3.812   0.793   8.744 -2.3612  0.5143  1.2785
   62SAPC  C217 4923   3.788   0.771   8.524 -0.0414  0.0227  0.2492
   62SAPC  H17R 4924   3.894   0.801   8.509  0.3757 -1.5785 -0.2467
   62SAPC  H17S 4925   3.725   0.857   8.496  0.5596  0.1568 -0.7180
   62SAPC  C218 4926   3.759   0.653   8.428 -0.2186  0.1253 -0.6007
   62SAPC  H18R 4927   3.652   0.626   8.431 -0.1807 -0.1215  2.4829
   62SAPC  H18S 4928   3.813   0.559   8.453 -1.6907 -1.0792 -1.8505
   62SAPC  C219 4929   3.809   0.676   8.290 -0.5987 -0.1008 -0.2377
   62SAPC  H19R 4930   3.804   0.580   8.234 -0.2025 -0.2043 -0.1001
   62SAPC  H19S 4931   3.920   0.686   8.298 -0.3236 -3.3327  1.7168
   62SAPC  C220 4932   3.747   0.778   8.210  0.1543  0.3927 -0.3197
   62SAPC  H20R 4933   3.636   0.772   8.216  0.0364  2.0708 -0.1806
   62SAPC  H20S 4934   3.778   0.767   8.104  0.4857 -0.2060 -0.1604
   62SAPC  H20T 4935   3.774   0.876   8.256  1.7144 -0.5780  0.9369
   62SAPC   C33 4936   4.241   1.185   9.851 -0.2813  0.4422  0.0799
   62SAPC   H3X 4937   4.261   1.153   9.747  0.4658 -2.5784  1.0492
   62SAPC   H3Y 4938   4.323   1.157   9.920  0.7135 -2.7497 -2.1557
   62SAPC   C34 4939   4.237   1.340   9.860  0.1118 -0.3182 -0.2403
   62SAPC   H4X 4940   4.228   1.369   9.968 -1.6487 -0.2839 -0.3709
   62SAPC   H4Y 4941   4.146   1.378   9.810  0.4514 -0.7594 -1.2108
   62SAPC   C35 4942   4.366   1.408   9.814 -0.9753 -0.9162  0.7938
   62SAPC   H5X 4943   4.434   1.386   9.899  0.5480  0.2420 -0.0775
   62SAPC   H5Y 4944   4.349   1.517   9.813  0.1031 -0.7445  0.3795
   62SAPC   C36 4945   4.431   1.362   9.683  0.2539 -0.7839  0.2117
   62SAPC   H6X 4946   4.355   1.357   9.602 -2.6572  0.5821  2.6559
   62SAPC   H6Y 4947   4.472   1.260   9.700 -0.6352 -1.0047  1.1492
   62SAPC   C37 4948   4.541   1.452   9.629 -0.4750  0.1718  0.1088
   62SAPC   H7X 4949   4.623   1.469   9.702 -1.0178  1.4445  0.4569
   62SAPC   H7Y 4950   4.494   1.547   9.595  0.1502  0.5185  0.2060
   62SAPC   C38 4951   4.614   1.395   9.505  0.3612  0.2454 -0.1926
   62SAPC   H8X 4952   4.531   1.361   9.440 -0.4518 -0.2539  1.0558
   62SAPC   H8Y 4953   4.677   1.308   9.531  1.5700  0.3712 -2.4956
   62SAPC   C39 4954   4.698   1.501   9.432  0.2062  0.3375 -0.7311
   62SAPC   H9X 4955   4.791   1.515   9.491 -0.2205  2.1867 -0.4523
   62SAPC   H9Y 4956   4.642   1.595   9.411  1.6729  1.3937 -0.0727
   62SAPC  C310 4957   4.749   1.457   9.288 -0.5970 -0.7058 -0.3106
   62SAPC  H10X 4958   4.664   1.398   9.247  1.0615 -1.3146 -3.0698
   62SAPC  H10Y 4959   4.835   1.387   9.297 -0.6869 -0.6942  0.8790
   62SAPC  C311 4960   4.800   1.579   9.205 -0.5396  0.2365  0.0945
   62SAPC  H11X 4961   4.893   1.632   9.237 -0.1797  0.3021 -0.9838
   62SAPC  H11Y 4962   4.731   1.663   9.228  0.8338  0.7731  2.7064
   62SAPC  C312 4963   4.800   1.544   9.053  0.7037  0.3214  0.1579
   62SAPC  H12X 4964   4.814   1.635   8.991  2.0711  0.4777  0.6444
   62SAPC  H12Y 4965   4.701   1.501   9.028  0.6486 -0.2011  1.2261
   62SAPC  C313 4966   4.907   1.443   9.015 -1.1116  0.5491 -0.7797
   62SAPC  H13X 4967   4.875   1.385   8.927  1.5615 -1.9907 -0.2275
   62SAPC  H13Y 4968   4.911   1.370   9.099  1.1836  2.0205  0.4970
   62SAPC  C314 4969   5.038   1.512   8.979  0.3665 -0.0383  0.5953
   62SAPC  H14X 4970   5.055   1.597   9.049 -0.6385  0.2957  0.4423
   62SAPC  H14Y 4971   5.044   1.558   8.879  1.2318  2.2355  1.6309
   62SAPC  C315 4972   5.162   1.423   9.003 -0.4804  0.3435  0.1326
   62SAPC  H15X 4973   5.132   1.349   9.080  0.0229 -0.4648 -0.4410
   62SAPC  H15Y 4974   5.249   1.475   9.050  0.3063 -1.6984  1.0429
   62SAPC  C316 4975   5.212   1.337   8.884  0.5253 -0.7984 -0.4921
   62SAPC  H16X 4976   5.140   1.253   8.871  0.6163 -0.8637 -0.5689
   62SAPC  H16Y 4977   5.302   1.289   8.927  0.0924 -0.7535  0.5037
   62SAPC  C317 4978   5.239   1.398   8.752 -0.3937  0.5366  0.5946
   62SAPC  H17X 4979   5.150   1.451   8.713  0.1846  0.9621 -0.1628
   62SAPC  H17Y 4980   5.262   1.311   8.686 -2.3669  0.0314  0.5185
   62SAPC  C318 4981   5.354   1.499   8.754 -0.4299  0.0389  0.1990
   62SAPC  H18X 4982   5.406   1.498   8.656 -2.0065 -1.9601 -0.6984
   62SAPC  H18Y 4983   5.429   1.457   8.824  0.0055 -0.3609 -0.4993
   62SAPC  H18Z 4984   5.325   1.600   8.790 -0.4814  1.0057 -2.3280
   63SAPC     N 4985   1.785   6.215   6.454  0.1039  0.2759  0.4327
   63SAPC   C12 4986   1.773   6.113   6.562  0.2975  0.6374 -0.7591
   63SAPC  H12A 4987   1.667   6.111   6.582 -0.0692 -1.3165 -2.5694
   63SAPC  H12B 4988   1.833   6.147   6.645 -0.4617 -0.7138  0.3891
   63SAPC   C13 4989   1.927   6.226   6.412  1.3632  0.4941 -0.0280
   63SAPC  H13A 4990   1.947   6.286   6.324 -1.5070  2.4133  0.4940
   63SAPC  H13B 4991   1.981   6.265   6.496 -1.4830  0.0270  2.1490
   63SAPC  H13C 4992   1.961   6.125   6.389  0.0589  0.3383 -1.4210
   63SAPC   C14 4993   1.686   6.185   6.344 -0.5102  0.1588 -0.5444
   63SAPC  H14A 4994   1.700   6.233   6.248 -0.3092  1.1197 -0.0509
   63SAPC  H14B 4995   1.687   6.079   6.325  0.3777 -0.4333  2.2285
   63SAPC  H14C 4996   1.587   6.213   6.374  0.2198 -0.3514  2.7924
   63SAPC   C15 4997   1.737   6.343   6.519 -0.3534  0.1834  0.2545
   63SAPC  H15A 4998   1.735   6.422   6.445  1.3096 -0.0742 -0.1162
   63SAPC  H15B 4999   1.647   6.321   6.574 -0.1459 -1.6892 -0.1025
   63SAPC  H15C 5000   1.809   6.372   6.594 -0.3423  0.4475  0.1434
   63SAPC   C11 5001   1.810   5.969   6.521  0.9820  0.0841 -0.0958
   63SAPC  H11A 5002   1.800   5.910   6.614 -0.0554  2.5739  1.4812
   63SAPC  H11B 5003   1.919   5.969   6.500  0.4547  0.6460 -3.4019
   63SAPC     P 5004   1.777   5.759   6.367  0.3434 -0.0124 -0.2542
   63SAPC   O13 5005   1.679   5.713   6.270  0.1874 -0.3956  0.0882
   63SAPC   O14 5006   1.918   5.757   6.324 -0.0296 -0.0377 -0.0074
   63SAPC   O12 5007   1.736   5.910   6.409 -0.2829 -0.0641 -0.3830
   63SAPC   O11 5008   1.759   5.684   6.500  0.1063  0.5323 -0.0290
   63SAPC    C1 5009   1.629   5.670   6.568  0.6870 -0.4590 -0.5161
   63SAPC    HA 5010   1.568   5.763   6.562 -0.4423 -1.1993 -0.7975
   63SAPC    HB 5011   1.566   5.590   6.522  0.0476 -1.8056  2.5019
   63SAPC    C2 5012   1.647   5.626   6.710  0.3410  0.1264 -0.3583
   63SAPC    HS 5013   1.550   5.593   6.753  1.1796 -1.1487  0.6560
   63SAPC   O21 5014   1.701   5.731   6.787  0.3539 -0.4828  0.2972
   63SAPC   C21 5015   1.628   5.830   6.834 -0.9795 -0.4784 -0.2734
   63SAPC   O22 5016   1.508   5.846   6.818 -0.0434 -0.7624  0.2211
   63SAPC   C22 5017   1.718   5.916   6.931  0.1875  0.4522  0.6326
   63SAPC   H2R 5018   1.768   5.843   6.998  0.2119  0.8652  1.0740
   63SAPC   H2S 5019   1.796   5.959   6.866  0.6276 -2.7607 -1.1761
   63SAPC    C3 5020   1.747   5.509   6.727  0.2318 -0.6622  0.0983
   63SAPC    HX 5021   1.843   5.525   6.674 -0.8653  1.0395 -1.4971
   63SAPC    HY 5022   1.702   5.418   6.683  0.4366  0.1661 -1.9079
   63SAPC   O31 5023   1.766   5.484   6.870 -0.4894 -0.6089 -0.0890
   63SAPC   C31 5024   1.891   5.502   6.919  0.1292 -0.1298 -0.0429
   63SAPC   O32 5025   1.987   5.535   6.850  0.6921  0.2458 -0.0779
   63SAPC   C32 5026   1.897   5.465   7.063 -0.3469 -0.4251 -0.6507
   63SAPC   H2X 5027   1.964   5.376   7.066  0.8859  0.5074  0.1396
   63SAPC   H2Y 5028   1.796   5.426   7.090 -0.7443  0.4644 -0.8137
   63SAPC   C23 5029   1.636   6.022   7.013  0.5229 -0.5680  0.2473
   63SAPC   H3R 5030   1.559   5.963   7.066  0.7146 -1.6301 -0.6123
   63SAPC   H3S 5031   1.595   6.099   6.944  0.9462  0.7079  1.3851
   63SAPC   C24 5032   1.720   6.097   7.119 -0.2246 -0.1551 -0.0580
   63SAPC   H4R 5033   1.789   6.168   7.069 -0.3787  1.0710  1.4199
   63SAPC   H4S 5034   1.791   6.019   7.155 -2.3773 -3.2200 -1.9115
   63SAPC   C25 5035   1.654   6.172   7.233 -0.0792  0.5937 -0.6057
   63SAPC   H5R 5036   1.623   6.271   7.196 -1.0434 -0.0940 -1.7069
   63SAPC   C26 5037   1.597   6.110   7.339 -0.2707  0.4936  0.2095
   63SAPC   H6R 5038   1.557   6.170   7.422  0.3880  0.0691  0.8486
   63SAPC   C27 5039   1.615   5.963   7.365  0.0218 -0.1678 -1.1815
   63SAPC   H7R 5040   1.661   5.905   7.281  1.3541  0.9742 -1.2763
   63SAPC   H7S 5041   1.514   5.917   7.368  0.4809 -1.1369  0.4025
   63SAPC   C28 5042   1.701   5.946   7.489  0.5271 -0.2899  0.1594
   63SAPC   H8R 5043   1.811   5.948   7.484  0.7213  1.9128  2.8735
   63SAPC   C29 5044   1.659   5.932   7.614 -0.4042 -0.0337 -0.1293
   63SAPC   H9R 5045   1.735   5.910   7.690  0.2909  0.8055 -0.5721
   63SAPC  C210 5046   1.515   5.935   7.667  0.7908  0.5745  0.2263
   63SAPC  H10R 5047   1.446   5.981   7.593  0.2786  1.2230  1.0827
   63SAPC  H10S 5048   1.507   5.991   7.763  2.6194 -0.3984  0.9943
   63SAPC  C211 5049   1.478   5.791   7.699  0.1033  0.4677  0.5836
   63SAPC  H11R 5050   1.508   5.720   7.621 -0.4133 -0.4999  1.2543
   63SAPC  C212 5051   1.436   5.742   7.812 -0.0203  1.1623 -1.0159
   63SAPC  H12R 5052   1.431   5.633   7.803  0.9379  0.9682  0.4665
   63SAPC  C213 5053   1.399   5.808   7.942  0.8769  1.2754 -0.4141
   63SAPC  H13R 5054   1.297   5.852   7.930  0.3592  0.3652  0.4580
   63SAPC  H13S 5055   1.468   5.893   7.952 -0.9324  2.8102 -0.3681
   63SAPC  C214 5056   1.404   5.722   8.073  0.0184 -0.1925 -0.3262
   63SAPC  H14R 5057   1.433   5.617   8.061 -0.4583 -0.1734 -1.7978
   63SAPC  C215 5058   1.383   5.782   8.186  0.2917  0.9720  0.8958
   63SAPC  H15R 5059   1.391   5.711   8.270 -1.3244 -1.1385 -0.6284
   63SAPC  C216 5060   1.346   5.925   8.220  0.7821 -0.0815  0.2650
   63SAPC  H16R 5061   1.241   5.923   8.256  1.1523  3.0531  1.8318
   63SAPC  H16S 5062   1.337   5.987   8.128  2.2076 -1.4200 -0.8353
   63SAPC  C217 5063   1.422   6.007   8.319 -0.3258 -0.0214 -0.7261
   63SAPC  H17R 5064   1.523   6.012   8.273 -0.4253  1.7510 -0.8450
   63SAPC  H17S 5065   1.417   5.962   8.421 -1.4312  1.5225 -0.0490
   63SAPC  C218 5066   1.376   6.152   8.336  0.3116 -0.2854 -0.6307
   63SAPC  H18R 5067   1.281   6.165   8.393  0.8792 -0.2088  0.3191
   63SAPC  H18S 5068   1.357   6.187   8.232  0.6455 -1.7082 -1.2041
   63SAPC  C219 5069   1.481   6.245   8.401 -0.3057  0.2719 -0.2459
   63SAPC  H19R 5070   1.456   6.354   8.402 -0.4852  0.2437 -1.1819
   63SAPC  H19S 5071   1.570   6.228   8.338 -1.2267 -1.8068 -1.0838
   63SAPC  C220 5072   1.525   6.221   8.549  0.0186  0.4476 -0.1328
   63SAPC  H20R 5073   1.441   6.208   8.620 -1.5276 -1.2673 -2.1286
   63SAPC  H20S 5074   1.574   6.317   8.574 -1.3650  1.0317  0.4531
   63SAPC  H20T 5075   1.604   6.144   8.556 -1.0786 -0.6646  0.4281
   63SAPC   C33 5076   1.932   5.583   7.151 -0.2160  0.6665 -0.0131
   63SAPC   H3X 5077   1.845   5.652   7.149 -0.3352  0.5168  0.0036
   63SAPC   H3Y 5078   2.022   5.632   7.108  0.3472 -0.1750  0.1881
   63SAPC   C34 5079   1.972   5.545   7.295  0.1293 -0.0907  0.2428
   63SAPC   H4X 5080   1.979   5.640   7.352 -1.9707 -0.8954  1.9677
   63SAPC   H4Y 5081   2.070   5.492   7.287 -0.7334 -1.4535 -2.4541
   63SAPC   C35 5082   1.866   5.459   7.364 -0.0415  0.0783  0.3061
   63SAPC   H5X 5083   1.867   5.355   7.325 -2.3754 -0.2336  0.8867
   63SAPC   H5Y 5084   1.764   5.496   7.338 -0.0048  0.2209  0.3661
   63SAPC   C36 5085   1.877   5.452   7.515  0.5915 -0.7018 -0.0105
   63SAPC   H6X 5086   1.982   5.426   7.538  0.1830 -3.1800 -0.7077
   63SAPC   H6Y 5087   1.799   5.379   7.546 -1.6842  1.2230 -0.8672
   63SAPC   C37 5088   1.850   5.591   7.585  0.4310 -0.3766 -0.1600
   63SAPC   H7X 5089   1.773   5.661   7.546  0.0193 -0.7809 -0.0846
   63SAPC   H7Y 5090   1.945   5.644   7.606 -0.0853  1.7077 -2.6573
   63SAPC   C38 5091   1.773   5.577   7.713  0.0100 -0.2075  0.1169
   63SAPC   H8X 5092   1.675   5.536   7.681 -0.1249 -0.5577  0.9544
   63SAPC   H8Y 5093   1.755   5.678   7.757  0.2277  0.2617 -0.8458
   63SAPC   C39 5094   1.815   5.478   7.827  0.1092  0.4167  1.0139
   63SAPC   H9X 5095   1.921   5.501   7.850  0.3442  1.5390 -0.9865
   63SAPC   H9Y 5096   1.815   5.373   7.790 -0.6542  0.0179  2.0971
   63SAPC  C310 5097   1.734   5.482   7.954 -0.1782  0.2109  0.2594
   63SAPC  H10X 5098   1.625   5.472   7.935 -0.2597  0.1377  0.7622
   63SAPC  H10Y 5099   1.736   5.578   8.009  1.6454  1.9253 -2.5111
   63SAPC  C311 5100   1.772   5.359   8.040  0.1744  0.0952  0.3372
   63SAPC  H11X 5101   1.879   5.358   8.067  0.9286 -1.7175 -2.3089
   63SAPC  H11Y 5102   1.745   5.271   7.977  0.7233  2.5445 -3.7028
   63SAPC  C312 5103   1.693   5.349   8.173 -0.0356 -0.0940 -0.2440
   63SAPC  H12X 5104   1.720   5.253   8.223  1.2677 -0.3920 -1.4472
   63SAPC  H12Y 5105   1.587   5.357   8.141 -0.2321  2.6043  0.8278
   63SAPC  C313 5106   1.726   5.456   8.277  0.3379  0.2348 -0.0910
   63SAPC  H13X 5107   1.651   5.537   8.264  0.9790  1.1318  1.5116
   63SAPC  H13Y 5108   1.823   5.501   8.248  0.4371 -0.2472 -0.5113
   63SAPC  C314 5109   1.702   5.405   8.421  0.2586  0.3405  0.0634
   63SAPC  H14X 5110   1.603   5.354   8.417  1.0756 -1.4257 -4.7599
   63SAPC  H14Y 5111   1.701   5.488   8.495  0.4952  0.8326 -0.4821
   63SAPC  C315 5112   1.805   5.299   8.471  0.3069  0.2096  0.5483
   63SAPC  H15X 5113   1.792   5.209   8.408 -1.0115  1.5124 -1.1432
   63SAPC  H15Y 5114   1.780   5.270   8.575  1.8547  0.3267  0.9764
   63SAPC  C316 5115   1.952   5.350   8.446  0.2385  0.0056  0.1912
   63SAPC  H16X 5116   1.949   5.456   8.479  0.8186  0.6448 -1.7263
   63SAPC  H16Y 5117   1.960   5.336   8.336  0.9786 -0.7376  0.3312
   63SAPC  C317 5118   2.067   5.290   8.517 -0.7515 -0.4726  0.1343
   63SAPC  H17X 5119   2.098   5.185   8.495  1.2105  0.4730 -2.0046
   63SAPC  H17Y 5120   2.047   5.302   8.625  2.8467  0.1773  0.8501
   63SAPC  C318 5121   2.202   5.361   8.486 -0.2033 -0.2264 -1.3350
   63SAPC  H18X 5122   2.241   5.349   8.382  0.0760  4.5660 -2.0105
   63SAPC  H18Y 5123   2.285   5.323   8.548  0.4652  1.7201 -0.9646
   63SAPC  H18Z 5124   2.190   5.471   8.500 -0.7646 -0.3559 -0.7802
   64SAPC     N 5125   3.599   6.636   6.198  0.2390 -0.2490 -0.4685
   64SAPC   C12 5126   3.675   6.747   6.266  0.1895  0.0574  0.4689
   64SAPC  H12A 5127   3.611   6.786   6.343 -1.8622  2.7127 -2.3390
   64SAPC  H12B 5128   3.678   6.833   6.200  2.8928  0.0735  0.4674
   64SAPC   C13 5129   3.454   6.686   6.194 -0.1414 -0.4404 -0.2955
   64SAPC  H13A 5130   3.392   6.605   6.158  0.4626 -1.8367  1.6482
   64SAPC  H13B 5131   3.412   6.710   6.290 -2.3833 -0.0905 -1.3032
   64SAPC  H13C 5132   3.440   6.780   6.143 -1.4586 -0.5273 -0.1222
   64SAPC   C14 5133   3.645   6.608   6.056  0.4837  0.4044 -0.0365
   64SAPC  H14A 5134   3.632   6.688   5.985 -2.0426  0.7229  0.6970
   64SAPC  H14B 5135   3.748   6.575   6.053 -0.1047 -1.5987  0.0767
   64SAPC  H14C 5136   3.595   6.522   6.015 -1.6679  0.5107  2.1122
   64SAPC   C15 5137   3.609   6.513   6.284  0.3306  0.3076  0.2015
   64SAPC  H15A 5138   3.557   6.435   6.231 -0.4653  1.5026 -0.8603
   64SAPC  H15B 5139   3.709   6.485   6.311  0.4545  0.4143 -0.1441
   64SAPC  H15C 5140   3.560   6.523   6.380 -0.9213  1.2695 -0.4998
   64SAPC   C11 5141   3.819   6.724   6.299 -0.9259 -0.3055 -0.0712
   64SAPC  H11A 5142   3.833   6.629   6.356 -4.0145 -1.0072 -0.3113
   64SAPC  H11B 5143   3.858   6.795   6.375 -2.4535 -0.0994  0.5547
   64SAPC     P 5144   3.960   6.841   6.106  0.0024  0.1364 -0.0244
   64SAPC   O13 5145   3.983   6.799   5.966 -0.3202  0.5894 -0.0322
   64SAPC   O14 5146   3.871   6.953   6.129  0.0429 -0.0692 -0.9260
   64SAPC   O12 5147   3.905   6.714   6.187 -0.3324  0.3706  0.1769
   64SAPC   O11 5148   4.098   6.872   6.177  0.0287 -0.3680 -0.6432
   64SAPC    C1 5149   4.185   6.775   6.234 -0.5779 -0.8102 -0.0321
   64SAPC    HA 5150   4.126   6.685   6.262  0.1978 -1.3330 -0.0568
   64SAPC    HB 5151   4.262   6.738   6.163  0.3760 -1.5475  1.3344
   64SAPC    C2 5152   4.267   6.832   6.356 -0.4333 -0.8123 -0.8290
   64SAPC    HS 5153   4.333   6.759   6.406  0.3983  1.9862  2.5520
   64SAPC   O21 5154   4.181   6.869   6.461 -0.1143 -0.2282 -0.1703
   64SAPC   C21 5155   4.095   6.793   6.517 -0.3027  0.3803 -0.6743
   64SAPC   O22 5156   4.102   6.671   6.523 -0.5036  0.2828 -0.0457
   64SAPC   C22 5157   3.989   6.880   6.587 -0.6193  0.4715  0.1365
   64SAPC   H2R 5158   3.937   6.955   6.524  1.4510  1.4345 -0.5339
   64SAPC   H2S 5159   3.916   6.806   6.626 -0.1549  0.3370  0.7700
   64SAPC    C3 5160   4.360   6.948   6.314 -0.2820  0.2990 -0.9209
   64SAPC    HX 5161   4.310   7.027   6.254 -1.1417 -0.5995 -1.4097
   64SAPC    HY 5162   4.437   6.902   6.249 -0.1955  0.9779 -1.3101
   64SAPC   O31 5163   4.424   7.002   6.431 -0.1533  0.4719  0.1222
   64SAPC   C31 5164   4.371   7.113   6.494 -0.4485 -0.2388  0.2040
   64SAPC   O32 5165   4.277   7.179   6.456  0.1233 -0.3166  0.1964
   64SAPC   C32 5166   4.450   7.132   6.629  0.0149 -0.1121 -0.0922
   64SAPC   H2X 5167   4.548   7.183   6.611 -0.5264  1.0278  0.0800
   64SAPC   H2Y 5168   4.463   7.028   6.664  1.1565  0.2150  0.5282
   64SAPC   C23 5169   4.037   6.961   6.717  0.7382  0.1113 -0.0384
   64SAPC   H3R 5170   3.945   6.997   6.768  0.0099  2.0041 -2.4987
   64SAPC   H3S 5171   4.094   7.047   6.677 -0.3614  0.8280 -0.1298
   64SAPC   C24 5172   4.125   6.883   6.820 -0.5976 -0.3865  0.3651
   64SAPC   H4R 5173   4.176   6.967   6.872 -1.6729  0.0695  0.7023
   64SAPC   H4S 5174   4.204   6.823   6.770  1.9164  0.9478  2.4982
   64SAPC   C25 5175   4.052   6.803   6.926  0.6372 -0.3496  0.5258
   64SAPC   H5R 5176   3.999   6.719   6.879  0.2941  1.0364 -1.7020
   64SAPC   C26 5177   4.047   6.820   7.055 -1.0896 -0.1815  0.4848
   64SAPC   H6R 5178   3.976   6.761   7.115 -1.3902 -0.4370 -0.1238
   64SAPC   C27 5179   4.118   6.924   7.141 -0.0670  0.2773  0.6113
   64SAPC   H7R 5180   4.197   6.983   7.090  2.4126 -2.4137  1.0689
   64SAPC   H7S 5181   4.183   6.874   7.217  1.9035  1.0942 -0.4522
   64SAPC   C28 5182   4.024   7.015   7.199 -0.2623 -0.0261 -0.3529
   64SAPC   H8R 5183   3.944   7.057   7.137 -0.3485  3.7627  1.9662
   64SAPC   C29 5184   4.029   7.053   7.329  0.1574 -0.1557  0.2451
   64SAPC   H9R 5185   3.959   7.134   7.357  0.2131 -0.2489  0.6629
   64SAPC  C210 5186   4.127   7.007   7.434  0.3274 -0.4112  0.0809
   64SAPC  H10R 5187   4.159   7.098   7.489 -1.2416  0.3486 -0.2070
   64SAPC  H10S 5188   4.219   6.967   7.386  1.4216  1.9287  0.0424
   64SAPC  C211 5189   4.082   6.895   7.528 -0.3338 -0.9975 -0.3105
   64SAPC  H11R 5190   3.993   6.839   7.497 -1.2285 -0.0653  0.4974
   64SAPC  C212 5191   4.146   6.860   7.645  0.1223 -0.5522  0.2583
   64SAPC  H12R 5192   4.102   6.780   7.706 -2.1528  0.3783 -0.0590
   64SAPC  C213 5193   4.276   6.910   7.705  0.0105 -0.5784 -0.6021
   64SAPC  H13R 5194   4.354   6.920   7.626 -0.5281 -2.0456 -1.3424
   64SAPC  H13S 5195   4.306   6.824   7.768 -2.1298  0.6080  2.2526
   64SAPC  C214 5196   4.257   7.038   7.780  0.0913  0.4428 -0.1928
   64SAPC  H14R 5197   4.199   7.126   7.746  0.5030  1.6237  1.9456
   64SAPC  C215 5198   4.307   7.059   7.907  0.2785  0.3382 -0.1331
   64SAPC  H15R 5199   4.286   7.161   7.942 -0.6051 -0.2192  1.0243
   64SAPC  C216 5200   4.382   6.961   7.992  0.5885  0.5054  0.9341
   64SAPC  H16R 5201   4.448   7.028   8.052  2.6798 -0.3120 -0.3606
   64SAPC  H16S 5202   4.444   6.894   7.929 -0.1252 -0.2086  0.9794
   64SAPC  C217 5203   4.281   6.899   8.091 -0.2404  0.5914  0.1507
   64SAPC  H17R 5204   4.198   6.862   8.027  1.4815 -0.8744 -1.3482
   64SAPC  H17S 5205   4.232   6.962   8.168 -0.0136  0.5397  0.3367
   64SAPC  C218 5206   4.339   6.776   8.159 -0.6793  0.4932  0.3777
   64SAPC  H18R 5207   4.428   6.819   8.210  0.0296 -0.3226 -0.1402
   64SAPC  H18S 5208   4.368   6.710   8.075 -1.4148  0.9937 -0.2783
   64SAPC  C219 5209   4.242   6.698   8.248 -0.2777  0.6863  0.7885
   64SAPC  H19R 5210   4.220   6.767   8.333 -2.3069  1.2307 -0.1003
   64SAPC  H19S 5211   4.307   6.618   8.289 -0.8133 -0.6469 -0.8571
   64SAPC  C220 5212   4.123   6.633   8.176  0.4951  0.2686  0.2797
   64SAPC  H20R 5213   4.070   6.561   8.242 -1.3954  1.5124  0.1903
   64SAPC  H20S 5214   4.167   6.583   8.087  0.3185  0.7721 -0.0940
   64SAPC  H20T 5215   4.044   6.707   8.153 -1.6955 -1.6229  1.3169
   64SAPC   C33 5216   4.384   7.213   6.741 -0.7511  0.8410  0.1002
   64SAPC   H3X 5217   4.286   7.164   6.759  0.1795 -0.6386  1.4286
   64SAPC   H3Y 5218   4.361   7.317   6.712  0.6442  1.2520  0.3744
   64SAPC   C34 5219   4.469   7.221   6.871 -0.2728 -0.6152 -0.5738
   64SAPC   H4X 5220   4.544   7.302   6.871 -1.5165  0.5842 -1.4033
   64SAPC   H4Y 5221   4.524   7.125   6.882 -0.9213 -0.9458 -0.1053
   64SAPC   C35 5222   4.381   7.225   6.997 -0.0550  0.3769  0.0231
   64SAPC   H5X 5223   4.305   7.144   6.995 -0.5733  0.7863 -3.8524
   64SAPC   H5Y 5224   4.301   7.302   6.991 -2.6494 -2.1031  0.3932
   64SAPC   C36 5225   4.456   7.238   7.131  0.1382 -0.8737 -0.3708
   64SAPC   H6X 5226   4.530   7.320   7.123 -1.0141  0.0683 -1.7788
   64SAPC   H6Y 5227   4.500   7.138   7.152 -0.0320 -1.1389 -1.2454
   64SAPC   C37 5228   4.356   7.261   7.252  0.4596 -0.1511 -0.1042
   64SAPC   H7X 5229   4.291   7.172   7.242  2.4381 -1.5911 -0.9124
   64SAPC   H7Y 5230   4.294   7.352   7.237 -0.5888 -0.6870  0.8980
   64SAPC   C38 5231   4.428   7.277   7.383  0.8495 -0.5707  0.1221
   64SAPC   H8X 5232   4.519   7.339   7.368  0.0652  0.5875 -0.0057
   64SAPC   H8Y 5233   4.450   7.178   7.427  0.0150 -1.4270 -1.3060
   64SAPC   C39 5234   4.351   7.367   7.485  0.2956  0.2524 -0.8730
   64SAPC   H9X 5235   4.269   7.308   7.531  0.2386 -0.0574 -1.3777
   64SAPC   H9Y 5236   4.304   7.454   7.434 -0.0018  1.7366  1.7130
   64SAPC  C310 5237   4.432   7.442   7.606  0.1578  0.6714  0.0190
   64SAPC  H10X 5238   4.407   7.550   7.597 -1.0471  0.2936 -1.8380
   64SAPC  H10Y 5239   4.542   7.434   7.589  0.2578  0.1101  0.9065
   64SAPC  C311 5240   4.406   7.391   7.747 -0.2297 -1.0965 -0.5692
   64SAPC  H11X 5241   4.443   7.287   7.746  1.9834 -0.3735 -1.8545
   64SAPC  H11Y 5242   4.298   7.387   7.773  0.0129 -1.7459  0.4029
   64SAPC  C312 5243   4.470   7.483   7.851  0.3472  0.7413  0.0593
   64SAPC  H12X 5244   4.435   7.588   7.846 -0.0160  0.7268  1.6041
   64SAPC  H12Y 5245   4.578   7.478   7.824  0.2527 -0.0941 -0.1960
   64SAPC  C313 5246   4.451   7.432   7.996 -0.4987  0.2163 -0.1702
   64SAPC  H13X 5247   4.519   7.481   8.069  1.0036 -2.9325  0.7207
   64SAPC  H13Y 5248   4.487   7.327   7.997  0.6364  0.5784 -0.6890
   64SAPC  C314 5249   4.302   7.435   8.037  0.0829  0.1044  0.3669
   64SAPC  H14X 5250   4.242   7.373   7.968  2.0372 -0.4561 -0.9006
   64SAPC  H14Y 5251   4.280   7.542   8.016  0.1767 -0.0066 -0.3201
   64SAPC  C315 5252   4.269   7.408   8.187 -0.1962 -0.0194  0.2239
   64SAPC  H15X 5253   4.167   7.447   8.207 -0.8841 -0.9979 -1.2086
   64SAPC  H15Y 5254   4.334   7.465   8.256  0.4713 -0.3496 -0.1293
   64SAPC  C316 5255   4.273   7.262   8.226  0.2646  0.7463  0.1973
   64SAPC  H16X 5256   4.377   7.228   8.208 -0.1862 -0.7248  0.2720
   64SAPC  H16Y 5257   4.226   7.207   8.142  2.7514  0.0125 -0.7994
   64SAPC  C317 5258   4.213   7.207   8.357 -0.5401 -0.3462  0.3161
   64SAPC  H17X 5259   4.283   7.232   8.440  0.3269 -0.3922 -0.3850
   64SAPC  H17Y 5260   4.226   7.098   8.343  2.6010  0.1172 -1.1706
   64SAPC  C318 5261   4.073   7.257   8.375 -0.0256 -0.1758 -0.7657
   64SAPC  H18X 5262   4.018   7.266   8.280 -0.3368  1.0825 -0.4795
   64SAPC  H18Y 5263   4.072   7.357   8.423  0.3944  0.5936 -2.3177
   64SAPC  H18Z 5264   4.019   7.192   8.448  0.7108 -2.0820 -1.8295
   65SAPC     N 5265   4.406   0.742   5.748 -0.0554  0.2248  0.8664
   65SAPC   C12 5266   4.358   0.776   5.888 -0.8292 -0.0777  0.5930
   65SAPC  H12A 5267   4.277   0.707   5.903 -0.3491 -0.3519  2.1643
   65SAPC  H12B 5268   4.307   0.871   5.888  0.4526  0.6373  0.1102
   65SAPC   C13 5269   4.307   0.762   5.640  0.3132 -0.7590 -0.9138
   65SAPC  H13A 5270   4.286   0.868   5.636  2.6803 -0.2717 -2.3983
   65SAPC  H13B 5271   4.358   0.746   5.546  1.0440 -2.2490 -0.2916
   65SAPC  H13C 5272   4.221   0.699   5.656  1.1200 -1.2381  1.9476
   65SAPC   C14 5273   4.525   0.819   5.706  0.3414  0.3313  0.7512
   65SAPC  H14A 5274   4.591   0.763   5.642 -0.0296  1.2009 -0.4174
   65SAPC  H14B 5275   4.496   0.911   5.656 -0.4919 -0.5943 -0.5188
   65SAPC  H14C 5276   4.586   0.842   5.792  0.6217 -1.5214  1.0831
   65SAPC   C15 5277   4.440   0.603   5.740  0.6038  0.4416  0.4815
   65SAPC  H15A 5278   4.480   0.567   5.646  0.9415 -1.5947  1.3298
   65SAPC  H15B 5279   4.509   0.575   5.819 -1.1287 -2.5706  1.0771
   65SAPC  H15C 5280   4.352   0.544   5.759  1.4513 -0.5119  1.6046
   65SAPC   C11 5281   4.460   0.775   6.007  0.0842 -0.4655  0.4932
   65SAPC  H11A 5282   4.473   0.670   6.040 -1.8915 -1.0897 -0.5771
   65SAPC  H11B 5283   4.411   0.811   6.100  0.5366  2.8360 -0.4284
   65SAPC     P 5284   4.719   0.805   6.040 -0.2990 -0.0313 -0.0452
   65SAPC   O13 5285   4.776   0.698   5.956  0.1785  0.0624  0.2554
   65SAPC   O14 5286   4.801   0.927   6.054 -0.0928 -0.3925 -0.2013
   65SAPC   O12 5287   4.574   0.859   5.989  0.2476 -0.3891  0.3924
   65SAPC   O11 5288   4.691   0.741   6.177 -0.5857 -0.2795 -0.3546
   65SAPC    C1 5289   4.785   0.742   6.293 -0.1285 -0.6433  0.2496
   65SAPC    HA 5290   4.748   0.659   6.358 -0.1417  0.4673  1.7024
   65SAPC    HB 5291   4.880   0.696   6.260  0.2934 -1.4188  2.4134
   65SAPC    C2 5292   4.807   0.879   6.358  0.3416 -0.0111  0.4214
   65SAPC    HS 5293   4.842   0.957   6.286 -1.9394  2.4811  1.8028
   65SAPC   O21 5294   4.896   0.872   6.471  0.1589  0.5264  0.0844
   65SAPC   C21 5295   5.027   0.870   6.449  0.8317 -0.2342 -0.8605
   65SAPC   O22 5296   5.084   0.891   6.343  0.0326  0.2131  0.5153
   65SAPC   C22 5297   5.097   0.852   6.583 -0.2203 -0.3408 -0.0967
   65SAPC   H2R 5298   5.040   0.912   6.656  0.1619 -2.0985  1.7274
   65SAPC   H2S 5299   5.100   0.748   6.624  1.4143 -0.4874 -0.4951
   65SAPC    C3 5300   4.669   0.940   6.404 -0.6628 -0.3402 -0.5393
   65SAPC    HX 5301   4.606   0.958   6.315 -1.6350 -0.5629  0.0878
   65SAPC    HY 5302   4.694   1.035   6.455  0.2096 -1.0765  0.4546
   65SAPC   O31 5303   4.604   0.864   6.502  0.6164  0.0669 -0.6006
   65SAPC   C31 5304   4.490   0.904   6.543  0.1884 -0.5589 -0.0126
   65SAPC   O32 5305   4.444   1.018   6.526  0.4137 -0.6193 -0.5376
   65SAPC   C32 5306   4.426   0.789   6.622 -0.5483  0.4343  0.5448
   65SAPC   H2X 5307   4.500   0.709   6.641 -0.6775  0.4335  1.0562
   65SAPC   H2Y 5308   4.350   0.737   6.560  0.4352 -0.2872 -0.0799
   65SAPC   C23 5309   5.243   0.908   6.587 -0.0158  0.5946 -0.3185
   65SAPC   H3R 5310   5.301   0.877   6.497 -1.4325 -0.1528 -1.0074
   65SAPC   H3S 5311   5.305   0.869   6.671 -0.9346 -3.8306 -1.4344
   65SAPC   C24 5312   5.238   1.062   6.613 -0.3985  0.7009 -0.6314
   65SAPC   H4R 5313   5.338   1.087   6.653 -0.9590 -0.7013  1.8229
   65SAPC   H4S 5314   5.167   1.078   6.697 -3.1733 -2.8240 -2.0416
   65SAPC   C25 5315   5.204   1.147   6.488  0.2989  0.1952  0.2494
   65SAPC   H5R 5316   5.277   1.126   6.408  1.9580 -0.0671  1.7707
   65SAPC   C26 5317   5.095   1.219   6.476 -0.1466 -0.9147 -1.3791
   65SAPC   H6R 5318   5.088   1.265   6.377 -1.0037 -3.2701 -2.4982
   65SAPC   C27 5319   4.992   1.235   6.578  0.7471 -0.0837 -0.1262
   65SAPC   H7R 5320   5.028   1.307   6.654  1.4840 -1.5612  0.9784
   65SAPC   H7S 5321   4.985   1.133   6.622  0.3843 -0.5080 -1.1364
   65SAPC   C28 5322   4.858   1.286   6.537  0.1120  0.4023  0.2965
   65SAPC   H8R 5323   4.862   1.349   6.447  1.2530 -0.8802 -0.5794
   65SAPC   C29 5324   4.750   1.281   6.615  0.1302  0.2940 -0.5439
   65SAPC   H9R 5325   4.658   1.330   6.578 -0.5650 -1.7646 -1.6818
   65SAPC  C210 5326   4.742   1.227   6.754  0.4493 -0.1539 -0.5119
   65SAPC  H10R 5327   4.648   1.257   6.805  0.2100 -3.7309  1.4165
   65SAPC  H10S 5328   4.817   1.276   6.819  0.4957 -1.6984  0.6554
   65SAPC  C211 5329   4.753   1.075   6.763  0.2263 -0.5203  0.5575
   65SAPC  H11R 5330   4.689   1.025   6.689  1.3817  0.2458 -0.9986
   65SAPC  C212 5331   4.831   0.997   6.840 -0.5090  0.0325 -0.2103
   65SAPC  H12R 5332   4.831   0.888   6.827  0.7497 -0.1603  1.0632
   65SAPC  C213 5333   4.929   1.041   6.948  0.0117  0.1375 -1.0322
   65SAPC  H13R 5334   4.871   1.038   7.043  1.6168  0.9040  0.0285
   65SAPC  H13S 5335   4.966   1.143   6.923 -1.2327  0.9086  0.1323
   65SAPC  C214 5336   5.062   0.958   6.978  0.5391 -0.0096  0.0077
   65SAPC  H14R 5337   5.136   0.973   6.898  1.0570  0.7135  0.6061
   65SAPC  C215 5338   5.094   0.893   7.092  0.0639 -0.2495 -0.1364
   65SAPC  H15R 5339   5.180   0.826   7.088 -1.3705 -2.2088  0.6436
   65SAPC  C216 5340   5.021   0.875   7.220  0.3823 -0.1633  0.9135
   65SAPC  H16R 5341   4.970   0.776   7.223 -1.3472  0.7071  1.0687
   65SAPC  H16S 5342   4.947   0.957   7.229  0.6012  0.0215  1.0170
   65SAPC  C217 5343   5.098   0.887   7.356  0.5584 -0.4189  0.0814
   65SAPC  H17R 5344   5.026   0.869   7.439 -0.7296  1.0202 -0.6741
   65SAPC  H17S 5345   5.131   0.993   7.364 -2.9137  0.8518 -0.2790
   65SAPC  C218 5346   5.210   0.793   7.383  0.7008  0.4323  0.4557
   65SAPC  H18R 5347   5.286   0.820   7.307 -1.1767  1.2638 -1.2306
   65SAPC  H18S 5348   5.166   0.693   7.364  0.5522  0.5869 -0.0220
   65SAPC  C219 5349   5.286   0.809   7.513 -1.1737 -0.2365  0.8580
   65SAPC  H19R 5350   5.366   0.887   7.519 -0.8293 -0.6431  1.5664
   65SAPC  H19S 5351   5.340   0.713   7.525 -0.2292  0.0514 -0.7900
   65SAPC  C220 5352   5.201   0.828   7.638 -0.7424  0.2457  0.7893
   65SAPC  H20R 5353   5.268   0.827   7.727 -1.6040 -0.0687  1.4482
   65SAPC  H20S 5354   5.130   0.744   7.652 -1.0407  0.6938  2.2117
   65SAPC  H20T 5355   5.157   0.930   7.635 -3.7412 -0.9476  0.6511
   65SAPC   C33 5356   4.353   0.824   6.749 -0.0777 -0.2018  0.1368
   65SAPC   H3X 5357   4.276   0.751   6.783  0.1335  0.0671  1.2061
   65SAPC   H3Y 5358   4.305   0.924   6.747 -1.1844 -0.7051  0.6320
   65SAPC   C34 5359   4.446   0.846   6.869 -0.7764  0.2550 -0.6580
   65SAPC   H4X 5360   4.532   0.902   6.827 -1.2050  2.1009  0.7537
   65SAPC   H4Y 5361   4.497   0.756   6.909 -3.1706  0.5823  3.8090
   65SAPC   C35 5362   4.387   0.920   6.989 -0.1537  0.1762 -0.0918
   65SAPC   H5X 5363   4.303   0.854   7.020  1.7209 -1.7345  1.2402
   65SAPC   H5Y 5364   4.348   1.020   6.961 -1.0030  1.2695  4.2180
   65SAPC   C36 5365   4.477   0.942   7.108  0.4428 -0.3537  0.0104
   65SAPC   H6X 5366   4.437   1.019   7.177  0.6681 -0.1820 -0.0474
   65SAPC   H6Y 5367   4.577   0.979   7.075  0.5289 -1.2328 -0.7519
   65SAPC   C37 5368   4.514   0.812   7.184 -0.0284  1.1338 -0.3115
   65SAPC   H7X 5369   4.572   0.743   7.119 -0.8251 -1.4739  1.6042
   65SAPC   H7Y 5370   4.419   0.772   7.226 -0.2598  0.2738 -1.6094
   65SAPC   C38 5371   4.622   0.838   7.301 -0.5221  0.4846  0.3782
   65SAPC   H8X 5372   4.722   0.850   7.256 -0.2088 -0.0483  0.9199
   65SAPC   H8Y 5373   4.618   0.747   7.365 -0.1941  1.0518  1.2308
   65SAPC   C39 5374   4.600   0.960   7.380  0.4494 -0.5143 -0.3919
   65SAPC   H9X 5375   4.504   0.941   7.431  0.5183 -0.4320 -0.2317
   65SAPC   H9Y 5376   4.593   1.054   7.321 -1.1099  0.3613  1.1212
   65SAPC  C310 5377   4.716   0.971   7.483  0.1086 -0.5385  0.2318
   65SAPC  H10X 5378   4.805   1.021   7.439 -0.5622 -1.8795 -2.9497
   65SAPC  H10Y 5379   4.749   0.868   7.504  0.5496 -0.5742 -0.5834
   65SAPC  C311 5380   4.668   1.058   7.605 -0.0134 -0.5035 -0.3398
   65SAPC  H11X 5381   4.573   1.023   7.650 -0.3806  0.1554 -0.5789
   65SAPC  H11Y 5382   4.643   1.161   7.570 -0.1097  0.1824  1.6277
   65SAPC  C312 5383   4.774   1.075   7.713 -0.0081  0.0728 -0.4420
   65SAPC  H12X 5384   4.746   1.153   7.787  0.5155 -0.7499  0.6625
   65SAPC  H12Y 5385   4.871   1.110   7.673  1.1957 -1.2182  1.1837
   65SAPC  C313 5386   4.794   0.943   7.792  0.3151  0.0311  0.3757
   65SAPC  H13X 5387   4.800   0.861   7.718  0.4653  0.6393 -0.3018
   65SAPC  H13Y 5388   4.698   0.926   7.844  0.2510  1.4704  0.7805
   65SAPC  C314 5389   4.908   0.940   7.892  0.9590  0.4149 -0.0520
   65SAPC  H14X 5390   4.872   1.012   7.969 -1.0637  1.4229 -1.8177
   65SAPC  H14Y 5391   4.997   0.986   7.845  1.1621 -0.3004 -0.3747
   65SAPC  C315 5392   4.936   0.790   7.935 -0.8676  0.0335  0.0420
   65SAPC  H15X 5393   5.026   0.786   8.001 -1.0872  0.3658  0.3587
   65SAPC  H15Y 5394   4.958   0.726   7.846  0.7275  0.1371  0.3332
   65SAPC  C316 5395   4.828   0.735   8.033 -0.0885  0.2448  0.0470
   65SAPC  H16X 5396   4.842   0.627   8.057  1.0497  0.3161 -0.2890
   65SAPC  H16Y 5397   4.730   0.744   7.981  0.4641 -3.0134 -1.8275
   65SAPC  C317 5398   4.825   0.810   8.172  0.1654 -0.5957  0.2880
   65SAPC  H17X 5399   4.788   0.914   8.157 -3.1254 -1.3357  2.3467
   65SAPC  H17Y 5400   4.934   0.814   8.192  0.6564  0.0113 -2.1028
   65SAPC  C318 5401   4.732   0.741   8.280 -0.4008  0.0202  0.0998
   65SAPC  H18X 5402   4.632   0.788   8.273  0.2290  1.2547 -1.2039
   65SAPC  H18Y 5403   4.769   0.755   8.384 -1.1934 -0.7924  0.5027
   65SAPC  H18Z 5404   4.709   0.637   8.250 -0.0761  0.0076 -0.1118
   66SAPC     N 5405   4.201   2.381   6.106 -0.2199  0.5536 -0.2745
   66SAPC   C12 5406   4.059   2.421   6.155  0.3052  0.3689 -0.0343
   66SAPC  H12A 5407   4.059   2.524   6.187 -0.7315 -0.5802  3.4279
   66SAPC  H12B 5408   4.041   2.369   6.248  0.5504 -0.1382 -0.2620
   66SAPC   C13 5409   4.292   2.387   6.225  0.1669  0.2719 -0.5044
   66SAPC  H13A 5410   4.314   2.487   6.259 -0.1706  0.3600 -0.5371
   66SAPC  H13B 5411   4.251   2.321   6.300  0.7179  0.9000  0.3681
   66SAPC  H13C 5412   4.383   2.338   6.195 -0.9596 -2.4246  0.1888
   66SAPC   C14 5413   4.207   2.243   6.043 -0.7616 -0.0199 -0.2645
   66SAPC  H14A 5414   4.309   2.229   6.010 -0.6929 -1.0078  0.2951
   66SAPC  H14B 5415   4.180   2.157   6.104  1.0337 -0.4009  0.0535
   66SAPC  H14C 5416   4.139   2.240   5.959  0.4222  2.9478 -1.4529
   66SAPC   C15 5417   4.257   2.487   6.005  0.7562  0.5534  0.6594
   66SAPC  H15A 5418   4.364   2.479   6.005  0.7544  0.5043  0.9209
   66SAPC  H15B 5419   4.226   2.459   5.906  0.5885 -0.3611  0.9546
   66SAPC  H15C 5420   4.216   2.585   6.023  1.8711  1.2354 -0.3952
   66SAPC   C11 5421   3.936   2.404   6.053  0.5640  0.4636 -0.5232
   66SAPC  H11A 5422   3.967   2.463   5.964  2.6164  2.6203  1.4729
   66SAPC  H11B 5423   3.856   2.459   6.107  0.7555  1.7505 -1.5026
   66SAPC     P 5424   3.857   2.180   6.143  0.2407  0.2903 -0.0388
   66SAPC   O13 5425   3.738   2.102   6.104 -0.2278  0.4534 -0.3658
   66SAPC   O14 5426   3.972   2.110   6.195 -0.4518  0.2373 -0.1864
   66SAPC   O12 5427   3.906   2.270   6.014  0.2933  0.1699  0.5105
   66SAPC   O11 5428   3.817   2.288   6.249  0.0616 -0.2221  0.2189
   66SAPC    C1 5429   3.750   2.260   6.372 -0.4527 -0.0456 -1.0661
   66SAPC    HA 5430   3.716   2.154   6.382 -0.2957  0.0172  0.3459
   66SAPC    HB 5431   3.819   2.287   6.455  0.5498 -0.7783 -1.6395
   66SAPC    C2 5432   3.622   2.344   6.382  0.0873 -0.0304  0.0797
   66SAPC    HS 5433   3.648   2.445   6.346 -1.1621  0.0087 -0.7969
   66SAPC   O21 5434   3.583   2.349   6.521  0.3385 -0.2993 -0.1225
   66SAPC   C21 5435   3.488   2.447   6.556 -0.8507  0.7662 -0.6389
   66SAPC   O22 5436   3.458   2.542   6.488 -0.0623 -0.6864 -0.3949
   66SAPC   C22 5437   3.454   2.423   6.704  0.1008 -0.3722  0.1962
   66SAPC   H2R 5438   3.424   2.317   6.717 -0.1227 -0.1602  1.5676
   66SAPC   H2S 5439   3.548   2.422   6.763 -0.5769 -0.7588  1.2917
   66SAPC    C3 5440   3.500   2.303   6.289 -0.7557 -0.3128  0.5044
   66SAPC    HX 5441   3.547   2.304   6.188  0.1393  1.0891  0.9025
   66SAPC    HY 5442   3.421   2.378   6.270 -0.3780 -0.3039 -1.1887
   66SAPC   O31 5443   3.450   2.173   6.310 -0.2765 -0.1959 -0.0362
   66SAPC   C31 5444   3.336   2.168   6.375  1.0417  0.4041 -0.0046
   66SAPC   O32 5445   3.285   2.259   6.439  0.2272  0.6739 -0.3663
   66SAPC   C32 5446   3.298   2.022   6.390 -0.3045  0.8117  0.3115
   66SAPC   H2X 5447   3.352   1.952   6.322 -1.5727 -0.3411  0.4457
   66SAPC   H2Y 5448   3.191   2.005   6.366  0.4267 -0.1681 -2.6950
   66SAPC   C23 5449   3.357   2.529   6.764 -0.3466 -0.1477  0.4151
   66SAPC   H3R 5450   3.333   2.500   6.869 -1.3199  0.5959  0.4134
   66SAPC   H3S 5451   3.259   2.532   6.711  0.6554  1.2743 -1.4740
   66SAPC   C24 5452   3.408   2.672   6.785  0.6613  0.2645  0.0079
   66SAPC   H4R 5453   3.336   2.728   6.848 -0.4408 -1.0498 -0.0550
   66SAPC   H4S 5454   3.417   2.724   6.687  0.0684 -1.7099 -1.1418
   66SAPC   C25 5455   3.543   2.666   6.852  0.7632  0.0525 -0.2035
   66SAPC   H5R 5456   3.626   2.640   6.784  1.7997  2.6877 -0.0333
   66SAPC   C26 5457   3.579   2.700   6.974  0.4780 -0.2684  1.0786
   66SAPC   H6R 5458   3.684   2.692   7.005  0.3510 -2.1527  1.1735
   66SAPC   C27 5459   3.484   2.756   7.078  0.5174  0.9349 -0.2924
   66SAPC   H7R 5460   3.513   2.711   7.175 -0.5180 -0.8245 -0.7567
   66SAPC   H7S 5461   3.380   2.721   7.062  0.2571  2.0002 -1.0509
   66SAPC   C28 5462   3.463   2.900   7.071 -0.3122  0.4758 -0.1224
   66SAPC   H8R 5463   3.432   2.930   6.970 -0.0177 -0.5994 -0.5443
   66SAPC   C29 5464   3.490   2.992   7.162 -0.7554 -0.4205 -0.4553
   66SAPC   H9R 5465   3.454   3.093   7.135  0.3934  0.0957 -0.1115
   66SAPC  C210 5466   3.546   2.980   7.302 -0.1574 -0.1578  0.0333
   66SAPC  H10R 5467   3.646   3.023   7.282  0.1620 -0.1369  1.5371
   66SAPC  H10S 5468   3.553   2.875   7.338  1.3163 -0.5165 -1.1974
   66SAPC  C211 5469   3.477   3.067   7.404  0.1648  0.0559 -0.3204
   66SAPC  H11R 5470   3.385   3.116   7.370 -0.2909  0.8126  1.8688
   66SAPC  C212 5471   3.513   3.079   7.533  0.6122  0.3152 -0.4892
   66SAPC  H12R 5472   3.474   3.158   7.599 -0.8203 -0.7043 -0.0503
   66SAPC  C213 5473   3.632   3.005   7.593  0.1820  0.2171 -0.1528
   66SAPC  H13R 5474   3.645   3.053   7.693 -2.9579  0.2063  0.3594
   66SAPC  H13S 5475   3.716   3.015   7.520 -0.3490  1.0219 -0.6749
   66SAPC  C214 5476   3.601   2.858   7.625 -0.1402  0.0818 -0.3405
   66SAPC  H14R 5477   3.575   2.808   7.531 -4.4038  0.9017  0.2005
   66SAPC  C215 5478   3.588   2.798   7.745 -0.2202  0.3054 -0.3229
   66SAPC  H15R 5479   3.564   2.691   7.743 -0.3636  0.2640  1.4715
   66SAPC  C216 5480   3.618   2.858   7.877 -0.4257  0.2993  0.3240
   66SAPC  H16R 5481   3.535   2.921   7.914  0.0823  1.2060 -0.0594
   66SAPC  H16S 5482   3.699   2.933   7.865 -0.5509  0.2775 -0.7664
   66SAPC  C217 5483   3.648   2.751   7.985 -0.5132 -0.0508 -0.6400
   66SAPC  H17R 5484   3.739   2.699   7.950 -0.8894  0.5867 -2.7323
   66SAPC  H17S 5485   3.563   2.679   7.990  0.9301 -1.9219 -1.9176
   66SAPC  C218 5486   3.656   2.826   8.116  0.4746  0.2400  0.3177
   66SAPC  H18R 5487   3.552   2.865   8.123  0.3262 -0.1138  0.1039
   66SAPC  H18S 5488   3.724   2.915   8.114 -1.8502  2.1226 -1.7330
   66SAPC  C219 5489   3.670   2.735   8.236  0.0033 -0.0758 -0.1021
   66SAPC  H19R 5490   3.582   2.668   8.222  0.2452 -0.2158 -1.0505
   66SAPC  H19S 5491   3.666   2.804   8.323 -0.6538  1.5883 -1.3982
   66SAPC  C220 5492   3.802   2.656   8.246  0.3324 -1.0479 -0.4276
   66SAPC  H20R 5493   3.805   2.606   8.345  1.5827  0.4591  0.3413
   66SAPC  H20S 5494   3.893   2.720   8.241 -0.3534 -0.1069 -1.1480
   66SAPC  H20T 5495   3.806   2.572   8.174  2.2310  0.2680 -1.9734
   66SAPC   C33 5496   3.333   1.975   6.529 -0.1686 -0.5972 -0.8176
   66SAPC   H3X 5497   3.439   1.984   6.558 -0.8100  0.7241  1.3041
   66SAPC   H3Y 5498   3.314   1.865   6.533 -2.7369 -0.2860 -2.3313
   66SAPC   C34 5499   3.238   2.021   6.641  0.2488  0.2083  0.1619
   66SAPC   H4X 5500   3.135   2.039   6.604 -0.1157 -1.2854  0.3710
   66SAPC   H4Y 5501   3.268   2.122   6.677 -0.1808  0.2256  0.4784
   66SAPC   C35 5502   3.237   1.921   6.759 -0.3885  0.1146 -0.0957
   66SAPC   H5X 5503   3.336   1.872   6.762  0.8137  2.3842 -0.6666
   66SAPC   H5Y 5504   3.161   1.841   6.748 -0.8307  0.6652 -1.2314
   66SAPC   C36 5505   3.210   1.996   6.885 -0.2465 -0.1853  0.2005
   66SAPC   H6X 5506   3.109   2.043   6.877  0.4105  1.1561 -0.6038
   66SAPC   H6Y 5507   3.269   2.089   6.897 -2.0281  1.2224 -1.2656
   66SAPC   C37 5508   3.236   1.903   7.004 -0.4101  0.1320 -0.8558
   66SAPC   H7X 5509   3.343   1.871   7.008 -0.5339 -0.1647  1.1243
   66SAPC   H7Y 5510   3.182   1.809   6.979 -1.1400  0.6131 -1.1148
   66SAPC   C38 5511   3.190   1.964   7.133 -0.0875 -0.0621  0.1097
   66SAPC   H8X 5512   3.080   1.969   7.116 -0.2802  1.3249  1.5114
   66SAPC   H8Y 5513   3.235   2.066   7.135  0.5607 -0.3547  0.5128
   66SAPC   C39 5514   3.238   1.888   7.255 -0.2900 -0.1238 -0.9617
   66SAPC   H9X 5515   3.346   1.867   7.241  0.1829  0.3589  1.4832
   66SAPC   H9Y 5516   3.202   1.783   7.246  3.1479 -1.3861 -1.7279
   66SAPC  C310 5517   3.202   1.949   7.391 -0.1747  0.3780  0.1352
   66SAPC  H10X 5518   3.092   1.962   7.392  0.0199  2.7656 -1.5613
   66SAPC  H10Y 5519   3.249   2.050   7.390 -1.3888  0.9541 -0.0707
   66SAPC  C311 5520   3.243   1.871   7.512 -0.0748 -0.2912 -0.4381
   66SAPC  H11X 5521   3.351   1.845   7.519 -0.2181 -1.0845 -1.1082
   66SAPC  H11Y 5522   3.199   1.769   7.520  1.3948 -1.2327 -3.1003
   66SAPC  C312 5523   3.211   1.955   7.642 -0.2149 -0.4468  0.7292
   66SAPC  H12X 5524   3.115   2.005   7.619  0.1680 -0.9206 -2.2247
   66SAPC  H12Y 5525   3.283   2.036   7.663  0.5032 -0.5881 -1.0591
   66SAPC  C313 5526   3.194   1.859   7.766  0.7263 -0.0103  0.3047
   66SAPC  H13X 5527   3.293   1.810   7.781 -0.2146 -3.2193 -2.6383
   66SAPC  H13Y 5528   3.119   1.784   7.734 -0.9912  1.9470 -0.4687
   66SAPC  C314 5529   3.141   1.930   7.897 -0.8442 -0.3537 -0.2818
   66SAPC  H14X 5530   3.037   1.967   7.884 -0.8815 -0.0348  0.8589
   66SAPC  H14Y 5531   3.202   2.015   7.934 -0.7789 -0.2264 -0.6764
   66SAPC  C315 5532   3.117   1.835   8.017 -0.0756  0.1383 -0.1050
   66SAPC  H15X 5533   3.049   1.750   7.993 -0.9038  0.3983  1.2503
   66SAPC  H15Y 5534   3.049   1.891   8.084 -0.9959 -1.7189  0.5809
   66SAPC  C316 5535   3.244   1.785   8.097 -0.4958  0.0545  0.3336
   66SAPC  H16X 5536   3.312   1.730   8.029  0.1789 -1.0771  1.8581
   66SAPC  H16Y 5537   3.219   1.718   8.182  1.6097 -1.7264 -0.3448
   66SAPC  C317 5538   3.326   1.900   8.155 -0.1224  0.0622 -0.0867
   66SAPC  H17X 5539   3.354   1.968   8.072  0.0129  2.6360  1.9056
   66SAPC  H17Y 5540   3.417   1.860   8.205  0.5684  2.1667  0.4441
   66SAPC  C318 5541   3.251   1.987   8.266  0.4469  0.1975 -0.3061
   66SAPC  H18X 5542   3.157   2.031   8.226 -0.0524 -0.1055  0.5043
   66SAPC  H18Y 5543   3.327   2.055   8.309  0.6241 -0.3673  0.2895
   66SAPC  H18Z 5544   3.225   1.919   8.350  3.6731 -0.8099  0.0277
   67SAPC     N 5545   1.939   4.298   5.972 -0.9468 -0.2791  0.1786
   67SAPC   C12 5546   1.937   4.380   6.102  0.4824  0.5169  0.2841
   67SAPC  H12A 5547   1.867   4.463   6.095 -0.0086  0.1695  0.9574
   67SAPC  H12B 5548   2.027   4.439   6.108  1.1971 -0.5443  0.1356
   67SAPC   C13 5549   1.853   4.178   5.988  0.0503 -0.1225  0.0631
   67SAPC  H13A 5550   1.875   4.121   6.077 -0.0588  0.5792  0.5511
   67SAPC  H13B 5551   1.748   4.204   5.988  0.0860  0.0195 -0.0856
   67SAPC  H13C 5552   1.856   4.106   5.908 -0.5723  1.1867 -1.1850
   67SAPC   C14 5553   1.891   4.379   5.852 -0.8184  0.2261  0.7060
   67SAPC  H14A 5554   1.854   4.317   5.771 -3.2238  2.7433 -0.2719
   67SAPC  H14B 5555   1.807   4.441   5.881 -1.0836  0.6299 -0.8050
   67SAPC  H14C 5556   1.966   4.451   5.822  1.0213 -1.8277  0.1256
   67SAPC   C15 5557   2.082   4.247   5.944  1.0823  0.1497  0.3588
   67SAPC  H15A 5558   2.115   4.193   6.032 -0.1440 -0.6467  0.3534
   67SAPC  H15B 5559   2.084   4.182   5.858  0.9027 -1.6865  1.6796
   67SAPC  H15C 5560   2.141   4.334   5.920  1.1322 -0.2508 -1.0182
   67SAPC   C11 5561   1.921   4.311   6.239 -0.3144 -0.0638  0.0844
   67SAPC  H11A 5562   1.831   4.247   6.247  0.3480 -0.8149  1.9031
   67SAPC  H11B 5563   1.915   4.388   6.319 -1.4861 -1.5439  1.4844
   67SAPC     P 5564   2.183   4.282   6.283 -0.4679  0.1945 -0.8617
   67SAPC   O13 5565   2.278   4.193   6.217 -0.3541  0.0014  0.1779
   67SAPC   O14 5566   2.190   4.429   6.254 -0.1259  0.4188  0.3047
   67SAPC   O12 5567   2.036   4.225   6.265 -0.3000 -0.6140 -0.5128
   67SAPC   O11 5568   2.199   4.267   6.436  0.5822 -0.1773  0.2587
   67SAPC    C1 5569   2.143   4.368   6.524 -0.2052  0.5719  0.3958
   67SAPC    HA 5570   2.125   4.464   6.472 -0.2015 -1.4153 -3.6593
   67SAPC    HB 5571   2.049   4.322   6.561 -0.0848 -1.8065 -1.9370
   67SAPC    C2 5572   2.232   4.394   6.647 -0.5396 -0.9355  0.6374
   67SAPC    HS 5573   2.195   4.484   6.700  0.9166 -0.5421  1.0166
   67SAPC   O21 5574   2.367   4.428   6.599  0.0589  0.3297 -0.3168
   67SAPC   C21 5575   2.390   4.556   6.558  0.1641 -0.2693 -0.0932
   67SAPC   O22 5576   2.306   4.649   6.552  0.3930  0.9138  0.3748
   67SAPC   C22 5577   2.540   4.580   6.531  0.6752 -0.8311  0.3182
   67SAPC   H2R 5578   2.593   4.484   6.515  1.3723 -0.3533 -0.3504
   67SAPC   H2S 5579   2.530   4.629   6.432  2.2980  2.4664  1.6141
   67SAPC    C3 5580   2.235   4.280   6.748 -0.6591 -0.3493 -0.5129
   67SAPC    HX 5581   2.293   4.192   6.714  0.7614  0.9321 -1.5193
   67SAPC    HY 5582   2.129   4.251   6.765 -0.7239 -1.1195 -2.0384
   67SAPC   O31 5583   2.289   4.330   6.871  0.4983 -0.2484  0.0161
   67SAPC   C31 5584   2.309   4.230   6.959  0.3309  0.6385 -0.1210
   67SAPC   O32 5585   2.262   4.115   6.935  0.5731 -1.0412 -0.5002
   67SAPC   C32 5586   2.373   4.291   7.083 -0.2169 -0.6660 -0.1728
   67SAPC   H2X 5587   2.306   4.375   7.113  1.7572  0.9660 -0.1383
   67SAPC   H2Y 5588   2.475   4.319   7.050 -0.9478  1.0463 -1.0998
   67SAPC   C23 5589   2.619   4.697   6.610 -0.4316 -0.0793  0.4831
   67SAPC   H3R 5590   2.557   4.788   6.594  0.7490  0.7542  0.5264
   67SAPC   H3S 5591   2.711   4.717   6.551 -1.4843  2.1656 -0.5482
   67SAPC   C24 5592   2.654   4.672   6.761  0.4488  0.2463 -0.0546
   67SAPC   H4R 5593   2.698   4.766   6.800 -0.9420  1.3852 -1.1077
   67SAPC   H4S 5594   2.735   4.596   6.764  1.1398  0.9969  0.5505
   67SAPC   C25 5595   2.524   4.629   6.825  0.5813  1.0211  0.2503
   67SAPC   H5R 5596   2.500   4.526   6.793  0.0462  0.7236  1.5340
   67SAPC   C26 5597   2.441   4.697   6.901  0.2534  0.1514 -0.5846
   67SAPC   H6R 5598   2.346   4.646   6.919  1.1163 -1.6917 -1.0780
   67SAPC   C27 5599   2.459   4.840   6.941  0.7762  0.1791 -0.6719
   67SAPC   H7R 5600   2.523   4.881   6.860  2.0912  0.3927  0.4435
   67SAPC   H7S 5601   2.519   4.855   7.033  1.8033  3.3906 -1.7187
   67SAPC   C28 5602   2.317   4.903   6.942 -0.0778 -0.1057  0.2929
   67SAPC   H8R 5603   2.261   4.904   6.848 -1.0672  3.4414  0.8119
   67SAPC   C29 5604   2.260   4.952   7.052  0.4011 -0.2980  0.5896
   67SAPC   H9R 5605   2.158   4.990   7.038  0.2099 -0.6551  0.9762
   67SAPC  C210 5606   2.320   4.953   7.183 -0.5244  0.5340 -0.1778
   67SAPC  H10R 5607   2.270   5.033   7.241 -0.6940  0.2220  0.1079
   67SAPC  H10S 5608   2.412   5.013   7.172  0.8830 -1.7715 -1.9844
   67SAPC  C211 5609   2.351   4.826   7.259 -0.4295 -0.5850 -0.0717
   67SAPC  H11R 5610   2.405   4.751   7.199 -2.3424 -0.6614 -1.8199
   67SAPC  C212 5611   2.325   4.805   7.389  0.3274 -0.4181 -0.8107
   67SAPC  H12R 5612   2.351   4.707   7.434 -2.0411 -1.5355 -1.7070
   67SAPC  C213 5613   2.251   4.898   7.484 -0.3669 -0.6621 -0.6316
   67SAPC  H13R 5614   2.167   4.845   7.534  1.0769 -1.1541  1.4377
   67SAPC  H13S 5615   2.213   4.988   7.430  1.2702 -0.1380 -0.9626
   67SAPC  C214 5616   2.347   4.950   7.586  0.3696  0.6286 -0.0686
   67SAPC  H14R 5617   2.397   5.041   7.549 -0.7904  1.9065  1.4028
   67SAPC  C215 5618   2.369   4.928   7.713 -0.3132  0.2937 -0.3401
   67SAPC  H15R 5619   2.461   4.967   7.761  0.7707 -1.0777 -1.2205
   67SAPC  C216 5620   2.302   4.830   7.800 -0.0875 -0.2789  0.4916
   67SAPC  H16R 5621   2.233   4.763   7.744  0.9656 -0.9687 -0.0026
   67SAPC  H16S 5622   2.246   4.887   7.877 -0.9542  0.2182 -0.4888
   67SAPC  C217 5623   2.408   4.747   7.870 -0.1619 -0.0608  0.3132
   67SAPC  H17R 5624   2.451   4.672   7.800 -2.1414 -0.7482 -0.2109
   67SAPC  H17S 5625   2.347   4.688   7.941 -1.5708  0.5926 -0.3219
   67SAPC  C218 5626   2.515   4.829   7.956  0.0979 -0.1068  0.1602
   67SAPC  H18R 5627   2.464   4.912   8.010 -0.2521  1.2246 -2.0551
   67SAPC  H18S 5628   2.591   4.888   7.900 -1.6298  1.7050 -0.4115
   67SAPC  C219 5629   2.582   4.746   8.060  0.7735 -0.6812 -0.5632
   67SAPC  H19R 5630   2.522   4.655   8.081 -0.3881 -0.4599 -2.6402
   67SAPC  H19S 5631   2.588   4.818   8.145 -0.4601 -1.4629  0.2239
   67SAPC  C220 5632   2.721   4.708   8.025 -0.4307 -0.0434  0.0213
   67SAPC  H20R 5633   2.722   4.642   7.935  2.0551 -0.7779  0.5035
   67SAPC  H20S 5634   2.772   4.652   8.106  0.9289  1.4772  0.2651
   67SAPC  H20T 5635   2.789   4.794   8.007 -0.5251 -0.2479 -1.4357
   67SAPC   C33 5636   2.377   4.186   7.196  0.6076  0.0839 -0.8129
   67SAPC   H3X 5637   2.420   4.087   7.169  3.2040  1.1295 -0.8218
   67SAPC   H3Y 5638   2.272   4.176   7.228  1.0602  3.8403  2.6391
   67SAPC   C34 5639   2.452   4.236   7.321  1.2435  0.9642  0.4059
   67SAPC   H4X 5640   2.390   4.320   7.359  2.9268  2.1112  0.7479
   67SAPC   H4Y 5641   2.556   4.271   7.301  1.0963  1.0918 -0.1530
   67SAPC   C35 5642   2.444   4.126   7.429 -0.0056  0.0546  0.3440
   67SAPC   H5X 5643   2.507   4.043   7.392  2.0745  0.1754  3.2754
   67SAPC   H5Y 5644   2.342   4.081   7.429 -0.1901  0.4499 -0.6046
   67SAPC   C36 5645   2.494   4.165   7.563 -0.4370 -0.3212  0.2034
   67SAPC   H6X 5646   2.435   4.247   7.610 -0.3363 -0.1893  0.1012
   67SAPC   H6Y 5647   2.594   4.211   7.553 -1.4383  1.7121 -1.0404
   67SAPC   C37 5648   2.498   4.047   7.666 -0.2154 -0.4111  0.2373
   67SAPC   H7X 5649   2.537   3.949   7.632 -0.5713 -0.5890  0.3288
   67SAPC   H7Y 5650   2.398   4.027   7.712 -0.2888  0.2971  0.3868
   67SAPC   C38 5651   2.587   4.094   7.784  0.0881  0.2318 -0.0784
   67SAPC   H8X 5652   2.548   4.191   7.821 -2.0113 -0.7860  0.5158
   67SAPC   H8Y 5653   2.691   4.119   7.754 -0.1294  1.6422  0.3162
   67SAPC   C39 5654   2.597   4.008   7.910  0.0630  0.7560  0.0253
   67SAPC   H9X 5655   2.659   3.921   7.879  0.5009  0.6332  1.2314
   67SAPC   H9Y 5656   2.499   3.960   7.934  0.1955  0.0834 -0.7271
   67SAPC  C310 5657   2.662   4.080   8.022 -0.1922 -0.1210  0.1029
   67SAPC  H10X 5658   2.586   4.153   8.057  0.1265  0.0248  0.4976
   67SAPC  H10Y 5659   2.748   4.140   7.987 -1.4288  0.5116 -2.0042
   67SAPC  C311 5660   2.703   3.986   8.139 -0.3869 -0.2109  0.0168
   67SAPC  H11X 5661   2.610   3.949   8.187 -1.9823  1.5987 -1.5387
   67SAPC  H11Y 5662   2.760   4.054   8.206 -1.0481  0.6961 -0.3164
   67SAPC  C312 5663   2.809   3.883   8.107  0.2216  0.1690 -0.2437
   67SAPC  H12X 5664   2.903   3.929   8.070  0.1935 -0.2183 -0.8045
   67SAPC  H12Y 5665   2.764   3.818   8.030 -1.2867 -0.1732  0.8806
   67SAPC  C313 5666   2.847   3.810   8.232  0.1304  0.0107  0.0949
   67SAPC  H13X 5667   2.760   3.759   8.278  0.2604 -2.0890 -1.8025
   67SAPC  H13Y 5668   2.880   3.880   8.311 -0.8425  0.5698  0.0257
   67SAPC  C314 5669   2.963   3.705   8.212 -0.3611  0.0454  0.2589
   67SAPC  H14X 5670   3.057   3.759   8.187 -0.9228  0.2059 -1.7288
   67SAPC  H14Y 5671   2.939   3.652   8.117 -1.4019 -1.7648  1.4787
   67SAPC  C315 5672   2.989   3.611   8.328 -0.6765 -0.1905 -0.4224
   67SAPC  H15X 5673   2.895   3.561   8.359 -0.9124  0.5236  0.0301
   67SAPC  H15Y 5674   3.015   3.678   8.413 -2.0072  1.6541 -1.4019
   67SAPC  C316 5675   3.099   3.516   8.310 -0.1399  0.1248  0.5763
   67SAPC  H16X 5676   3.127   3.460   8.402 -0.3926  1.0220  1.2123
   67SAPC  H16Y 5677   3.194   3.560   8.272  0.7729 -1.7807  0.5179
   67SAPC  C317 5678   3.073   3.415   8.199 -0.6807  0.6552  0.2983
   67SAPC  H17X 5679   3.048   3.463   8.102 -1.5996  0.2839  0.3510
   67SAPC  H17Y 5680   2.981   3.365   8.235  0.6406 -0.1539  2.7984
   67SAPC  C318 5681   3.184   3.309   8.173 -0.2621 -0.1763  0.1357
   67SAPC  H18X 5682   3.274   3.362   8.134 -1.6723  0.1316 -3.0113
   67SAPC  H18Y 5683   3.159   3.245   8.086 -0.1661  0.2256 -0.1884
   67SAPC  H18Z 5684   3.219   3.240   8.252 -0.5098  0.9343  1.2529
   68SAPC     N 5685   2.111   2.905   5.829 -0.1713 -0.1240 -0.1216
   68SAPC   C12 5686   2.185   2.958   5.954 -0.2572 -0.1156  0.8505
   68SAPC  H12A 5687   2.254   3.024   5.903 -1.3507 -1.6028 -2.8785
   68SAPC  H12B 5688   2.250   2.886   6.001  1.9365  1.0287 -0.2356
   68SAPC   C13 5689   2.011   2.797   5.860  0.5067 -0.0141  0.2428
   68SAPC  H13A 5690   1.976   2.751   5.769 -4.0222 -0.6294  2.0513
   68SAPC  H13B 5691   2.055   2.707   5.901  0.0011 -0.9249 -1.1544
   68SAPC  H13C 5692   1.933   2.830   5.926  0.4113  1.1361 -0.4379
   68SAPC   C14 5693   2.036   3.019   5.759 -0.1418 -0.0252 -0.7724
   68SAPC  H14A 5694   1.991   2.988   5.666  1.2402  1.3649 -1.9544
   68SAPC  H14B 5695   1.960   3.062   5.821  0.9254  1.0901 -0.2065
   68SAPC  H14C 5696   2.107   3.096   5.733 -2.3731  2.2153 -0.5794
   68SAPC   C15 5697   2.212   2.848   5.728 -0.3498 -0.6383 -0.0487
   68SAPC  H15A 5698   2.280   2.922   5.689  0.7369 -0.1716  2.5633
   68SAPC  H15B 5699   2.266   2.764   5.770 -1.7082 -1.2669  0.4907
   68SAPC  H15C 5700   2.170   2.810   5.636  1.9091  3.0945 -2.8794
   68SAPC   C11 5701   2.104   3.030   6.066 -0.3841  0.3327  0.6128
   68SAPC  H11A 5702   2.054   3.116   6.017 -2.2865 -0.4464  1.1288
   68SAPC  H11B 5703   2.181   3.060   6.141  0.5016  1.1121 -0.5652
   68SAPC     P 5704   1.874   2.983   6.180  0.0276  0.2306  0.0275
   68SAPC   O13 5705   1.872   3.133   6.179 -0.1370 -0.1113  0.7228
   68SAPC   O14 5706   1.772   2.909   6.109 -0.2232  0.3782  0.3684
   68SAPC   O12 5707   2.015   2.938   6.134  0.3177  0.4557 -0.5613
   68SAPC   O11 5708   1.857   2.939   6.337 -0.0166  0.4611 -0.3512
   68SAPC    C1 5709   1.905   3.018   6.449 -0.0104  0.0708  0.1280
   68SAPC    HA 5710   1.895   3.128   6.437 -0.1320  0.2274  1.5312
   68SAPC    HB 5711   1.836   2.995   6.533 -0.5933  2.3484  0.3288
   68SAPC    C2 5712   2.045   2.978   6.495 -0.1717  0.6797 -0.6429
   68SAPC    HS 5713   2.104   2.972   6.401 -0.0222  0.4644 -0.5352
   68SAPC   O21 5714   2.037   2.844   6.555  0.3650 -0.0928  0.2773
   68SAPC   C21 5715   2.145   2.770   6.559 -0.4501 -0.5349  0.2320
   68SAPC   O22 5716   2.249   2.808   6.509  0.2235 -0.0616 -0.1005
   68SAPC   C22 5717   2.125   2.646   6.637 -0.4821  0.3906  1.3914
   68SAPC   H2R 5718   2.042   2.580   6.605  1.6424 -1.7067 -0.1759
   68SAPC   H2S 5719   2.212   2.584   6.607 -1.9243 -0.5290 -1.2242
   68SAPC    C3 5720   2.106   3.073   6.594  0.1977 -0.4387  0.3398
   68SAPC    HX 5721   2.125   3.160   6.528  1.7794 -1.0337 -0.0104
   68SAPC    HY 5722   2.201   3.039   6.638  0.6761 -0.0552 -0.3808
   68SAPC   O31 5723   2.009   3.119   6.692  0.1086  0.4626 -0.0643
   68SAPC   C31 5724   2.054   3.225   6.754 -0.0427 -0.2740 -0.5424
   68SAPC   O32 5725   2.159   3.282   6.733  0.0676 -0.1616 -0.3788
   68SAPC   C32 5726   1.942   3.258   6.854  0.4584 -0.0878 -0.6007
   68SAPC   H2X 5727   1.881   3.177   6.900 -0.6898 -0.2393 -2.3004
   68SAPC   H2Y 5728   1.859   3.296   6.790 -0.6021 -1.3799 -0.0247
   68SAPC   C23 5729   2.119   2.663   6.792  0.0551 -0.2510 -0.3707
   68SAPC   H3R 5730   2.206   2.722   6.829 -0.4250  0.2797 -0.0651
   68SAPC   H3S 5731   2.118   2.565   6.844 -0.6958 -0.2227 -0.3279
   68SAPC   C24 5732   1.987   2.729   6.839 -0.3819 -0.0791 -0.7130
   68SAPC   H4R 5733   1.975   2.828   6.790 -0.2855  0.5109  0.4368
   68SAPC   H4S 5734   2.006   2.750   6.946  1.7070 -1.8951 -0.6491
   68SAPC   C25 5735   1.869   2.636   6.818 -0.2674  0.2328 -0.4400
   68SAPC   H5R 5736   1.823   2.636   6.718 -2.3587  1.6471  0.4565
   68SAPC   C26 5737   1.828   2.547   6.913  0.5900 -0.5221  0.0241
   68SAPC   H6R 5738   1.755   2.467   6.891  0.9456 -0.5265 -1.2270
   68SAPC   C27 5739   1.889   2.530   7.051  0.0120  0.2265  0.3371
   68SAPC   H7R 5740   1.996   2.559   7.048  1.0658 -3.2866 -1.7253
   68SAPC   H7S 5741   1.885   2.423   7.079  2.3393 -0.0496 -0.1993
   68SAPC   C28 5742   1.818   2.615   7.153  0.4238 -0.2686 -0.1952
   68SAPC   H8R 5743   1.726   2.671   7.129 -1.5530 -1.0579  4.3388
   68SAPC   C29 5744   1.863   2.622   7.282 -0.5833 -0.2740 -0.5108
   68SAPC   H9R 5745   1.817   2.700   7.344 -2.2440 -0.8944 -0.9200
   68SAPC  C210 5746   1.989   2.557   7.340  0.6744 -0.8537  0.4140
   68SAPC  H10R 5747   2.023   2.470   7.281  2.8097 -1.4927  2.4375
   68SAPC  H10S 5748   1.964   2.511   7.438 -1.2124 -2.4726 -0.7540
   68SAPC  C211 5749   2.094   2.657   7.350 -0.4890  0.0389 -0.5351
   68SAPC  H11R 5750   2.149   2.683   7.258  0.4054  1.1566  0.2855
   68SAPC  C212 5751   2.138   2.718   7.466 -0.6804  0.2735  0.7362
   68SAPC  H12R 5752   2.218   2.793   7.461 -0.4445  0.0805  1.4888
   68SAPC  C213 5753   2.088   2.703   7.608 -0.3303 -0.4393 -0.7615
   68SAPC  H13R 5754   1.980   2.685   7.623  0.0142 -2.9310 -0.8706
   68SAPC  H13S 5755   2.100   2.809   7.640  3.1005 -1.3132  1.4132
   68SAPC  C214 5756   2.153   2.597   7.688  0.4919  0.1134  0.5054
   68SAPC  H14R 5757   2.134   2.498   7.646  0.9407  0.3334 -0.2348
   68SAPC  C215 5758   2.233   2.604   7.790  0.1487 -0.0742 -0.1266
   68SAPC  H15R 5759   2.259   2.511   7.842  0.6762  0.1193 -0.0386
   68SAPC  C216 5760   2.285   2.727   7.851  0.5406 -0.4618 -0.0887
   68SAPC  H16R 5761   2.239   2.758   7.948  0.6537  3.0390 -1.0150
   68SAPC  H16S 5762   2.264   2.813   7.784 -0.1718  0.0346  0.7499
   68SAPC  C217 5763   2.437   2.718   7.861  0.3388 -0.0309  0.4921
   68SAPC  H17R 5764   2.471   2.670   7.767 -3.7856  0.7632 -1.6684
   68SAPC  H17S 5765   2.468   2.646   7.940  1.5657 -0.8788 -0.7241
   68SAPC  C218 5766   2.499   2.852   7.909 -0.3451 -0.2349 -0.2299
   68SAPC  H18R 5767   2.467   2.901   8.003  1.9394  0.3636  0.2828
   68SAPC  H18S 5768   2.475   2.920   7.824 -0.3182 -0.8555 -0.7459
   68SAPC  C219 5769   2.655   2.849   7.925  0.0851 -0.3459 -0.0472
   68SAPC  H19R 5770   2.680   2.955   7.907  0.7982 -0.2379  1.4139
   68SAPC  H19S 5771   2.703   2.774   7.859 -1.1864 -1.8066  0.5998
   68SAPC  C220 5772   2.708   2.822   8.065 -0.3782  0.5411  0.2812
   68SAPC  H20R 5773   2.819   2.829   8.056 -0.3714  1.6249  0.9407
   68SAPC  H20S 5774   2.683   2.720   8.102 -1.0987  1.1101  1.4378
   68SAPC  H20T 5775   2.675   2.905   8.132  1.3673  0.9981  0.6346
   68SAPC   C33 5776   1.969   3.364   6.963 -0.4583  0.2100 -0.3511
   68SAPC   H3X 5777   2.002   3.454   6.908 -1.0530  1.3687  1.1431
   68SAPC   H3Y 5778   2.036   3.325   7.043 -0.9456 -0.0337 -0.0560
   68SAPC   C34 5779   1.840   3.419   7.029  0.4546  0.4693  0.3836
   68SAPC   H4X 5780   1.784   3.338   7.081 -0.2700  1.3447  0.9825
   68SAPC   H4Y 5781   1.765   3.445   6.952  1.9601  0.1034 -1.2695
   68SAPC   C35 5782   1.859   3.523   7.129  0.1453 -0.6011  1.1657
   68SAPC   H5X 5783   1.763   3.572   7.156 -0.4719 -2.2175  1.9956
   68SAPC   H5Y 5784   1.920   3.604   7.082  1.1926 -2.9946 -1.9628
   68SAPC   C36 5785   1.934   3.471   7.254 -0.2988  0.5790  0.6388
   68SAPC   H6X 5786   2.034   3.431   7.226  0.4497  0.3611  3.3137
   68SAPC   H6Y 5787   1.883   3.382   7.296 -1.2928 -0.1264 -1.9331
   68SAPC   C37 5788   1.945   3.579   7.351 -0.4274  0.4427 -0.2789
   68SAPC   H7X 5789   1.847   3.622   7.381  0.1554  0.5973  1.4642
   68SAPC   H7Y 5790   1.996   3.663   7.299 -1.6833  1.3938 -0.0343
   68SAPC   C38 5791   2.019   3.547   7.483  0.0469  0.9673 -0.4085
   68SAPC   H8X 5792   2.071   3.634   7.527 -1.1236  1.3494  0.2763
   68SAPC   H8Y 5793   2.102   3.480   7.454 -1.0998 -0.5634 -0.3113
   68SAPC   C39 5794   1.919   3.494   7.586 -0.3706  0.1981  0.6769
   68SAPC   H9X 5795   1.876   3.400   7.545  1.9768  0.0000 -1.6104
   68SAPC   H9Y 5796   1.844   3.568   7.619 -0.3437 -0.0194  1.2494
   68SAPC  C310 5797   1.976   3.446   7.719  0.4473  0.1197 -0.1076
   68SAPC  H10X 5798   2.056   3.370   7.724 -0.6795 -1.0125  2.2345
   68SAPC  H10Y 5799   1.899   3.383   7.768 -1.5336  1.6825 -1.0401
   68SAPC  C311 5800   2.008   3.558   7.812  0.6742  0.3332 -0.7567
   68SAPC  H11X 5801   1.914   3.597   7.858 -0.4865 -1.6178 -1.3685
   68SAPC  H11Y 5802   2.059   3.641   7.759 -0.1846 -0.3964 -2.8267
   68SAPC  C312 5803   2.097   3.516   7.931 -0.0815 -0.0491  0.4824
   68SAPC  H12X 5804   2.124   3.604   7.992 -0.9711  1.3045 -1.0129
   68SAPC  H12Y 5805   2.185   3.464   7.886  0.0540  1.5947 -1.2644
   68SAPC  C313 5806   2.026   3.411   8.026 -0.5993  0.8362  0.3771
   68SAPC  H13X 5807   2.098   3.385   8.107  1.4778  0.3108 -1.5370
   68SAPC  H13Y 5808   2.008   3.317   7.970 -0.9101  1.6741 -0.9702
   68SAPC  C314 5809   1.896   3.451   8.083 -0.4781  0.0608 -0.3457
   68SAPC  H14X 5810   1.823   3.467   8.000  1.0454 -0.9973 -1.9378
   68SAPC  H14Y 5811   1.923   3.552   8.122 -0.0229  0.1087 -0.7824
   68SAPC  C315 5812   1.845   3.359   8.191 -0.6416  0.1983 -0.1526
   68SAPC  H15X 5813   1.938   3.319   8.236 -1.5366 -1.8926 -0.0512
   68SAPC  H15Y 5814   1.794   3.274   8.139  0.3891 -0.7112  0.2915
   68SAPC  C316 5815   1.741   3.429   8.277  0.3554 -0.1662 -0.3829
   68SAPC  H16X 5816   1.664   3.479   8.215 -3.1380 -1.0524  2.8389
   68SAPC  H16Y 5817   1.808   3.502   8.327  1.2883 -0.1110 -1.6711
   68SAPC  C317 5818   1.676   3.343   8.384  0.2572  0.4917  0.0353
   68SAPC  H17X 5819   1.756   3.316   8.457 -0.3039  0.5382  0.6821
   68SAPC  H17Y 5820   1.628   3.255   8.338  0.4889  0.9548 -1.1143
   68SAPC  C318 5821   1.581   3.412   8.480 -0.6072 -0.3765 -0.4394
   68SAPC  H18X 5822   1.478   3.412   8.440 -1.2557  0.3847  1.1393
   68SAPC  H18Y 5823   1.614   3.517   8.495 -2.6718  0.5609 -2.0256
   68SAPC  H18Z 5824   1.566   3.359   8.577 -0.4793 -0.3531 -0.4055
   69SLPC     N 5825   4.122   0.582  10.764  0.0326  0.3993  0.1244
   69SLPC   C13 5826   4.149   0.622  10.622  0.5066  0.4462 -0.1317
   69SLPC  H13A 5827   4.229   0.694  10.621  1.6452 -0.7685  0.1728
   69SLPC  H13B 5828   4.170   0.543  10.551  2.0902  0.8210 -0.1235
   69SLPC  H13C 5829   4.052   0.659  10.594 -0.3425 -1.5022  0.0658
   69SLPC   C14 5830   4.113   0.706  10.841 -0.5346 -0.5931  1.0033
   69SLPC  H14A 5831   4.090   0.671  10.941  1.6001 -0.4248  1.5842
   69SLPC  H14B 5832   4.212   0.748  10.833 -0.8036  0.1568  1.5879
   69SLPC  H14C 5833   4.037   0.778  10.816  0.9947  0.5841 -0.4505
   69SLPC   C15 5834   4.231   0.503  10.820 -0.2672 -0.1470  0.2654
   69SLPC  H15A 5835   4.232   0.483  10.926  0.6933 -0.7503  0.1593
   69SLPC  H15B 5836   4.241   0.407  10.771 -0.2659  0.3478 -0.7156
   69SLPC  H15C 5837   4.328   0.542  10.792  0.2711 -0.8180  1.1585
   69SLPC   C12 5838   4.005   0.491  10.788  0.7913 -0.4323  1.0143
   69SLPC  H12A 5839   3.980   0.464  10.890 -0.6846 -0.5229  0.6500
   69SLPC  H12B 5840   4.021   0.406  10.724  0.4237 -0.4628  0.9610
   69SLPC   C11 5841   3.866   0.547  10.746  0.3831  0.5474 -0.4797
   69SLPC  H11A 5842   3.789   0.474  10.777  0.8175  0.7181  1.1027
   69SLPC  H11B 5843   3.870   0.559  10.636  0.7847  3.5029 -0.2296
   69SLPC     P 5844   3.710   0.760  10.762  0.2792 -0.3842 -0.3043
   69SLPC   O13 5845   3.589   0.693  10.812 -0.3858 -0.1573 -0.0705
   69SLPC   O14 5846   3.730   0.902  10.794  0.2380 -0.3631 -0.7440
   69SLPC   O12 5847   3.836   0.671  10.806 -0.8379  0.3109  0.2508
   69SLPC   O11 5848   3.713   0.742  10.608  0.2901 -0.1110 -0.3520
   69SLPC    C1 5849   3.611   0.675  10.539 -0.3140  0.1217  0.3499
   69SLPC    HA 5850   3.621   0.565  10.549 -2.3526 -0.1800 -0.4159
   69SLPC    HB 5851   3.509   0.694  10.578 -0.5666 -1.0466  0.2823
   69SLPC    C2 5852   3.622   0.714  10.383  0.2563 -0.4323  0.0462
   69SLPC    HS 5853   3.532   0.666  10.339  0.7284 -0.8633 -0.4676
   69SLPC   O21 5854   3.746   0.683  10.316 -0.2221  0.5343 -0.5367
   69SLPC   C21 5855   3.768   0.555  10.304  0.6782 -0.1468 -0.3574
   69SLPC   O22 5856   3.691   0.468  10.327  0.7883 -0.4447 -0.1567
   69SLPC   C22 5857   3.924   0.536  10.269  0.5893  0.6704 -0.2737
   69SLPC   H2R 5858   3.985   0.627  10.286  0.7237  1.1190 -2.8531
   69SLPC   H2S 5859   3.956   0.439  10.313 -2.5880 -0.8853 -1.0680
   69SLPC    C3 5860   3.592   0.870  10.368 -0.2956  0.7319 -0.3232
   69SLPC    HX 5861   3.650   0.923  10.446  0.1915 -0.2934  0.0256
   69SLPC    HY 5862   3.486   0.893  10.390 -0.2197  1.2700 -0.5061
   69SLPC   O31 5863   3.632   0.915  10.238 -0.1343 -0.2644 -0.5619
   69SLPC   C31 5864   3.558   0.878  10.128 -0.5246 -0.5670  1.3183
   69SLPC   O32 5865   3.453   0.820  10.129  0.0034  0.4770  0.0080
   69SLPC   C32 5866   3.637   0.925   9.999 -0.8498 -0.3445  0.5581
   69SLPC   H2X 5867   3.739   0.882  10.002 -0.3075  0.8254 -0.3613
   69SLPC   H2Y 5868   3.641   1.035  10.014  0.4462 -0.3376  0.3167
   69SLPC   C23 5869   3.943   0.504  10.119  0.3799  0.3307 -0.4823
   69SLPC   H3R 5870   3.877   0.424  10.080  1.0292 -0.9226  0.8924
   69SLPC   H3S 5871   4.043   0.458  10.101 -0.2358 -0.6054 -1.6088
   69SLPC   C24 5872   3.940   0.623  10.026  0.0605  0.0618  0.2898
   69SLPC   H4R 5873   4.014   0.700  10.056  0.3953 -0.2261  0.2100
   69SLPC   H4S 5874   3.834   0.657  10.023  0.2131  0.5072 -0.2190
   69SLPC   C25 5875   3.985   0.590   9.880  0.9210 -0.2662  0.3180
   69SLPC   H5R 5876   3.913   0.527   9.823 -0.4751  0.7737  0.8704
   69SLPC   H5S 5877   4.080   0.534   9.891  0.6189 -1.3263 -1.9019
   69SLPC   C26 5878   3.997   0.711   9.786 -0.3256 -0.0278 -0.5895
   69SLPC   H6R 5879   4.066   0.785   9.833 -1.6529  0.8570  0.0387
   69SLPC   H6S 5880   3.896   0.758   9.788 -1.3305 -2.1084 -0.6099
   69SLPC   C27 5881   4.058   0.671   9.650  0.3600  0.3512  0.5906
   69SLPC   H7R 5882   3.991   0.598   9.599 -0.9035  0.2502  2.2800
   69SLPC   H7S 5883   4.153   0.619   9.675  0.9928 -0.0976 -2.3658
   69SLPC   C28 5884   4.080   0.792   9.556  0.1157  0.6938  0.3362
   69SLPC   H8R 5885   4.147   0.754   9.477 -0.1264 -0.2764  0.5902
   69SLPC   H8S 5886   4.139   0.870   9.609 -0.3146  0.0902  1.7539
   69SLPC   C29 5887   3.950   0.846   9.503  0.2610 -0.9814  0.1614
   69SLPC   H9R 5888   3.904   0.926   9.562  1.9069  0.5771 -0.5953
   69SLPC  C210 5889   3.902   0.825   9.377  0.3674  0.0958 -0.8816
   69SLPC  H10R 5890   3.803   0.870   9.360 -0.4466 -1.3857 -0.2403
   69SLPC  C211 5891   3.965   0.745   9.267  0.4379  0.0169 -0.1699
   69SLPC  H11R 5892   3.885   0.728   9.192 -0.5486  0.4566  0.7472
   69SLPC  H11S 5893   4.003   0.649   9.306  0.3746  1.2519  3.2883
   69SLPC  C212 5894   4.093   0.795   9.207 -0.1104  0.2501 -0.1846
   69SLPC  H12R 5895   4.131   0.886   9.255 -0.5816  0.3103  0.0811
   69SLPC  C213 5896   4.172   0.740   9.108  0.0605 -0.1510  0.3799
   69SLPC  H13R 5897   4.263   0.797   9.084 -0.2679  1.2897  2.2767
   69SLPC  C214 5898   4.158   0.612   9.033  0.3893 -0.0388  0.0768
   69SLPC  H14R 5899   4.083   0.545   9.080 -0.5871  0.4117 -0.8133
   69SLPC  H14S 5900   4.251   0.551   9.029  0.2255 -0.3264  0.5193
   69SLPC  C215 5901   4.100   0.633   8.894 -0.5172 -0.3577 -0.1457
   69SLPC  H15R 5902   4.012   0.701   8.898  0.3351  0.7169  1.0792
   69SLPC  H15S 5903   4.067   0.531   8.863 -3.2117 -0.0289  1.3508
   69SLPC  C216 5904   4.203   0.686   8.790 -0.0430  0.3244 -0.4178
   69SLPC  H16R 5905   4.291   0.619   8.795  0.9460  1.5740 -0.3897
   69SLPC  H16S 5906   4.235   0.786   8.828  2.0311  0.5452 -2.4518
   69SLPC  C217 5907   4.150   0.700   8.643 -0.1689 -0.6663 -0.4399
   69SLPC  H17R 5908   4.069   0.775   8.636  0.9258  0.7865  1.5124
   69SLPC  H17S 5909   4.100   0.605   8.615 -0.3613 -0.4493 -0.8373
   69SLPC  C218 5910   4.267   0.741   8.551 -0.6480  0.0626 -0.1054
   69SLPC  H18R 5911   4.291   0.849   8.565 -1.5639  0.1682  0.8140
   69SLPC  H18S 5912   4.251   0.725   8.442 -1.3242 -1.9229  0.2450
   69SLPC  H18T 5913   4.352   0.674   8.573 -0.5617  0.4854  0.9297
   69SLPC   C33 5914   3.564   0.896   9.869 -0.8001  0.3452 -0.0969
   69SLPC   H3X 5915   3.598   0.971   9.794  0.7927 -0.8144 -0.5993
   69SLPC   H3Y 5916   3.456   0.910   9.890 -0.4722 -1.4496  3.4395
   69SLPC   C34 5917   3.586   0.760   9.818 -0.1088 -0.0979  0.0305
   69SLPC   H4X 5918   3.575   0.688   9.902  0.1736  0.6037  0.6846
   69SLPC   H4Y 5919   3.687   0.740   9.776 -1.3144 -0.0028 -3.1727
   69SLPC   C35 5920   3.495   0.729   9.696 -0.8108  0.2137  0.0897
   69SLPC   H5X 5921   3.388   0.750   9.719 -0.7046  2.4230 -1.1918
   69SLPC   H5Y 5922   3.511   0.621   9.676  1.8455  0.1780  1.9357
   69SLPC   C36 5923   3.539   0.802   9.569  0.2551 -0.1058 -0.4481
   69SLPC   H6X 5924   3.650   0.798   9.564  0.3828  2.7171 -2.6969
   69SLPC   H6Y 5925   3.520   0.911   9.572  0.3884 -0.1098  0.9625
   69SLPC   C37 5926   3.479   0.751   9.441 -0.7685  0.6537  1.0706
   69SLPC   H7X 5927   3.485   0.828   9.361  2.2170 -0.1021  0.4261
   69SLPC   H7Y 5928   3.371   0.743   9.465 -0.4221 -1.6268  2.1522
   69SLPC   C38 5929   3.535   0.620   9.389 -0.6518  0.7110 -0.5832
   69SLPC   H8X 5930   3.522   0.550   9.474 -1.5209  2.1855  0.5441
   69SLPC   H8Y 5931   3.645   0.632   9.376 -0.6266  1.8110  0.4869
   69SLPC   C39 5932   3.459   0.568   9.265 -0.4152 -0.1878 -0.6103
   69SLPC   H9X 5933   3.420   0.640   9.190  1.4133  0.5308 -0.9282
   69SLPC   H9Y 5934   3.367   0.529   9.313 -0.6304 -1.6653 -2.1738
   69SLPC  C310 5935   3.538   0.458   9.192 -0.0473 -0.3392 -0.0729
   69SLPC  H10X 5936   3.570   0.377   9.261  0.5068 -0.8471 -0.9083
   69SLPC  H10Y 5937   3.628   0.516   9.162 -0.6583  1.2720  1.0338
   69SLPC  C311 5938   3.449   0.395   9.084 -0.2957 -0.4271 -0.2898
   69SLPC  H11X 5939   3.393   0.480   9.040 -0.5982 -0.3734  0.1894
   69SLPC  H11Y 5940   3.365   0.344   9.137 -0.8030 -0.1234 -0.7944
   69SLPC  C312 5941   3.511   0.295   8.986 -0.2307  0.0518  0.0050
   69SLPC  H12X 5942   3.436   0.280   8.906 -2.1381  2.9571  1.0870
   69SLPC  H12Y 5943   3.532   0.196   9.033  1.1408 -0.2397 -1.1773
   69SLPC  C313 5944   3.645   0.337   8.922 -0.1581  0.3050 -0.1645
   69SLPC  H13X 5945   3.717   0.357   9.005  0.3058 -0.5503 -0.3511
   69SLPC  H13Y 5946   3.628   0.430   8.864 -1.7305  0.5466  0.6242
   69SLPC  C314 5947   3.705   0.218   8.828 -0.1914 -0.3742  0.0652
   69SLPC  H14X 5948   3.661   0.119   8.850 -0.3119 -0.4397 -0.4727
   69SLPC  H14Y 5949   3.809   0.223   8.868 -0.5161 -1.7726  1.1619
   69SLPC  C315 5950   3.707   0.249   8.681  0.4113  0.1770  0.6977
   69SLPC  H15X 5951   3.791   0.189   8.642  0.6711  1.0076 -0.0452
   69SLPC  H15Y 5952   3.732   0.355   8.658  0.7185  0.5890  2.7142
   69SLPC  C316 5953   3.584   0.220   8.595 -0.0245 -0.1263  0.1735
   69SLPC  H16X 5954   3.490   0.258   8.642 -0.7426  1.4044 -2.3364
   69SLPC  H16Y 5955   3.570   0.110   8.589  0.5657 -0.1324 -2.1383
   69SLPC  C317 5956   3.593   0.287   8.460 -0.4484  0.0916 -0.4133
   69SLPC  H17X 5957   3.584   0.394   8.485  1.1701  0.2637 -0.4397
   69SLPC  H17Y 5958   3.503   0.257   8.402 -2.7471  2.4571  1.6942
   69SLPC  C318 5959   3.727   0.265   8.382  0.3182  0.1544  0.5000
   69SLPC  H18X 5960   3.762   0.160   8.373  0.1561  0.1246  0.1625
   69SLPC  H18Y 5961   3.816   0.296   8.440  1.7735 -1.8582 -0.5493
   69SLPC  H18Z 5962   3.719   0.314   8.282 -0.9355 -2.5902 -0.8481
   70SLPC     N 5963   6.029   0.175  11.030  0.2091  0.8015 -0.4643
   70SLPC   C13 5964   5.919   0.192  11.130 -0.7079 -0.1855  0.2497
   70SLPC  H13A 5965   5.846   0.256  11.081  1.4453  2.4029  0.2048
   70SLPC  H13B 5966   5.878   0.094  11.149  1.8119 -1.4782 -0.5639
   70SLPC  H13C 5967   5.953   0.238  11.222 -2.1884  0.1249  0.6756
   70SLPC   C14 5968   6.144   0.095  11.082 -0.1665  0.0704  0.4503
   70SLPC  H14A 5969   6.167   0.122  11.184  0.4615 -2.3738  1.0342
   70SLPC  H14B 5970   6.119  -0.008  11.102  1.3691 -0.3714  0.2541
   70SLPC  H14C 5971   6.224   0.105  11.010 -1.3669  1.1150 -0.7880
   70SLPC   C15 5972   6.082   0.312  11.011 -0.0854 -0.1258 -0.2644
   70SLPC  H15A 5973   6.161   0.322  11.085 -0.3282 -1.7737  0.2651
   70SLPC  H15B 5974   6.129   0.311  10.914 -0.9090 -1.0317 -0.6708
   70SLPC  H15C 5975   6.008   0.390  11.018  0.9855  0.8688  0.4418
   70SLPC   C12 5976   5.976   0.107  10.898 -0.4291 -0.7880 -0.1271
   70SLPC  H12A 5977   5.895   0.176  10.877 -1.1077 -1.6555 -0.3836
   70SLPC  H12B 5978   5.932   0.011  10.920 -1.0040 -0.5659 -0.3029
   70SLPC   C11 5979   6.072   0.090  10.777 -0.2198  0.8419  0.6189
   70SLPC  H11A 5980   6.112   0.191  10.756  0.2905  1.0295  2.3167
   70SLPC  H11B 5981   6.012   0.060  10.688 -0.8604 -0.6750  1.5160
   70SLPC     P 5982   6.162  -0.159  10.816 -0.2033  0.2514  0.0009
   70SLPC   O13 5983   6.296  -0.210  10.828  0.0774 -0.3613 -0.0142
   70SLPC   O14 5984   6.059  -0.191  10.916  0.0816 -0.5769  0.3597
   70SLPC   O12 5985   6.184   0.001  10.802 -0.5455  0.4384  0.0766
   70SLPC   O11 5986   6.113  -0.183  10.671  0.1372 -1.1320 -0.3639
   70SLPC    C1 5987   6.198  -0.155  10.562 -0.0055  0.6531 -0.0645
   70SLPC    HA 5988   6.134  -0.099  10.491 -0.5044 -1.4123 -1.3555
   70SLPC    HB 5989   6.289  -0.095  10.583  0.7369  0.2661 -1.9003
   70SLPC    C2 5990   6.244  -0.290  10.499 -0.7532  0.1632 -0.2131
   70SLPC    HS 5991   6.305  -0.348  10.572 -2.3589 -1.0224  0.2480
   70SLPC   O21 5992   6.306  -0.267  10.374  0.6435  0.3373 -0.3159
   70SLPC   C21 5993   6.438  -0.275  10.373 -0.5274 -0.2757  0.3310
   70SLPC   O22 5994   6.508  -0.261  10.471  0.2079 -0.4385  0.0205
   70SLPC   C22 5995   6.491  -0.304  10.235  0.3464  0.1690  0.9854
   70SLPC   H2R 5996   6.445  -0.229  10.166  1.3971 -0.9112 -0.9567
   70SLPC   H2S 5997   6.602  -0.314  10.231  0.3506 -1.9739  3.8139
   70SLPC    C3 5998   6.125  -0.390  10.474 -0.1010  0.4098  0.0673
   70SLPC    HX 5999   6.066  -0.346  10.391  0.1096  0.6179  0.0246
   70SLPC    HY 6000   6.064  -0.409  10.564 -1.6866 -1.9892 -1.4068
   70SLPC   O31 6001   6.178  -0.519  10.432 -0.3161  0.0193 -0.1909
   70SLPC   C31 6002   6.089  -0.599  10.371 -0.5374  0.4258  0.2339
   70SLPC   O32 6003   5.974  -0.568  10.342  0.0215  0.4431 -0.3383
   70SLPC   C32 6004   6.148  -0.731  10.343 -0.4411  0.0879 -0.2185
   70SLPC   H2X 6005   6.127  -0.787  10.436 -0.7565 -1.9514 -1.4636
   70SLPC   H2Y 6006   6.259  -0.721  10.337 -0.5327  1.2367 -0.2965
   70SLPC   C23 6007   6.439  -0.448  10.193  0.1872 -0.3457 -0.1554
   70SLPC   H3R 6008   6.329  -0.450  10.213  0.2693  0.6019  0.4705
   70SLPC   H3S 6009   6.475  -0.519  10.270  0.6340 -0.5587 -0.5610
   70SLPC   C24 6010   6.451  -0.488  10.049 -0.4491 -0.0151  0.4035
   70SLPC   H4R 6011   6.411  -0.592  10.043  0.8294 -0.5659  0.9858
   70SLPC   H4S 6012   6.558  -0.500  10.022 -0.1482  3.1582 -0.2113
   70SLPC   C25 6013   6.381  -0.398   9.950  0.6441 -0.4067  1.0958
   70SLPC   H5R 6014   6.400  -0.290   9.966  1.0266 -0.1484 -0.8295
   70SLPC   H5S 6015   6.272  -0.420   9.946  0.6121 -0.2206  0.8815
   70SLPC   C26 6016   6.441  -0.423   9.812 -0.1701 -1.1948 -0.6400
   70SLPC   H6R 6017   6.427  -0.530   9.784  0.7768 -1.1455 -1.3759
   70SLPC   H6S 6018   6.550  -0.400   9.802 -0.7724  1.4140 -2.2274
   70SLPC   C27 6019   6.371  -0.340   9.699  0.6061 -0.3156  0.0289
   70SLPC   H7R 6020   6.397  -0.234   9.720  2.8926 -0.6016 -1.0355
   70SLPC   H7S 6021   6.262  -0.361   9.704  0.1848  0.7801 -2.8012
   70SLPC   C28 6022   6.432  -0.367   9.562  0.1619  0.5006 -0.3958
   70SLPC   H8R 6023   6.436  -0.476   9.541  2.3981  0.3519  0.5288
   70SLPC   H8S 6024   6.535  -0.327   9.570 -0.0771  0.8317  1.4650
   70SLPC   C29 6025   6.359  -0.296   9.452 -0.8940 -0.5097 -0.1140
   70SLPC   H9R 6026   6.250  -0.312   9.459 -0.7648 -0.6281  2.3121
   70SLPC  C210 6027   6.424  -0.225   9.357  0.2185  0.2185  0.1872
   70SLPC  H10R 6028   6.361  -0.178   9.280 -0.8013  0.7608  1.3180
   70SLPC  C211 6029   6.574  -0.206   9.345 -0.2242 -0.4133 -0.1211
   70SLPC  H11R 6030   6.599  -0.164   9.245  0.6207  3.2970  1.4975
   70SLPC  H11S 6031   6.634  -0.294   9.377 -1.6383 -0.8025  1.6108
   70SLPC  C212 6032   6.612  -0.086   9.440  0.3867  0.8138 -0.2793
   70SLPC  H12R 6033   6.635  -0.105   9.546 -0.2319  0.3965 -0.2116
   70SLPC  C213 6034   6.590   0.044   9.413  0.3485  0.8927 -1.0756
   70SLPC  H13R 6035   6.619   0.123   9.485  0.3813  2.1445 -2.4118
   70SLPC  C214 6036   6.533   0.105   9.289 -0.4426  0.3288 -0.0810
   70SLPC  H14R 6037   6.513   0.024   9.215  3.3320 -0.9298  0.0947
   70SLPC  H14S 6038   6.612   0.173   9.250  1.5008 -0.7321  1.8254
   70SLPC  C215 6039   6.399   0.181   9.323  0.0864  0.0422 -0.4830
   70SLPC  H15R 6040   6.437   0.238   9.411  0.3871 -0.5557 -0.2177
   70SLPC  H15S 6041   6.323   0.115   9.369  1.0984 -1.7347 -1.2916
   70SLPC  C216 6042   6.337   0.256   9.204 -0.5330 -0.1055  0.9057
   70SLPC  H16R 6043   6.409   0.335   9.173 -1.7912  1.5871  2.1214
   70SLPC  H16S 6044   6.238   0.292   9.239 -0.8064  0.2247 -0.1494
   70SLPC  C217 6045   6.286   0.155   9.101 -0.5959 -0.4113  0.4889
   70SLPC  H17R 6046   6.267   0.064   9.163  0.2425 -0.8076  0.1841
   70SLPC  H17S 6047   6.367   0.129   9.030 -0.4351  1.2204  0.0445
   70SLPC  C218 6048   6.156   0.205   9.036  0.0350 -0.3597 -0.6670
   70SLPC  H18R 6049   6.113   0.127   8.970 -1.3917 -0.4777  0.3699
   70SLPC  H18S 6050   6.176   0.295   8.973 -0.8980  0.7397  0.5700
   70SLPC  H18T 6051   6.082   0.232   9.114  0.9889  0.6968 -0.0936
   70SLPC   C33 6052   6.082  -0.800  10.221 -0.3045 -0.6339  0.5605
   70SLPC   H3X 6053   5.972  -0.807  10.236  0.0570 -0.9559  3.7167
   70SLPC   H3Y 6054   6.108  -0.908  10.225  0.0026 -0.5921 -0.0415
   70SLPC   C34 6055   6.123  -0.733  10.094  0.2581 -0.5915  0.9167
   70SLPC   H4X 6056   6.234  -0.734  10.101  0.1753 -0.9623  2.6004
   70SLPC   H4Y 6057   6.098  -0.624  10.092  0.8171 -0.4110 -1.9695
   70SLPC   C35 6058   6.066  -0.801   9.970  0.0019 -0.3707 -0.6962
   70SLPC   H5X 6059   5.955  -0.807   9.960 -0.1150  1.2579 -0.6275
   70SLPC   H5Y 6060   6.110  -0.901   9.953  1.6205 -0.0727  1.3678
   70SLPC   C36 6061   6.100  -0.716   9.847  0.1646  0.6779  0.3083
   70SLPC   H6X 6062   6.183  -0.646   9.873  0.6920  1.4215 -3.0229
   70SLPC   H6Y 6063   6.012  -0.651   9.824 -2.8346 -3.0596  0.3272
   70SLPC   C37 6064   6.151  -0.801   9.732 -0.2075 -0.9974 -0.2242
   70SLPC   H7X 6065   6.065  -0.866   9.705 -1.4692 -0.0483  1.3539
   70SLPC   H7Y 6066   6.236  -0.862   9.770  0.7431  0.5060  0.1570
   70SLPC   C38 6067   6.184  -0.708   9.613 -1.1133 -0.1657 -0.5746
   70SLPC   H8X 6068   6.265  -0.635   9.633 -2.5637  1.3461 -0.0342
   70SLPC   H8Y 6069   6.104  -0.633   9.598  0.7541  2.2053  0.5860
   70SLPC   C39 6070   6.225  -0.791   9.486  0.1485  0.2121  0.0432
   70SLPC   H9X 6071   6.137  -0.851   9.455  0.2925  0.9032 -1.8589
   70SLPC   H9Y 6072   6.313  -0.853   9.514 -0.3194 -0.0385  1.0007
   70SLPC  C310 6073   6.251  -0.697   9.366 -0.7616  0.2121 -0.5088
   70SLPC  H10X 6074   6.318  -0.615   9.398 -1.1509  0.2660  0.2008
   70SLPC  H10Y 6075   6.158  -0.651   9.325  0.1910  4.1594  1.2654
   70SLPC  C311 6076   6.317  -0.773   9.249 -0.7826  0.2189  1.4041
   70SLPC  H11X 6077   6.248  -0.860   9.240 -0.2047 -0.0654 -1.1289
   70SLPC  H11Y 6078   6.418  -0.807   9.279 -0.5697  0.6235  1.1406
   70SLPC  C312 6079   6.323  -0.699   9.114  0.3248  0.2321  0.0767
   70SLPC  H12X 6080   6.224  -0.671   9.073  0.1000 -1.0679 -0.2926
   70SLPC  H12Y 6081   6.381  -0.769   9.051  3.9960  3.1736 -0.2047
   70SLPC  C313 6082   6.410  -0.568   9.133  0.1933  0.4054  0.1598
   70SLPC  H13X 6083   6.490  -0.608   9.199 -0.7982  1.3451  1.9876
   70SLPC  H13Y 6084   6.354  -0.490   9.188 -1.9811 -0.1882 -1.0845
   70SLPC  C314 6085   6.470  -0.530   8.998  0.4444 -0.0493 -0.0196
   70SLPC  H14X 6086   6.386  -0.514   8.927 -0.1451 -0.7600  0.5071
   70SLPC  H14Y 6087   6.532  -0.614   8.961 -0.6859 -1.2123  0.6551
   70SLPC  C315 6088   6.542  -0.395   9.010  0.5777 -0.2869 -0.3747
   70SLPC  H15X 6089   6.634  -0.402   9.072  1.2562 -0.4802 -1.3706
   70SLPC  H15Y 6090   6.478  -0.320   9.061 -1.3359 -1.7381 -0.5428
   70SLPC  C316 6091   6.573  -0.348   8.871 -0.5003  0.7695  0.0709
   70SLPC  H16X 6092   6.600  -0.439   8.813  0.5667  1.1600 -0.0592
   70SLPC  H16Y 6093   6.663  -0.284   8.857  1.3868 -1.7926 -0.2337
   70SLPC  C317 6094   6.451  -0.271   8.809  0.0823  0.3823  0.1008
   70SLPC  H17X 6095   6.436  -0.191   8.884 -1.4927 -2.4473  3.0242
   70SLPC  H17Y 6096   6.366  -0.342   8.806 -0.7276  1.2810  0.9652
   70SLPC  C318 6097   6.488  -0.192   8.678 -0.0152 -0.0456  0.4647
   70SLPC  H18X 6098   6.398  -0.133   8.649  0.0591  1.3455  2.8262
   70SLPC  H18Y 6099   6.501  -0.271   8.600 -0.0503 -0.0911  0.5045
   70SLPC  H18Z 6100   6.584  -0.140   8.698 -0.7434  1.8977 -0.8824
   71SLPC     N 6101   5.661   2.459  10.856  0.2680 -1.0414  0.2227
   71SLPC   C13 6102   5.781   2.373  10.866  0.3174  0.1884 -0.4501
   71SLPC  H13A 6103   5.868   2.421  10.822 -0.1512  2.8717  1.3342
   71SLPC  H13B 6104   5.806   2.364  10.971 -2.0514  0.9550  0.2227
   71SLPC  H13C 6105   5.762   2.280  10.815 -1.6034  0.8615 -1.0250
   71SLPC   C14 6106   5.689   2.595  10.899 -0.1340 -0.4851  0.7173
   71SLPC  H14A 6107   5.708   2.601  11.006 -1.3041  0.8425  0.8947
   71SLPC  H14B 6108   5.769   2.644  10.846 -2.3045  1.0491 -1.3268
   71SLPC  H14C 6109   5.609   2.667  10.891 -0.9468 -1.4387  0.1087
   71SLPC   C15 6110   5.542   2.420  10.934  0.1919  0.6137 -0.0981
   71SLPC  H15A 6111   5.492   2.331  10.899 -0.0586  1.1492 -1.1481
   71SLPC  H15B 6112   5.565   2.408  11.038 -1.6102  0.4001  0.3122
   71SLPC  H15C 6113   5.465   2.493  10.914  0.7061  1.6455  1.4860
   71SLPC   C12 6114   5.620   2.461  10.704  0.5458 -0.0392 -0.0826
   71SLPC  H12A 6115   5.696   2.516  10.650  2.7369 -1.9954  0.8672
   71SLPC  H12B 6116   5.527   2.516  10.698  1.5838  1.7895 -0.4066
   71SLPC   C11 6117   5.607   2.327  10.640  0.3667  0.2015 -0.8532
   71SLPC  H11A 6118   5.541   2.342  10.552  0.8867  2.1729 -0.9604
   71SLPC  H11B 6119   5.547   2.261  10.706 -0.6830 -0.2739 -2.2193
   71SLPC     P 6120   5.811   2.308  10.470  0.1422  0.2548 -0.0138
   71SLPC   O13 6121   5.949   2.346  10.497  0.2127 -0.5636  0.2602
   71SLPC   O14 6122   5.791   2.192  10.380 -0.1976 -0.3939 -0.1339
   71SLPC   O12 6123   5.736   2.274  10.605  0.5423  0.4130 -0.4623
   71SLPC   O11 6124   5.735   2.431  10.412 -0.3331 -0.2102 -0.1718
   71SLPC    C1 6125   5.798   2.559  10.407  0.0499 -0.2572  0.0579
   71SLPC    HA 6126   5.729   2.642  10.432  0.7292  0.2374  0.3174
   71SLPC    HB 6127   5.881   2.567  10.481 -0.5349 -1.9094  0.9398
   71SLPC    C2 6128   5.864   2.603  10.272 -0.3879 -0.0021 -0.1450
   71SLPC    HS 6129   5.907   2.703  10.292  1.2550 -1.2435  3.4476
   71SLPC   O21 6130   5.772   2.586  10.163 -0.3723 -0.4624 -0.2691
   71SLPC   C21 6131   5.764   2.687  10.079 -0.3325 -0.4230  0.0983
   71SLPC   O22 6132   5.823   2.793  10.087  0.5564 -1.5685 -0.7061
   71SLPC   C22 6133   5.652   2.648   9.985  0.0286 -0.6676 -0.0162
   71SLPC   H2R 6134   5.695   2.568   9.922  0.9727 -0.9900  1.0186
   71SLPC   H2S 6135   5.565   2.612  10.044  0.9895 -1.0507  1.2019
   71SLPC    C3 6136   5.993   2.510  10.251  0.1558  0.0326 -0.2271
   71SLPC    HX 6137   5.970   2.403  10.233  0.7650 -0.3385  1.0579
   71SLPC    HY 6138   6.055   2.518  10.343 -1.2158  2.4907  0.5733
   71SLPC   O31 6139   6.069   2.562  10.138 -0.0091  0.0747  0.0765
   71SLPC   C31 6140   6.186   2.498  10.105 -0.1935 -0.0163  0.4395
   71SLPC   O32 6141   6.238   2.407  10.174  0.3776 -0.4783  0.2621
   71SLPC   C32 6142   6.245   2.570   9.987  0.2272 -0.8520  0.6665
   71SLPC   H2X 6143   6.250   2.679  10.006 -1.7191 -0.5755 -0.1679
   71SLPC   H2Y 6144   6.194   2.547   9.890 -0.7844  2.8782  0.1668
   71SLPC   C23 6145   5.609   2.758   9.891 -0.7337 -0.2808  0.2758
   71SLPC   H3R 6146   5.560   2.848   9.933 -1.5106  0.3581 -1.8715
   71SLPC   H3S 6147   5.527   2.714   9.832 -1.4715  0.7228  0.5313
   71SLPC   C24 6148   5.716   2.798   9.786  0.0878  0.1633  0.0123
   71SLPC   H4R 6149   5.759   2.700   9.757 -0.1144  0.3503 -0.9568
   71SLPC   H4S 6150   5.800   2.858   9.827 -1.1524  1.3811  0.8449
   71SLPC   C25 6151   5.668   2.885   9.670 -0.4661  0.3037 -0.7584
   71SLPC   H5R 6152   5.635   2.983   9.711  0.5917  1.2488 -2.1040
   71SLPC   H5S 6153   5.583   2.829   9.626 -0.3900 -0.7257  0.3566
   71SLPC   C26 6154   5.780   2.932   9.578 -0.4023 -0.1735  0.0854
   71SLPC   H6R 6155   5.855   2.863   9.535  0.3923  0.7284  0.0049
   71SLPC   H6S 6156   5.840   3.009   9.631  0.7456 -0.3748 -0.8824
   71SLPC   C27 6157   5.720   2.992   9.460 -0.4259 -0.0376 -0.2616
   71SLPC   H7R 6158   5.680   3.085   9.506 -0.8016 -0.6241  0.6070
   71SLPC   H7S 6159   5.638   2.934   9.412  0.3590  0.6631 -2.5954
   71SLPC   C28 6160   5.821   3.026   9.354 -0.6759  0.3640 -0.0596
   71SLPC   H8R 6161   5.913   3.073   9.395  0.1680 -2.1924  1.1613
   71SLPC   H8S 6162   5.775   3.113   9.303 -0.4085  1.0009  0.7645
   71SLPC   C29 6163   5.861   2.907   9.268  0.0346 -0.3000 -0.4769
   71SLPC   H9R 6164   5.943   2.848   9.310  1.1099  1.6919  0.3667
   71SLPC  C210 6165   5.828   2.880   9.145 -0.5044  0.2387  0.7854
   71SLPC  H10R 6166   5.872   2.792   9.096  0.2152  0.8850  0.2504
   71SLPC  C211 6167   5.727   2.962   9.068 -0.0061  0.0878  0.0452
   71SLPC  H11R 6168   5.761   2.988   8.966 -0.2406 -1.2567 -0.3970
   71SLPC  H11S 6169   5.715   3.065   9.109  2.1508 -0.6140  2.6923
   71SLPC  C212 6170   5.601   2.889   9.063 -0.5125  0.4572  0.1199
   71SLPC  H12R 6171   5.603   2.785   9.100 -0.1118  0.1783 -0.6442
   71SLPC  C213 6172   5.484   2.935   9.004 -0.2334 -0.3670 -0.6432
   71SLPC  H13R 6173   5.395   2.870   9.012  0.3022 -0.9333  1.3532
   71SLPC  C214 6174   5.455   3.078   8.950 -0.2299 -0.8892 -0.1384
   71SLPC  H14R 6175   5.509   3.154   9.009 -2.9710 -0.3183  1.8303
   71SLPC  H14S 6176   5.346   3.100   8.955 -0.0728 -0.2355  0.4922
   71SLPC  C215 6177   5.499   3.089   8.800  0.4571  0.8595 -0.8449
   71SLPC  H15R 6178   5.439   3.021   8.737  0.1227 -0.1913  0.5453
   71SLPC  H15S 6179   5.607   3.066   8.786  0.1777 -0.5546 -0.8378
   71SLPC  C216 6180   5.478   3.222   8.727  0.2182  0.3940 -0.3418
   71SLPC  H16R 6181   5.376   3.264   8.741 -0.1340 -1.0862  2.0567
   71SLPC  H16S 6182   5.495   3.213   8.617 -1.1737 -0.3403 -0.5301
   71SLPC  C217 6183   5.573   3.336   8.783 -0.2171 -0.4637 -0.0560
   71SLPC  H17R 6184   5.677   3.298   8.788 -0.2932 -0.6590  0.0567
   71SLPC  H17S 6185   5.542   3.350   8.889  0.4339  1.3209 -0.0812
   71SLPC  C218 6186   5.551   3.467   8.698  0.4436 -0.2923 -0.0051
   71SLPC  H18R 6187   5.445   3.495   8.681  0.9211  0.6171 -1.6035
   71SLPC  H18S 6188   5.602   3.453   8.601  0.2880 -2.4540  0.1748
   71SLPC  H18T 6189   5.591   3.554   8.755 -1.4565 -0.6389  1.9977
   71SLPC   C33 6190   6.386   2.525   9.981 -0.8141  0.1000  0.3128
   71SLPC   H3X 6191   6.394   2.416   9.962  0.1775  0.1940  0.1244
   71SLPC   H3Y 6192   6.436   2.546  10.078  0.2570  0.6853 -0.3471
   71SLPC   C34 6193   6.468   2.589   9.869 -0.1930  0.0749  0.8463
   71SLPC   H4X 6194   6.567   2.539   9.876 -1.4526 -2.6783  0.0886
   71SLPC   H4Y 6195   6.480   2.700   9.867 -2.0321  0.3101  1.5613
   71SLPC   C35 6196   6.401   2.544   9.737  0.1009 -0.2663  0.3423
   71SLPC   H5X 6197   6.308   2.604   9.726  0.0999 -0.5334 -1.3579
   71SLPC   H5Y 6198   6.373   2.437   9.740 -1.9029  0.1674 -0.7004
   71SLPC   C36 6199   6.482   2.563   9.607  0.8988  0.4744 -0.5096
   71SLPC   H6X 6200   6.585   2.524   9.621  0.3439 -0.6563  0.6147
   71SLPC   H6Y 6201   6.481   2.673   9.591 -0.2992 -0.0001 -4.9224
   71SLPC   C37 6202   6.417   2.497   9.483 -0.1884  0.3221  0.2605
   71SLPC   H7X 6203   6.327   2.561   9.468  0.3921  1.0865 -0.0375
   71SLPC   H7Y 6204   6.384   2.392   9.498  0.9054 -0.3668 -1.8003
   71SLPC   C38 6205   6.507   2.505   9.355  0.1817  0.6102  0.1173
   71SLPC   H8X 6206   6.608   2.476   9.388 -0.0037 -0.0132  0.1499
   71SLPC   H8Y 6207   6.513   2.611   9.324  1.3343  1.4132  2.8092
   71SLPC   C39 6208   6.473   2.421   9.235 -1.1741 -0.1056 -0.5832
   71SLPC   H9X 6209   6.364   2.430   9.215 -1.0161  1.0112 -1.0139
   71SLPC   H9Y 6210   6.492   2.312   9.237 -2.4385 -0.3611 -1.4106
   71SLPC  C310 6211   6.537   2.472   9.106  0.2510 -1.0533 -0.1177
   71SLPC  H10X 6212   6.646   2.451   9.119  0.1727 -1.5314 -0.1996
   71SLPC  H10Y 6213   6.526   2.582   9.103  0.5389 -1.0408 -0.7749
   71SLPC  C311 6214   6.493   2.402   8.977 -0.4646  0.1773 -0.7909
   71SLPC  H11X 6215   6.382   2.406   8.987 -0.3436  0.5172  0.5917
   71SLPC  H11Y 6216   6.522   2.295   8.976  1.1128  0.5114 -3.6514
   71SLPC  C312 6217   6.535   2.469   8.848  0.3832 -0.2120  0.5701
   71SLPC  H12X 6218   6.538   2.406   8.756  0.1934  2.2901 -1.2509
   71SLPC  H12Y 6219   6.635   2.512   8.869  0.3891  0.7098 -1.1958
   71SLPC  C313 6220   6.441   2.591   8.820 -0.0065 -1.1031  0.1361
   71SLPC  H13X 6221   6.430   2.660   8.906  2.2616 -1.2114  0.5721
   71SLPC  H13Y 6222   6.340   2.551   8.797 -0.0714 -1.6506  1.2843
   71SLPC  C314 6223   6.496   2.666   8.697 -0.4397 -0.3900  0.0799
   71SLPC  H14X 6224   6.500   2.589   8.616  0.7421  1.1577 -1.3947
   71SLPC  H14Y 6225   6.601   2.696   8.716 -0.2417 -0.8207 -0.3027
   71SLPC  C315 6226   6.400   2.793   8.677  0.1254  0.1846 -0.0340
   71SLPC  H15X 6227   6.416   2.860   8.764  3.6403 -0.0025 -0.3936
   71SLPC  H15Y 6228   6.294   2.760   8.686  0.1536  0.2035  0.3679
   71SLPC  C316 6229   6.436   2.868   8.556 -0.2186 -0.3172  0.3232
   71SLPC  H16X 6230   6.372   2.959   8.554 -0.8487 -0.7146  1.6280
   71SLPC  H16Y 6231   6.407   2.800   8.473 -0.0890 -0.4708  0.4031
   71SLPC  C317 6232   6.584   2.910   8.556  0.5639 -0.1873 -0.4286
   71SLPC  H17X 6233   6.658   2.831   8.530  1.2444  0.2479  0.1213
   71SLPC  H17Y 6234   6.605   2.948   8.658  3.0437 -0.5930 -0.7135
   71SLPC  C318 6235   6.611   3.026   8.461  0.4638  0.1363  0.5535
   71SLPC  H18X 6236   6.573   3.007   8.358 -1.1074  1.2954  0.8741
   71SLPC  H18Y 6237   6.720   3.038   8.444  0.5692 -0.3373  0.8852
   71SLPC  H18Z 6238   6.573   3.122   8.502  3.1923 -0.1196  4.1142
   72SLPC     N 6239   6.587   5.090  10.970  0.3429 -0.2047  0.2675
   72SLPC   C13 6240   6.731   5.067  10.927 -0.3549  0.8487 -0.6900
   72SLPC  H13A 6241   6.736   5.034  10.824 -3.4605 -1.5923 -0.2057
   72SLPC  H13B 6242   6.783   5.162  10.926  0.7799  0.3127 -3.4445
   72SLPC  H13C 6243   6.779   4.999  10.995 -0.4851  2.4354  1.0840
   72SLPC   C14 6244   6.528   5.196  10.885 -0.1145 -0.1688 -0.6393
   72SLPC  H14A 6245   6.561   5.295  10.913 -2.0119  0.5329 -0.6783
   72SLPC  H14B 6246   6.561   5.179  10.784  2.5561 -0.0696  0.1391
   72SLPC  H14C 6247   6.420   5.190  10.889 -0.0906 -1.1863 -1.2221
   72SLPC   C15 6248   6.583   5.140  11.112  0.3045 -0.2849 -0.1018
   72SLPC  H15A 6249   6.494   5.199  11.123 -0.9899 -2.2764  0.6724
   72SLPC  H15B 6250   6.578   5.060  11.185  1.0761  1.1104  1.5416
   72SLPC  H15C 6251   6.672   5.193  11.141  1.1771 -1.3236 -0.7754
   72SLPC   C12 6252   6.502   4.959  10.971  0.2016 -0.3936  0.5917
   72SLPC  H12A 6253   6.404   4.983  11.010 -0.3228 -0.3563 -0.7028
   72SLPC  H12B 6254   6.551   4.892  11.040  1.6648 -0.2544 -0.2773
   72SLPC   C11 6255   6.489   4.900  10.829 -0.4357 -0.1546  0.4165
   72SLPC  H11A 6256   6.494   4.987  10.760  3.8077  1.1795  2.1011
   72SLPC  H11B 6257   6.396   4.840  10.823 -1.0522  0.7504  0.6557
   72SLPC     P 6258   6.624   4.753  10.650 -0.4429  0.1760 -0.3339
   72SLPC   O13 6259   6.767   4.730  10.640  0.5483  0.1841 -0.4681
   72SLPC   O14 6260   6.534   4.639  10.630  0.3072 -0.3394 -0.0988
   72SLPC   O12 6261   6.603   4.810  10.790  0.6096 -0.3818 -0.6403
   72SLPC   O11 6262   6.573   4.872  10.560 -0.4055  0.1139 -0.2627
   72SLPC    C1 6263   6.438   4.867  10.507 -0.7071 -0.2804  0.4145
   72SLPC    HA 6264   6.367   4.806  10.567 -1.4309 -0.2356 -0.3772
   72SLPC    HB 6265   6.403   4.972  10.500  0.1711 -0.0779 -1.6183
   72SLPC    C2 6266   6.450   4.826  10.358  0.6801  0.0104  0.4185
   72SLPC    HS 6267   6.425   4.914  10.295 -0.9019 -0.8270 -0.1854
   72SLPC   O21 6268   6.359   4.722  10.323  0.1554 -0.0086  0.6274
   72SLPC   C21 6269   6.237   4.760  10.328 -0.3256 -0.0529  0.1115
   72SLPC   O22 6270   6.194   4.878  10.325 -0.0537  0.5938 -0.1554
   72SLPC   C22 6271   6.150   4.634  10.350 -0.1308  1.0038  0.1526
   72SLPC   H2R 6272   6.179   4.575  10.440  1.5465 -0.6551 -1.4100
   72SLPC   H2S 6273   6.041   4.656  10.358 -0.2619  0.4706 -0.1123
   72SLPC    C3 6274   6.596   4.783  10.308  0.1068  0.2156  0.1376
   72SLPC    HX 6275   6.628   4.690  10.360  1.5329  0.7672  0.3094
   72SLPC    HY 6276   6.664   4.868  10.335  1.1065 -0.4290 -0.2965
   72SLPC   O31 6277   6.605   4.751  10.170  0.1980 -0.0811 -0.0945
   72SLPC   C31 6278   6.610   4.845  10.083  0.2559 -0.5899  0.9433
   72SLPC   O32 6279   6.604   4.966  10.100  0.1525  0.1594  0.4769
   72SLPC   C32 6280   6.614   4.784   9.946  0.1022  1.2688  0.4686
   72SLPC   H2X 6281   6.551   4.692   9.947  0.8500  0.7378 -0.0007
   72SLPC   H2Y 6282   6.720   4.755   9.929  0.1156  1.4423  0.2462
   72SLPC   C23 6283   6.183   4.529  10.239  0.3236 -0.0919 -0.2071
   72SLPC   H3R 6284   6.116   4.442  10.258 -1.3105  1.2732  0.5620
   72SLPC   H3S 6285   6.288   4.494  10.234  1.1763  2.3871 -0.6696
   72SLPC   C24 6286   6.144   4.590  10.103  0.3350 -0.3367  0.4047
   72SLPC   H4R 6287   6.199   4.682  10.073  0.1040 -1.2460 -3.2275
   72SLPC   H4S 6288   6.035   4.607  10.113  0.5766  0.5464  1.8196
   72SLPC   C25 6289   6.171   4.496   9.989  0.2200 -0.5979  0.4719
   72SLPC   H5R 6290   6.147   4.392  10.020  0.4774 -0.2654  1.8802
   72SLPC   H5S 6291   6.279   4.509   9.964 -0.0864 -1.3176 -1.3594
   72SLPC   C26 6292   6.095   4.531   9.866  0.6826 -0.8272  0.4319
   72SLPC   H6R 6293   6.100   4.640   9.846 -0.4914 -0.8965 -0.3441
   72SLPC   H6S 6294   5.989   4.508   9.891  1.2305 -3.6405  0.5449
   72SLPC   C27 6295   6.128   4.455   9.742 -0.1921  0.1463 -0.0722
   72SLPC   H7R 6296   6.108   4.348   9.762 -0.1212  0.7319  3.7534
   72SLPC   H7S 6297   6.230   4.482   9.706 -0.9849  3.1920 -0.3361
   72SLPC   C28 6298   6.033   4.495   9.622  0.2069 -0.0166 -0.3993
   72SLPC   H8R 6299   6.059   4.596   9.584 -0.2377 -0.4601 -1.9362
   72SLPC   H8S 6300   5.933   4.508   9.670  1.1546 -1.2891  2.1241
   72SLPC   C29 6301   6.039   4.398   9.509 -0.9717 -0.6122  0.3018
   72SLPC   H9R 6302   5.965   4.317   9.506 -1.2344 -0.3391 -1.2892
   72SLPC  C210 6303   6.124   4.414   9.405 -0.6605  1.0252 -0.5659
   72SLPC  H10R 6304   6.128   4.332   9.331  1.2713  0.2841  0.2792
   72SLPC  C211 6305   6.234   4.517   9.393  0.2718  0.8727 -0.2813
   72SLPC  H11R 6306   6.279   4.530   9.493 -0.5065 -1.7821  0.4998
   72SLPC  H11S 6307   6.190   4.611   9.354 -1.8764  0.2886  0.5434
   72SLPC  C212 6308   6.343   4.463   9.307  0.3469 -0.7404  0.0952
   72SLPC  H12R 6309   6.330   4.501   9.204  1.0649 -2.3696 -0.6389
   72SLPC  C213 6310   6.444   4.382   9.336  0.5371 -0.4852  0.2117
   72SLPC  H13R 6311   6.516   4.376   9.253  0.8159 -0.8641  0.4848
   72SLPC  C214 6312   6.475   4.324   9.468 -0.0272 -0.0834  0.3934
   72SLPC  H14R 6313   6.490   4.214   9.457  0.2065 -0.5162  3.9009
   72SLPC  H14S 6314   6.395   4.333   9.545 -1.6234  0.6527 -1.2794
   72SLPC  C215 6315   6.597   4.382   9.538  0.0617 -0.0437  0.7958
   72SLPC  H15R 6316   6.580   4.489   9.563 -0.8917 -0.0611  0.3051
   72SLPC  H15S 6317   6.693   4.365   9.485  0.9501  1.1580  1.9336
   72SLPC  C216 6318   6.610   4.322   9.685  0.5392 -0.1175 -0.2039
   72SLPC  H16R 6319   6.712   4.312   9.728  0.6764 -1.9790 -0.8439
   72SLPC  H16S 6320   6.558   4.224   9.683 -2.2272  1.2594 -0.4246
   72SLPC  C217 6321   6.522   4.395   9.787  0.2465 -0.3870 -0.6089
   72SLPC  H17R 6322   6.423   4.388   9.737  0.5197  0.8032 -1.3456
   72SLPC  H17S 6323   6.552   4.502   9.790  1.8303 -0.7810 -1.3349
   72SLPC  C218 6324   6.539   4.354   9.931 -0.2378 -0.0493  0.1964
   72SLPC  H18R 6325   6.461   4.402   9.995 -1.6375 -1.1493 -0.6357
   72SLPC  H18S 6326   6.644   4.373   9.961 -0.2765  0.7225 -0.1490
   72SLPC  H18T 6327   6.529   4.244   9.938  0.4194 -0.0379  1.6514
   72SLPC   C33 6328   6.550   4.857   9.830 -1.0589  0.2998  0.3288
   72SLPC   H3X 6329   6.595   4.958   9.819  0.2004 -0.2709 -0.0237
   72SLPC   H3Y 6330   6.445   4.885   9.850 -1.3207 -0.3933 -0.0618
   72SLPC   C34 6331   6.568   4.774   9.699 -0.2213 -0.3943 -0.2188
   72SLPC   H4X 6332   6.488   4.698   9.687  0.2816 -1.0541  0.5054
   72SLPC   H4Y 6333   6.673   4.736   9.699  0.5851  1.6945 -0.9494
   72SLPC   C35 6334   6.565   4.849   9.562 -0.3831 -0.1263  0.1996
   72SLPC   H5X 6335   6.638   4.933   9.562  1.1183 -1.3685  1.0012
   72SLPC   H5Y 6336   6.461   4.887   9.553 -1.0992 -2.3141 -1.8410
   72SLPC   C36 6337   6.597   4.756   9.444  0.5175 -0.4929  0.2365
   72SLPC   H6X 6338   6.519   4.676   9.443 -1.3369  1.2113 -1.6424
   72SLPC   H6Y 6339   6.701   4.719   9.455  0.6662 -0.6006 -1.3297
   72SLPC   C37 6340   6.612   4.816   9.308  0.0878 -0.1071 -0.0193
   72SLPC   H7X 6341   6.676   4.906   9.305 -0.7768  0.5161 -0.1422
   72SLPC   H7Y 6342   6.512   4.854   9.278  0.5954  0.7854 -0.6173
   72SLPC   C38 6343   6.670   4.717   9.204  0.4573 -0.1298  1.0433
   72SLPC   H8X 6344   6.608   4.624   9.207  0.0235  0.1401  0.5546
   72SLPC   H8Y 6345   6.772   4.682   9.230  0.7878  0.8072  1.0352
   72SLPC   C39 6346   6.668   4.766   9.055 -0.1886  0.9764  0.6837
   72SLPC   H9X 6347   6.774   4.768   9.021 -0.1242  1.3057  0.8954
   72SLPC   H9Y 6348   6.649   4.875   9.047 -0.8186  0.8501  0.4038
   72SLPC  C310 6349   6.575   4.689   8.958  0.1804  0.3365  0.7974
   72SLPC  H10X 6350   6.470   4.719   8.980 -0.1002  3.6311 -3.6629
   72SLPC  H10Y 6351   6.592   4.581   8.978  0.3709  0.6897  2.7250
   72SLPC  C311 6352   6.593   4.734   8.808  0.3703  0.3251 -0.0671
   72SLPC  H11X 6353   6.566   4.841   8.800 -0.8589  0.0098 -0.3706
   72SLPC  H11Y 6354   6.519   4.690   8.738  2.6818 -3.4847 -0.3885
   72SLPC  C312 6355   6.728   4.696   8.739  0.2761  0.0220  0.1561
   72SLPC  H12X 6356   6.731   4.603   8.679  1.7227  1.5622 -2.3452
   72SLPC  H12Y 6357   6.800   4.676   8.821 -0.3636  2.7826  1.5169
   72SLPC  C313 6358   6.773   4.808   8.652 -0.3309  0.2953 -0.1208
   72SLPC  H13X 6359   6.871   4.786   8.603 -1.1639  0.5874 -1.9903
   72SLPC  H13Y 6360   6.793   4.898   8.714  2.9570 -1.1035  1.0850
   72SLPC  C314 6361   6.686   4.838   8.530 -0.1755  0.6128 -0.4724
   72SLPC  H14X 6362   6.578   4.857   8.551 -0.3112 -1.8324  1.5446
   72SLPC  H14Y 6363   6.685   4.753   8.460 -2.0071  0.3808 -0.2206
   72SLPC  C315 6364   6.750   4.958   8.453  0.0378 -0.3477 -0.4292
   72SLPC  H15X 6365   6.860   4.960   8.462  0.0281  0.8825 -0.4486
   72SLPC  H15Y 6366   6.716   5.048   8.509 -0.2245 -0.5391 -0.2785
   72SLPC  C316 6367   6.715   4.971   8.307 -0.1144 -0.5947  0.9243
   72SLPC  H16X 6368   6.767   5.065   8.282  1.0742 -0.5224  3.3948
   72SLPC  H16Y 6369   6.605   4.980   8.291  0.2267  1.8827 -0.3763
   72SLPC  C317 6370   6.769   4.855   8.223  0.0647  0.1892  0.3697
   72SLPC  H17X 6371   6.729   4.760   8.264 -0.6559 -0.8039 -2.4165
   72SLPC  H17Y 6372   6.880   4.854   8.229  0.1124 -2.2778  0.3119
   72SLPC  C318 6373   6.733   4.871   8.072 -0.2562  0.1547 -0.3306
   72SLPC  H18X 6374   6.625   4.860   8.047 -0.0825 -2.3637 -0.2495
   72SLPC  H18Y 6375   6.790   4.795   8.014  3.7311  2.4869  0.1976
   72SLPC  H18Z 6376   6.773   4.965   8.029  1.1800 -0.9726 -1.5762
   73SLPC     N 6377   2.014   0.633  10.813  0.2858 -0.5022  0.2323
   73SLPC   C13 6378   1.913   0.686  10.716  0.0061 -0.4563  0.1234
   73SLPC  H13A 6379   1.965   0.717  10.627 -0.2970  0.7250  0.3330
   73SLPC  H13B 6380   1.846   0.607  10.687 -0.6112 -0.4330  1.3903
   73SLPC  H13C 6381   1.855   0.766  10.761  2.0523  1.7733 -0.9555
   73SLPC   C14 6382   1.941   0.598  10.936 -0.2228  0.1559 -0.4024
   73SLPC  H14A 6383   1.999   0.570  11.023 -0.2907 -0.2914 -0.4950
   73SLPC  H14B 6384   1.877   0.681  10.963 -1.1847 -1.4567  2.8450
   73SLPC  H14C 6385   1.869   0.517  10.926 -0.3010  0.1496  0.1501
   73SLPC   C15 6386   2.114   0.745  10.831  0.2609 -0.5871  0.2172
   73SLPC  H15A 6387   2.202   0.715  10.887  1.4724  2.0893 -0.0690
   73SLPC  H15B 6388   2.148   0.783  10.736 -0.9003  0.0005  0.0249
   73SLPC  H15C 6389   2.063   0.821  10.888 -0.2547 -1.3194  0.7446
   73SLPC   C12 6390   2.079   0.511  10.748 -0.0913  0.3391 -0.4412
   73SLPC  H12A 6391   2.002   0.436  10.734 -2.4342  2.6655 -0.8785
   73SLPC  H12B 6392   2.149   0.479  10.824  0.4428 -0.5667 -1.2941
   73SLPC   C11 6393   2.143   0.527  10.609 -0.1892 -0.0150  0.4105
   73SLPC  H11A 6394   2.070   0.572  10.538 -1.0062  0.6478  1.6342
   73SLPC  H11B 6395   2.173   0.429  10.568  1.9732  0.8038 -0.0929
   73SLPC     P 6396   2.406   0.566  10.642  0.1148 -0.1559  0.0559
   73SLPC   O13 6397   2.470   0.673  10.713 -0.1017 -0.5941 -0.4116
   73SLPC   O14 6398   2.394   0.435  10.706 -0.4882  0.1478  0.0173
   73SLPC   O12 6399   2.256   0.614  10.611 -0.2895  0.0789  0.1902
   73SLPC   O11 6400   2.475   0.551  10.504 -0.3494  0.4386  0.1149
   73SLPC    C1 6401   2.435   0.603  10.386 -0.0504  0.4819  1.0147
   73SLPC    HA 6402   2.326   0.596  10.369  0.2023  1.1040 -1.1697
   73SLPC    HB 6403   2.461   0.711  10.391 -0.7525  0.7262 -0.2067
   73SLPC    C2 6404   2.526   0.555  10.262  0.1360 -0.1489  0.2706
   73SLPC    HS 6405   2.498   0.614  10.173 -0.8349 -0.1968  0.5310
   73SLPC   O21 6406   2.506   0.418  10.234  0.2648  0.1002 -0.2143
   73SLPC   C21 6407   2.385   0.386  10.189 -0.2829  0.0824  0.6259
   73SLPC   O22 6408   2.289   0.459  10.161  0.1670 -0.6629 -0.9555
   73SLPC   C22 6409   2.383   0.237  10.175 -0.1711  0.0557  0.1966
   73SLPC   H2R 6410   2.484   0.197  10.155  0.7067  1.8090  0.9150
   73SLPC   H2S 6411   2.350   0.182  10.266 -2.3965  0.2515 -0.4123
   73SLPC    C3 6412   2.677   0.579  10.278 -0.5565 -0.4532  0.0167
   73SLPC    HX 6413   2.724   0.512  10.353  1.3307 -1.3892 -1.8959
   73SLPC    HY 6414   2.674   0.681  10.321  2.0491  0.2136 -1.1994
   73SLPC   O31 6415   2.748   0.584  10.160 -0.8459  0.0245  0.0426
   73SLPC   C31 6416   2.818   0.476  10.127 -0.4875  0.0968  0.4068
   73SLPC   O32 6417   2.819   0.378  10.199  0.0760  0.1143  0.1225
   73SLPC   C32 6418   2.910   0.505  10.004 -0.1946  0.4347 -0.1091
   73SLPC   H2X 6419   3.012   0.461  10.008 -0.4160 -0.2415 -1.3909
   73SLPC   H2Y 6420   2.936   0.612  10.008  2.2284 -0.1050  0.0174
   73SLPC   C23 6421   2.281   0.188  10.061  0.5029 -0.6049 -0.0725
   73SLPC   H3R 6422   2.177   0.218  10.087  0.7140 -1.4339  1.8896
   73SLPC   H3S 6423   2.275   0.078  10.047 -2.7667 -0.5485  0.0421
   73SLPC   C24 6424   2.318   0.238   9.918 -0.7496  0.5813 -0.2857
   73SLPC   H4R 6425   2.422   0.203   9.900 -1.1594 -0.2684 -1.0756
   73SLPC   H4S 6426   2.305   0.348   9.903 -2.2291  0.1037 -3.2419
   73SLPC   C25 6427   2.231   0.179   9.810  0.0751  0.4975 -0.1951
   73SLPC   H5R 6428   2.127   0.191   9.847  1.0045  2.0048  2.1842
   73SLPC   H5S 6429   2.240   0.068   9.812  0.6239  0.4644  3.4711
   73SLPC   C26 6430   2.256   0.237   9.671 -0.3023 -0.1590 -0.0515
   73SLPC   H6R 6431   2.351   0.198   9.628 -0.7670 -1.4736  0.0546
   73SLPC   H6S 6432   2.276   0.346   9.679 -1.3739  0.3760 -3.1379
   73SLPC   C27 6433   2.153   0.203   9.573 -0.7224 -0.8304  0.3262
   73SLPC   H7R 6434   2.052   0.231   9.610 -0.8740 -0.5724 -0.2688
   73SLPC   H7S 6435   2.153   0.092   9.569 -2.7459 -0.8314 -1.8929
   73SLPC   C28 6436   2.184   0.249   9.431 -0.0672 -0.2572  0.6272
   73SLPC   H8R 6437   2.276   0.199   9.394 -0.9861 -0.4311 -1.5983
   73SLPC   H8S 6438   2.200   0.359   9.425 -0.9391 -0.1500 -0.0277
   73SLPC   C29 6439   2.058   0.229   9.345 -0.2124  0.3944  0.8429
   73SLPC   H9R 6440   1.984   0.308   9.364 -0.6800  0.3231 -0.5364
   73SLPC  C210 6441   2.037   0.132   9.245  0.4836  0.3401 -0.2551
   73SLPC  H10R 6442   1.935   0.141   9.203  0.2734  0.0062  0.1677
   73SLPC  C211 6443   2.127   0.027   9.197 -0.2976 -0.8700  0.2364
   73SLPC  H11R 6444   2.077  -0.068   9.226 -2.1704  0.0720  0.2611
   73SLPC  H11S 6445   2.229   0.036   9.239  1.8245  1.5049 -4.5528
   73SLPC  C212 6446   2.137   0.035   9.043  0.5069  0.0968 -0.6923
   73SLPC  H12R 6447   2.075  -0.034   8.986 -1.0191 -0.0507  1.0441
   73SLPC  C213 6448   2.233   0.106   8.977 -0.9570  1.1515 -0.0473
   73SLPC  H13R 6449   2.235   0.103   8.867 -3.8491  1.6070 -0.1984
   73SLPC  C214 6450   2.342   0.190   9.040  0.0612  0.6063 -0.3472
   73SLPC  H14R 6451   2.438   0.151   9.001 -0.2436  0.0903 -0.5915
   73SLPC  H14S 6452   2.334   0.178   9.150 -1.0858  0.7086 -0.4071
   73SLPC  C215 6453   2.319   0.339   9.006  0.1153  0.0181 -0.8679
   73SLPC  H15R 6454   2.211   0.361   9.014 -0.4423 -2.5631 -0.4427
   73SLPC  H15S 6455   2.343   0.346   8.897 -0.0835  2.8362 -0.7870
   73SLPC  C216 6456   2.413   0.450   9.069 -0.4286 -0.7989 -0.2835
   73SLPC  H16R 6457   2.513   0.400   9.071 -0.4956 -0.9111  0.5235
   73SLPC  H16S 6458   2.387   0.480   9.173 -1.7499  1.1838 -1.1306
   73SLPC  C217 6459   2.426   0.587   8.997  0.3022 -0.3571 -0.1455
   73SLPC  H17R 6460   2.454   0.565   8.892 -0.0236  1.3411 -0.6136
   73SLPC  H17S 6461   2.512   0.637   9.046 -0.1891 -0.9206  1.3570
   73SLPC  C218 6462   2.300   0.669   9.007  0.1451 -0.8620 -0.7517
   73SLPC  H18R 6463   2.300   0.747   8.927  1.5620 -0.0280  0.0134
   73SLPC  H18S 6464   2.289   0.716   9.107 -1.4510  2.2625 -2.2599
   73SLPC  H18T 6465   2.213   0.603   8.988  0.8167 -1.2167 -2.9814
   73SLPC   C33 6466   2.838   0.471   9.869 -0.0727  0.3260  0.0625
   73SLPC   H3X 6467   2.832   0.360   9.859 -2.4561  0.3259  0.8543
   73SLPC   H3Y 6468   2.907   0.498   9.787 -2.1404  2.8129 -0.9751
   73SLPC   C34 6469   2.714   0.545   9.847  0.9004  0.4251  0.4338
   73SLPC   H4X 6470   2.731   0.655   9.856  0.5305  0.3633  2.1573
   73SLPC   H4Y 6471   2.635   0.506   9.915  0.9997 -1.3278 -0.4085
   73SLPC   C35 6472   2.643   0.508   9.721  0.5684  0.4403  0.4033
   73SLPC   H5X 6473   2.533   0.519   9.728  0.0777 -1.8280 -2.2344
   73SLPC   H5Y 6474   2.656   0.399   9.709  0.9670  0.5099  0.1629
   73SLPC   C36 6475   2.693   0.577   9.591 -0.7193 -0.1916 -0.6656
   73SLPC   H6X 6476   2.754   0.499   9.541 -0.0588 -0.0005 -0.1799
   73SLPC   H6Y 6477   2.757   0.661   9.625 -0.2924 -0.9989  0.6054
   73SLPC   C37 6478   2.582   0.650   9.511 -0.2840 -0.4671 -0.0823
   73SLPC   H7X 6479   2.534   0.727   9.576  1.9069  0.7259  0.2032
   73SLPC   H7Y 6480   2.509   0.574   9.475 -0.0483  0.7676 -3.4521
   73SLPC   C38 6481   2.643   0.722   9.390 -0.2988 -0.5112 -0.0706
   73SLPC   H8X 6482   2.696   0.654   9.320  1.0257 -0.8395  1.2056
   73SLPC   H8Y 6483   2.719   0.794   9.429 -3.1520  2.0557  1.0958
   73SLPC   C39 6484   2.543   0.808   9.307 -0.0194 -0.0436  0.1548
   73SLPC   H9X 6485   2.475   0.857   9.380  0.1037 -2.1918  1.8262
   73SLPC   H9Y 6486   2.476   0.736   9.254  0.8300 -0.8438  0.1369
   73SLPC  C310 6487   2.605   0.910   9.210 -0.1707 -0.4047  0.4151
   73SLPC  H10X 6488   2.697   0.866   9.168  0.4607  1.3804 -0.1625
   73SLPC  H10Y 6489   2.632   1.004   9.262  0.7128  0.5116 -1.5910
   73SLPC  C311 6490   2.517   0.953   9.091  0.2234 -0.4452  0.4004
   73SLPC  H11X 6491   2.412   0.980   9.116 -1.9871 -5.4610 -2.1961
   73SLPC  H11Y 6492   2.499   0.867   9.023  1.1815  0.1450 -0.6332
   73SLPC  C312 6493   2.584   1.053   8.989 -0.2113 -0.3392  0.1422
   73SLPC  H12X 6494   2.613   1.145   9.044 -1.4474  0.9931 -1.3714
   73SLPC  H12Y 6495   2.532   1.075   8.893 -0.6482  0.6842  0.5988
   73SLPC  C313 6496   2.718   0.989   8.935 -0.1685  0.2111  0.4763
   73SLPC  H13X 6497   2.681   0.889   8.904  0.7854  0.3006 -1.0681
   73SLPC  H13Y 6498   2.794   0.967   9.014  1.0940  0.4295 -0.6431
   73SLPC  C314 6499   2.790   1.070   8.824 -0.0624 -0.0047  0.0559
   73SLPC  H14X 6500   2.702   1.097   8.762  1.8182  0.7937 -2.4209
   73SLPC  H14Y 6501   2.857   1.002   8.766 -1.0333 -0.2254 -0.8541
   73SLPC  C315 6502   2.855   1.205   8.868  0.2236  0.7484  0.6503
   73SLPC  H15X 6503   2.943   1.200   8.935  0.0584 -0.2132  0.8016
   73SLPC  H15Y 6504   2.783   1.267   8.926  0.3096  1.1005  0.3854
   73SLPC  C316 6505   2.876   1.296   8.751 -1.1742  0.6958 -0.0384
   73SLPC  H16X 6506   2.783   1.300   8.690 -0.9402 -1.9372 -0.6942
   73SLPC  H16Y 6507   2.956   1.261   8.682 -0.7008  0.4490  0.6237
   73SLPC  C317 6508   2.893   1.436   8.797 -0.5142  0.0771 -0.4471
   73SLPC  H17X 6509   2.976   1.431   8.870 -0.4131  1.6927 -0.4114
   73SLPC  H17Y 6510   2.800   1.460   8.852  0.3910  0.7463  0.8382
   73SLPC  C318 6511   2.909   1.534   8.682 -0.7092 -0.1237 -0.0272
   73SLPC  H18X 6512   2.812   1.543   8.629 -0.4057 -1.0750 -0.7808
   73SLPC  H18Y 6513   2.981   1.488   8.610 -1.0414 -2.6602  1.1658
   73SLPC  H18Z 6514   2.951   1.631   8.716  0.5795 -0.3723 -0.8250
   74SLPC     N 6515   2.516   2.492  10.318  0.3151 -0.2944  0.5452
   74SLPC   C13 6516   2.593   2.513  10.197 -0.5923 -0.2963  0.1557
   74SLPC  H13A 6517   2.699   2.499  10.208 -0.4714 -1.4857 -1.9739
   74SLPC  H13B 6518   2.559   2.441  10.124  0.9996 -0.0837 -0.8366
   74SLPC  H13C 6519   2.581   2.615  10.163  1.0951 -0.2315 -0.3218
   74SLPC   C14 6520   2.568   2.360  10.376 -0.4646 -0.3422  0.1522
   74SLPC  H14A 6521   2.539   2.278  10.311 -0.8773  0.0138 -0.1237
   74SLPC  H14B 6522   2.675   2.351  10.371 -0.6745 -4.0245 -0.8539
   74SLPC  H14C 6523   2.535   2.332  10.475 -2.6796 -2.0974 -0.9659
   74SLPC   C15 6524   2.371   2.466  10.281 -0.5225 -0.3684 -0.5160
   74SLPC  H15A 6525   2.334   2.552  10.227  0.6543  1.0661  0.8652
   74SLPC  H15B 6526   2.365   2.379  10.218 -1.4623  1.2060 -2.7271
   74SLPC  H15C 6527   2.316   2.451  10.372  1.3892  0.5617  0.8599
   74SLPC   C12 6528   2.531   2.605  10.422  0.5202 -0.4495 -0.4861
   74SLPC  H12A 6529   2.484   2.577  10.515 -0.4571  0.2516 -0.7589
   74SLPC  H12B 6530   2.470   2.690  10.397  1.6655  1.3118  2.2798
   74SLPC   C11 6531   2.674   2.661  10.443 -0.5347 -0.3219 -1.0989
   74SLPC  H11A 6532   2.663   2.735  10.525 -0.4180 -2.2745  0.7633
   74SLPC  H11B 6533   2.713   2.725  10.361 -0.3653  2.1858  0.7927
   74SLPC     P 6534   2.915   2.535  10.420 -0.0715  0.5888 -0.1759
   74SLPC   O13 6535   3.002   2.637  10.492  0.5325  0.5291  0.0974
   74SLPC   O14 6536   2.948   2.387  10.429 -0.1753 -0.2262  0.3611
   74SLPC   O12 6537   2.775   2.562  10.487  0.5490  0.6783  0.2491
   74SLPC   O11 6538   2.900   2.571  10.263  0.8284  0.5848  0.1353
   74SLPC    C1 6539   2.964   2.678  10.197 -0.3224 -0.4666  0.9212
   74SLPC    HA 6540   2.958   2.773  10.253 -2.5188 -1.2911  2.2219
   74SLPC    HB 6541   3.069   2.645  10.179 -0.0719  0.3635  0.8154
   74SLPC    C2 6542   2.916   2.704  10.049 -0.3403 -0.5787  0.2404
   74SLPC    HS 6543   2.814   2.746  10.065  0.9097  3.4137 -1.1972
   74SLPC   O21 6544   2.928   2.582   9.967  0.2475 -0.3427 -0.3778
   74SLPC   C21 6545   2.815   2.536   9.914  0.1250 -0.7323  0.1515
   74SLPC   O22 6546   2.706   2.588   9.927 -0.4947  0.0900  0.0314
   74SLPC   C22 6547   2.853   2.405   9.838 -0.4377 -1.0223  0.2323
   74SLPC   H2R 6548   2.944   2.420   9.776 -0.6189 -0.3348  0.1348
   74SLPC   H2S 6549   2.883   2.335   9.920 -0.3797 -0.8771  0.3347
   74SLPC    C3 6550   3.001   2.818   9.987  0.4828 -0.9198  0.2898
   74SLPC    HX 6551   3.111   2.802   9.993  0.6942  0.5518  0.7677
   74SLPC    HY 6552   2.978   2.904  10.053  0.2263 -0.8500  0.1104
   74SLPC   O31 6553   2.957   2.847   9.858 -0.3338 -0.2693 -0.0711
   74SLPC   C31 6554   3.042   2.890   9.769  0.0128  0.3407 -0.3373
   74SLPC   O32 6555   3.166   2.884   9.781 -0.3590  0.1953  0.3352
   74SLPC   C32 6556   2.972   2.907   9.635 -0.0263 -0.1538 -0.0670
   74SLPC   H2X 6557   2.975   3.017   9.617  0.7724  0.2670  2.2665
   74SLPC   H2Y 6558   2.867   2.880   9.661 -0.1894  1.3494  1.0094
   74SLPC   C23 6559   2.742   2.350   9.744 -0.2868  0.7979 -0.5241
   74SLPC   H3R 6560   2.648   2.379   9.796  0.1983 -2.8575  2.8835
   74SLPC   H3S 6561   2.749   2.239   9.743  2.2003  0.9174 -0.9361
   74SLPC   C24 6562   2.749   2.407   9.603 -0.4015 -0.1686  0.0061
   74SLPC   H4R 6563   2.856   2.418   9.576 -0.6927  1.4797 -0.5939
   74SLPC   H4S 6564   2.705   2.509   9.601  1.6188  0.7330 -1.4193
   74SLPC   C25 6565   2.682   2.332   9.487  0.5954  0.0663 -0.6358
   74SLPC   H5R 6566   2.571   2.334   9.500  0.2623  0.1728 -2.9727
   74SLPC   H5S 6567   2.709   2.226   9.502 -1.4202 -0.2054  1.7420
   74SLPC   C26 6568   2.699   2.394   9.350  0.3509 -0.4799 -0.0219
   74SLPC   H6R 6569   2.661   2.498   9.359 -0.3756 -0.8010  0.6878
   74SLPC   H6S 6570   2.626   2.334   9.291  0.2212 -0.9529  0.6169
   74SLPC   C27 6571   2.842   2.397   9.292  0.3686  0.0954  0.5615
   74SLPC   H7R 6572   2.899   2.302   9.304 -0.5597 -0.4053  1.1657
   74SLPC   H7S 6573   2.898   2.479   9.341  0.4430  0.5308 -0.2398
   74SLPC   C28 6574   2.841   2.427   9.140 -0.6184  0.9944 -0.2564
   74SLPC   H8R 6575   2.948   2.448   9.118 -0.1193 -0.9141  0.1574
   74SLPC   H8S 6576   2.781   2.520   9.130 -1.4965  0.9379  3.2269
   74SLPC   C29 6577   2.802   2.319   9.045 -0.0892  0.4450  0.0454
   74SLPC   H9R 6578   2.723   2.249   9.077  0.6799 -0.5387 -0.1447
   74SLPC  C210 6579   2.842   2.303   8.921 -0.1346  0.0880  0.0306
   74SLPC  H10R 6580   2.819   2.213   8.861 -2.0643 -0.4223  1.4430
   74SLPC  C211 6581   2.939   2.391   8.853  0.6685 -0.1724 -0.0881
   74SLPC  H11R 6582   2.999   2.446   8.929  0.3503 -0.7995  0.6425
   74SLPC  H11S 6583   2.870   2.468   8.814 -1.2510 -1.6615  0.1590
   74SLPC  C212 6584   3.019   2.324   8.750 -0.0490  0.9148  0.4621
   74SLPC  H12R 6585   3.128   2.323   8.768 -0.2501  0.8028  1.7755
   74SLPC  C213 6586   2.975   2.283   8.630 -0.5921  0.3729 -0.2613
   74SLPC  H13R 6587   3.046   2.228   8.566 -1.7427 -0.4953 -0.8462
   74SLPC  C214 6588   2.834   2.298   8.583  0.1696 -0.0029  0.3690
   74SLPC  H14R 6589   2.846   2.362   8.492  1.4796  2.5449  2.1977
   74SLPC  H14S 6590   2.770   2.346   8.661 -0.5225  0.5487 -0.5097
   74SLPC  C215 6591   2.754   2.177   8.546 -0.0671 -0.0483 -0.2292
   74SLPC  H15R 6592   2.644   2.195   8.552 -0.2683 -0.3951 -2.1336
   74SLPC  H15S 6593   2.789   2.095   8.613  2.2996  0.8825 -0.2355
   74SLPC  C216 6594   2.770   2.124   8.402  0.4479 -0.3977 -0.1991
   74SLPC  H16R 6595   2.881   2.119   8.392  0.4861 -1.7440  0.6769
   74SLPC  H16S 6596   2.746   2.211   8.337  2.7893 -1.1404 -2.2382
   74SLPC  C217 6597   2.697   1.993   8.394 -0.1917 -0.3543  0.1920
   74SLPC  H17R 6598   2.591   2.006   8.366 -0.6536 -1.0654  1.5194
   74SLPC  H17S 6599   2.705   1.939   8.491  1.6257 -1.0375 -0.2899
   74SLPC  C218 6600   2.759   1.897   8.287  0.0064 -0.5068 -0.4934
   74SLPC  H18R 6601   2.732   1.791   8.304 -0.0365 -0.7477 -1.9486
   74SLPC  H18S 6602   2.870   1.902   8.288 -0.0226  0.7933 -1.4354
   74SLPC  H18T 6603   2.712   1.932   8.192  0.6780  0.5578 -0.4479
   74SLPC   C33 6604   3.025   2.817   9.515 -0.0725  0.0172 -0.7578
   74SLPC   H3X 6605   3.053   2.717   9.554  2.4312  0.5171 -1.0783
   74SLPC   H3Y 6606   3.112   2.856   9.457  1.2951  0.7275  1.6475
   74SLPC   C34 6607   2.923   2.774   9.417  0.2488  0.6170  0.7200
   74SLPC   H4X 6608   2.851   2.706   9.467  0.0873  1.4461  1.6552
   74SLPC   H4Y 6609   2.957   2.712   9.332 -3.7551 -0.0468 -0.6058
   74SLPC   C35 6610   2.836   2.887   9.353  0.2270 -0.1508 -0.1972
   74SLPC   H5X 6611   2.890   2.980   9.328 -0.5059 -0.1475 -1.9295
   74SLPC   H5Y 6612   2.770   2.915   9.439  0.9768  0.4713  0.1874
   74SLPC   C36 6613   2.758   2.852   9.231  0.0633  0.3508 -0.2547
   74SLPC   H6X 6614   2.685   2.934   9.216 -4.1539 -2.6877  1.4480
   74SLPC   H6Y 6615   2.705   2.757   9.257  0.9846 -0.2599 -0.5644
   74SLPC   C37 6616   2.850   2.847   9.102 -0.2462 -0.3191 -0.6005
   74SLPC   H7X 6617   2.920   2.762   9.111 -0.3529 -0.2151  2.1948
   74SLPC   H7Y 6618   2.921   2.933   9.100 -0.1969 -0.3564 -0.4371
   74SLPC   C38 6619   2.762   2.859   8.972 -0.0993  0.0384 -0.5161
   74SLPC   H8X 6620   2.716   2.957   8.951 -1.6601 -0.4708  0.4371
   74SLPC   H8Y 6621   2.677   2.789   8.986  0.2314 -0.3290 -0.2858
   74SLPC   C39 6622   2.838   2.816   8.848  0.1403 -0.3836 -0.9068
   74SLPC   H9X 6623   2.876   2.712   8.862 -1.5805 -0.8758  0.6388
   74SLPC   H9Y 6624   2.928   2.880   8.842 -0.1165  0.0702 -0.0177
   74SLPC  C310 6625   2.756   2.820   8.718 -0.2917  0.0142 -0.5544
   74SLPC  H10X 6626   2.689   2.909   8.724 -0.1779  0.0885 -0.3670
   74SLPC  H10Y 6627   2.687   2.733   8.713  1.6654 -1.6746  0.2845
   74SLPC  C311 6628   2.834   2.826   8.589 -0.0045 -0.4282 -0.6025
   74SLPC  H11X 6629   2.915   2.899   8.606 -0.1962 -0.4383  0.4091
   74SLPC  H11Y 6630   2.779   2.872   8.504 -2.5723  1.8055  2.0324
   74SLPC  C312 6631   2.911   2.703   8.559  0.8512 -0.0853 -0.0938
   74SLPC  H12X 6632   2.841   2.618   8.541  0.1259  0.7561 -1.4353
   74SLPC  H12Y 6633   2.964   2.675   8.653  0.7245 -1.5605 -0.4401
   74SLPC  C313 6634   2.999   2.721   8.436 -0.2372  0.4066  0.1218
   74SLPC  H13X 6635   3.028   2.826   8.413 -1.1745  0.1282 -2.6875
   74SLPC  H13Y 6636   2.942   2.695   8.344 -0.9195  0.8472  0.4086
   74SLPC  C314 6637   3.119   2.618   8.435 -0.7098  0.0536  0.3750
   74SLPC  H14X 6638   3.102   2.546   8.352  0.0009  1.9203 -1.4727
   74SLPC  H14Y 6639   3.113   2.550   8.523  1.0472 -2.0846 -1.0583
   74SLPC  C315 6640   3.255   2.688   8.445  0.1217  0.0875  0.6552
   74SLPC  H15X 6641   3.278   2.741   8.351 -0.4536  0.0041  0.4656
   74SLPC  H15Y 6642   3.330   2.607   8.462 -1.5919 -1.8428 -0.5257
   74SLPC  C316 6643   3.285   2.779   8.561  0.1925 -0.0480  0.2147
   74SLPC  H16X 6644   3.291   2.731   8.662  0.4673 -0.3314  0.0667
   74SLPC  H16Y 6645   3.208   2.858   8.573  2.3306  2.1359  0.1084
   74SLPC  C317 6646   3.416   2.858   8.526 -0.0944  0.4657  0.8994
   74SLPC  H17X 6647   3.404   2.962   8.564 -1.1038  1.1843 -1.2362
   74SLPC  H17Y 6648   3.437   2.860   8.417 -1.0478 -0.5437  0.6723
   74SLPC  C318 6649   3.540   2.781   8.582 -0.1480 -0.0409  0.4034
   74SLPC  H18X 6650   3.632   2.839   8.560  0.2854 -0.0106  2.1206
   74SLPC  H18Y 6651   3.544   2.680   8.535  0.5037  0.1949 -0.0725
   74SLPC  H18Z 6652   3.538   2.777   8.693 -0.1573  0.1461  0.4114
   75SLPC     N 6653   6.515   6.166   6.572  0.3925  0.2316 -0.2581
   75SLPC   C13 6654   6.573   6.145   6.711 -0.0839 -0.2688  0.0878
   75SLPC  H13A 6655   6.668   6.094   6.705  0.8593  1.3971  0.2555
   75SLPC  H13B 6656   6.593   6.247   6.738 -2.4508  0.4355 -0.5309
   75SLPC  H13C 6657   6.499   6.114   6.784 -0.3901  1.0614  0.3733
   75SLPC   C14 6658   6.482   6.033   6.513 -0.0093  0.1189  0.1551
   75SLPC  H14A 6659   6.485   6.044   6.406 -2.6647  0.4433  0.0494
   75SLPC  H14B 6660   6.556   5.958   6.539  2.0234  2.0800  0.4200
   75SLPC  H14C 6661   6.379   6.010   6.534 -0.1288  1.0169  0.6242
   75SLPC   C15 6662   6.624   6.222   6.491  0.1033  0.9968  0.5247
   75SLPC  H15A 6663   6.588   6.239   6.391  0.9713 -0.8272 -0.1547
   75SLPC  H15B 6664   6.659   6.317   6.529  0.4637  1.6648 -1.3811
   75SLPC  H15C 6665   6.709   6.156   6.481  1.0701  2.3855 -0.9343
   75SLPC   C12 6666   6.390   6.256   6.566 -0.0633  0.5388 -0.3245
   75SLPC  H12A 6667   6.352   6.261   6.465 -0.0135 -0.9734 -0.4344
   75SLPC  H12B 6668   6.429   6.353   6.592  1.1829 -0.2659  0.9299
   75SLPC   C11 6669   6.268   6.230   6.659  0.3631 -0.1552  0.0285
   75SLPC  H11A 6670   6.191   6.309   6.647  3.2988  2.7153 -1.3328
   75SLPC  H11B 6671   6.303   6.229   6.764  1.4447 -0.0430 -0.3188
   75SLPC     P 6672   6.071   6.068   6.557 -0.3052  0.2479  0.0447
   75SLPC   O13 6673   6.037   6.163   6.444 -0.2875  0.2032 -0.2825
   75SLPC   O14 6674   6.066   5.925   6.521  0.1883  0.5686 -0.0196
   75SLPC   O12 6675   6.213   6.099   6.621  0.1664  0.9081  0.4433
   75SLPC   O11 6676   5.961   6.090   6.672 -0.0058 -0.6189 -0.2494
   75SLPC    C1 6677   5.887   5.988   6.730  0.9956  0.7051  0.2659
   75SLPC    HA 6678   5.781   6.021   6.731 -0.3318 -2.9183 -1.4263
   75SLPC    HB 6679   5.885   5.889   6.679 -0.1181  0.7940  0.1079
   75SLPC    C2 6680   5.936   5.957   6.873 -0.6110  0.3874  0.4201
   75SLPC    HS 6681   6.016   5.881   6.877 -1.6353 -0.8262 -1.0818
   75SLPC   O21 6682   5.833   5.912   6.961 -0.0410  0.9201 -0.0960
   75SLPC   C21 6683   5.803   5.778   6.956  0.2140  0.0659 -0.0754
   75SLPC   O22 6684   5.863   5.695   6.888  0.5191  0.7533 -0.6638
   75SLPC   C22 6685   5.681   5.754   7.050 -0.7788  0.1055 -0.0738
   75SLPC   H2R 6686   5.660   5.855   7.091 -0.2825  0.3650 -0.4517
   75SLPC   H2S 6687   5.589   5.705   7.012 -2.3082 -0.6283  4.0386
   75SLPC    C3 6688   5.993   6.081   6.944 -0.0519 -0.5232  0.1655
   75SLPC    HX 6689   5.919   6.164   6.947 -0.4051 -0.8722  1.8620
   75SLPC    HY 6690   6.069   6.130   6.879 -1.2000 -1.0550 -1.6473
   75SLPC   O31 6691   6.028   6.050   7.081  0.6789  0.2712 -0.4950
   75SLPC   C31 6692   6.082   6.153   7.147  0.1833  0.4999  0.9431
   75SLPC   O32 6693   6.126   6.253   7.092 -0.2222 -0.4497 -0.1520
   75SLPC   C32 6694   6.058   6.133   7.293  0.6066 -0.3033  0.3686
   75SLPC   H2X 6695   6.103   6.038   7.327  2.8541 -0.1377 -1.8511
   75SLPC   H2Y 6696   5.951   6.113   7.313  0.7884 -1.0332  0.6535
   75SLPC   C23 6697   5.740   5.663   7.168  0.2622  1.4289 -0.0193
   75SLPC   H3R 6698   5.772   5.567   7.123  1.3966  1.5543  0.5031
   75SLPC   H3S 6699   5.667   5.636   7.247  2.7309  0.1869  1.9782
   75SLPC   C24 6700   5.860   5.731   7.241  0.2066 -0.2098  0.8088
   75SLPC   H4R 6701   5.846   5.840   7.252  0.2710 -0.2570  1.4134
   75SLPC   H4S 6702   5.946   5.713   7.173  0.1513 -0.2920  0.7609
   75SLPC   C25 6703   5.897   5.677   7.383 -0.4055  0.2386  0.0073
   75SLPC   H5R 6704   5.819   5.714   7.453  0.0200 -0.3953  0.8396
   75SLPC   H5S 6705   5.994   5.716   7.419 -0.9037  1.8054 -0.2744
   75SLPC   C26 6706   5.908   5.524   7.388  0.4100 -0.1751 -0.5211
   75SLPC   H6R 6707   6.003   5.483   7.347  1.9596 -1.5084  3.8384
   75SLPC   H6S 6708   5.823   5.473   7.338 -0.7471 -1.6240  2.6547
   75SLPC   C27 6709   5.901   5.483   7.538  0.0021  0.1573  0.0118
   75SLPC   H7R 6710   5.813   5.533   7.584  0.1472  1.1636 -0.7699
   75SLPC   H7S 6711   5.991   5.503   7.599 -1.5183  0.5369  2.2279
   75SLPC   C28 6712   5.864   5.335   7.563  0.1234 -0.1079  0.9194
   75SLPC   H8R 6713   5.767   5.322   7.510  1.5608  1.6623 -2.4321
   75SLPC   H8S 6714   5.836   5.313   7.669 -1.8568 -0.1376  0.4422
   75SLPC   C29 6715   5.967   5.248   7.504 -0.0107 -0.4371 -0.5194
   75SLPC   H9R 6716   6.003   5.273   7.404  0.6644  0.1980 -0.1236
   75SLPC  C210 6717   6.024   5.151   7.566 -0.4989 -0.3544 -1.5248
   75SLPC  H10R 6718   6.109   5.094   7.526  1.2724  1.0908  0.0003
   75SLPC  C211 6719   5.996   5.103   7.708  0.0289  0.1356 -0.5318
   75SLPC  H11R 6720   6.004   4.992   7.705 -1.3898 -0.0773  1.5389
   75SLPC  H11S 6721   5.890   5.128   7.731  0.0929 -0.1302  0.0753
   75SLPC  C212 6722   6.091   5.143   7.817 -0.7842 -0.2355 -0.0065
   75SLPC  H12R 6723   6.179   5.200   7.784  0.3500 -2.2543 -0.6519
   75SLPC  C213 6724   6.074   5.106   7.948  0.4078  0.1309 -0.1232
   75SLPC  H13R 6725   6.136   5.134   8.034 -1.2958 -1.8383  1.8750
   75SLPC  C214 6726   5.955   5.018   7.986 -0.0709  0.0387 -0.5750
   75SLPC  H14R 6727   5.874   5.049   7.917  0.3998  1.2857 -0.6004
   75SLPC  H14S 6728   5.928   5.057   8.086  0.6019 -0.8526 -0.0305
   75SLPC  C215 6729   5.993   4.869   7.995 -0.1537  0.3917 -0.7757
   75SLPC  H15R 6730   5.923   4.837   8.075  1.0893  1.6681  0.9168
   75SLPC  H15S 6731   6.096   4.847   8.032  1.2099  2.0226 -3.3545
   75SLPC  C216 6732   5.977   4.799   7.863  0.7605  1.0861  0.2840
   75SLPC  H16R 6733   6.049   4.822   7.782  0.1534  2.0830  0.0078
   75SLPC  H16S 6734   5.881   4.840   7.823  0.4557  0.8848  0.8002
   75SLPC  C217 6735   5.967   4.651   7.879  0.5152 -0.2010  0.3531
   75SLPC  H17R 6736   5.885   4.626   7.950  1.0792 -1.5579  0.5581
   75SLPC  H17S 6737   6.059   4.615   7.928  0.5417  0.0909  0.5224
   75SLPC  C218 6738   5.937   4.575   7.750  0.1214  0.4552  0.5953
   75SLPC  H18R 6739   5.843   4.620   7.712  1.3484 -0.2978 -3.9314
   75SLPC  H18S 6740   5.908   4.468   7.762  2.5907 -0.4230 -0.4343
   75SLPC  H18T 6741   6.025   4.591   7.684 -1.3928  4.3951 -0.7493
   75SLPC   C33 6742   6.125   6.243   7.380 -0.7798  0.6244  0.2240
   75SLPC   H3X 6743   6.232   6.245   7.352 -0.4707  1.0291  1.3914
   75SLPC   H3Y 6744   6.088   6.344   7.352  0.5824  1.5208  1.5587
   75SLPC   C34 6745   6.096   6.211   7.530 -0.5683 -0.7751 -0.7726
   75SLPC   H4X 6746   6.110   6.103   7.552 -1.4286 -0.6959  0.2200
   75SLPC   H4Y 6747   5.988   6.216   7.553 -0.2159 -1.3387  1.1801
   75SLPC   C35 6748   6.189   6.279   7.626  0.1254  0.0090 -0.6091
   75SLPC   H5X 6749   6.160   6.386   7.631  1.3813  0.3184  2.2903
   75SLPC   H5Y 6750   6.296   6.269   7.597 -0.4816 -1.5657 -2.5624
   75SLPC   C36 6751   6.172   6.229   7.777 -0.5792 -0.8988  0.2268
   75SLPC   H6X 6752   6.268   6.255   7.827 -1.1216 -0.7342  1.1893
   75SLPC   H6Y 6753   6.169   6.118   7.781  1.2144 -0.9513  0.9694
   75SLPC   C37 6754   6.066   6.286   7.857 -0.6632  0.6448 -0.1538
   75SLPC   H7X 6755   5.971   6.267   7.803 -1.4679  1.7857  0.8196
   75SLPC   H7Y 6756   6.077   6.396   7.861 -0.4792  0.6541 -0.8240
   75SLPC   C38 6757   6.075   6.219   7.997  0.1449 -0.6386 -0.2166
   75SLPC   H8X 6758   6.182   6.228   8.026 -0.4139  0.6322  1.6382
   75SLPC   H8Y 6759   6.041   6.114   7.987 -2.2396 -0.0692  1.1107
   75SLPC   C39 6760   5.989   6.276   8.113  0.0529 -0.5290 -0.4530
   75SLPC   H9X 6761   6.010   6.211   8.200 -0.9672  1.4083  1.3258
   75SLPC   H9Y 6762   5.884   6.246   8.093 -0.1391  0.2119 -0.5980
   75SLPC  C310 6763   6.010   6.425   8.137 -0.4830  0.4119 -0.2309
   75SLPC  H10X 6764   5.954   6.465   8.049  1.1893  0.2121 -1.4231
   75SLPC  H10Y 6765   6.120   6.434   8.138 -0.3786 -0.8218  0.6278
   75SLPC  C311 6766   5.939   6.490   8.261 -0.6273  0.4899  0.5187
   75SLPC  H11X 6767   5.830   6.473   8.250 -0.4825 -0.8559  1.0086
   75SLPC  H11Y 6768   5.957   6.600   8.253  0.1177  0.2606 -1.6399
   75SLPC  C312 6769   5.980   6.430   8.389 -0.4527 -1.0455 -0.7031
   75SLPC  H12X 6770   6.091   6.434   8.385 -0.2254 -1.6853  2.5685
   75SLPC  H12Y 6771   5.965   6.321   8.401  0.5514 -1.0000  1.2606
   75SLPC  C313 6772   5.937   6.510   8.508  0.2263  0.0527 -0.3420
   75SLPC  H13X 6773   5.827   6.507   8.519 -0.1196 -4.4490 -2.6290
   75SLPC  H13Y 6774   5.978   6.611   8.489  1.3736 -0.2700  0.3067
   75SLPC  C314 6775   6.005   6.457   8.637  0.3407 -0.1832 -0.4945
   75SLPC  H14X 6776   6.115   6.461   8.622  0.3462 -0.3629 -0.5094
   75SLPC  H14Y 6777   5.977   6.352   8.659 -0.3374  0.2121  0.5939
   75SLPC  C315 6778   5.969   6.532   8.765 -0.8576 -0.3750 -0.3400
   75SLPC  H15X 6779   5.862   6.561   8.756 -0.4849  1.0727 -0.3081
   75SLPC  H15Y 6780   6.018   6.631   8.767 -0.6055 -0.4705 -1.2503
   75SLPC  C316 6781   6.000   6.455   8.899  0.2177  0.0442  0.2331
   75SLPC  H16X 6782   6.088   6.389   8.881 -0.5100 -0.3185 -2.2575
   75SLPC  H16Y 6783   5.915   6.387   8.921  2.5140 -1.7135  5.3310
   75SLPC  C317 6784   6.022   6.527   9.021  0.1858  0.3453  0.3921
   75SLPC  H17X 6785   5.994   6.457   9.103 -0.4051 -0.5746 -0.5679
   75SLPC  H17Y 6786   5.957   6.616   9.028  2.0794  1.9111 -1.0373
   75SLPC  C318 6787   6.166   6.560   9.044 -0.2700 -0.1238  0.2626
   75SLPC  H18X 6788   6.198   6.637   8.970  1.6251 -1.7024 -0.6654
   75SLPC  H18Y 6789   6.240   6.478   9.034  0.2131  0.5238 -2.0953
   75SLPC  H18Z 6790   6.180   6.608   9.143  0.9625 -0.4977  0.2945
   76SLPC     N 6791   1.021   5.084   6.293  0.5292 -0.0613  0.5495
   76SLPC   C13 6792   1.021   5.110   6.445  0.6698 -0.3575 -0.5709
   76SLPC  H13A 6793   1.102   5.175   6.475  0.0797  0.0134  0.2544
   76SLPC  H13B 6794   0.943   5.180   6.472  2.8305  1.9840  0.0659
   76SLPC  H13C 6795   1.016   5.015   6.496  0.5493  0.2659  0.6181
   76SLPC   C14 6796   1.001   5.221   6.236 -0.2249  0.1072 -0.1932
   76SLPC  H14A 6797   0.898   5.252   6.252 -1.4979 -3.9127  0.4988
   76SLPC  H14B 6798   1.073   5.296   6.264  1.0550 -0.9538 -0.5575
   76SLPC  H14C 6799   1.005   5.218   6.128  1.2124  4.9600 -0.4886
   76SLPC   C15 6800   0.902   4.995   6.259 -0.2014 -0.4356 -0.7951
   76SLPC  H15A 6801   0.805   5.036   6.285  1.4441  1.9710  2.2293
   76SLPC  H15B 6802   0.886   5.000   6.152 -0.7206  0.5734 -0.6839
   76SLPC  H15C 6803   0.911   4.893   6.293 -0.8065  0.1633  1.3489
   76SLPC   C12 6804   1.142   5.010   6.245 -0.3679  0.4027  0.0152
   76SLPC  H12A 6805   1.229   5.071   6.262  1.1910 -1.5055 -0.7060
   76SLPC  H12B 6806   1.144   5.008   6.137 -1.5427 -1.0707 -0.0137
   76SLPC   C11 6807   1.166   4.869   6.309 -0.2948  0.2397  1.1079
   76SLPC  H11A 6808   1.134   4.880   6.414 -1.3348  1.4934  0.6909
   76SLPC  H11B 6809   1.274   4.840   6.309  0.3381  2.0075 -2.2514
   76SLPC     P 6810   1.144   4.661   6.151  0.2054  0.3671  0.1952
   76SLPC   O13 6811   1.036   4.589   6.082 -0.1607 -0.1155 -0.4526
   76SLPC   O14 6812   1.238   4.726   6.061  0.0152  0.3717 -0.0452
   76SLPC   O12 6813   1.087   4.764   6.261 -0.0277  0.5968  0.0737
   76SLPC   O11 6814   1.226   4.557   6.226 -0.2826 -0.2188  0.0177
   76SLPC    C1 6815   1.175   4.505   6.346  0.1597  0.4316 -0.4614
   76SLPC    HA 6816   1.158   4.585   6.420  0.6393 -1.2033  1.5016
   76SLPC    HB 6817   1.075   4.457   6.339 -0.2586  0.9147  1.5138
   76SLPC    C2 6818   1.294   4.419   6.410  0.4318  1.1931  0.0393
   76SLPC    HS 6819   1.317   4.326   6.354 -0.1138  0.5758  0.8204
   76SLPC   O21 6820   1.243   4.394   6.540 -0.4775  0.3407 -0.0567
   76SLPC   C21 6821   1.178   4.287   6.558  0.2387 -0.5822 -0.1461
   76SLPC   O22 6822   1.155   4.196   6.478 -0.4655  0.0767 -0.2450
   76SLPC   C22 6823   1.086   4.307   6.674  0.3768  0.7108 -0.8104
   76SLPC   H2R 6824   1.047   4.411   6.668  1.0983  1.1284  1.0055
   76SLPC   H2S 6825   1.001   4.235   6.670 -0.8503  2.0067  0.5159
   76SLPC    C3 6826   1.428   4.497   6.411  1.1348 -1.0757  0.3029
   76SLPC    HX 6827   1.410   4.606   6.414 -1.9427 -1.5137  1.1124
   76SLPC    HY 6828   1.479   4.490   6.312  1.1799  2.7561 -0.0870
   76SLPC   O31 6829   1.512   4.456   6.520 -0.7881  0.1019 -0.2956
   76SLPC   C31 6830   1.578   4.343   6.502  0.1321 -0.6179 -0.3803
   76SLPC   O32 6831   1.578   4.269   6.401  0.2621 -0.0555 -0.3500
   76SLPC   C32 6832   1.666   4.325   6.622 -0.4866 -0.5431 -0.1455
   76SLPC   H2X 6833   1.599   4.314   6.709  0.7440  0.5692  0.9962
   76SLPC   H2Y 6834   1.738   4.410   6.627  1.9120 -2.5350  1.2759
   76SLPC   C23 6835   1.170   4.296   6.804  0.0361 -0.0010  0.2864
   76SLPC   H3R 6836   1.107   4.339   6.884  0.4049 -2.2808  1.8936
   76SLPC   H3S 6837   1.260   4.360   6.792  1.6299 -1.7701  2.0375
   76SLPC   C24 6838   1.199   4.155   6.847  0.1999 -0.2278 -0.3755
   76SLPC   H4R 6839   1.272   4.105   6.779  1.7850  1.0035  0.3702
   76SLPC   H4S 6840   1.103   4.098   6.843 -2.0803  3.3408 -1.4937
   76SLPC   C25 6841   1.279   4.145   6.978 -0.2788 -0.3221  0.3032
   76SLPC   H5R 6842   1.340   4.237   6.993 -1.9839  1.0297 -0.6394
   76SLPC   H5S 6843   1.351   4.061   6.968 -0.4310 -0.2155 -2.9187
   76SLPC   C26 6844   1.192   4.124   7.106  0.1267 -0.6314  0.3532
   76SLPC   H6R 6845   1.204   4.023   7.148  1.2400 -0.3153  0.8361
   76SLPC   H6S 6846   1.087   4.131   7.069 -0.0096 -0.4244  0.7770
   76SLPC   C27 6847   1.213   4.231   7.219 -0.7778  0.5460  0.4705
   76SLPC   H7R 6848   1.194   4.334   7.182  1.5538  1.2497  1.0743
   76SLPC   H7S 6849   1.318   4.228   7.255 -0.3300 -2.6812 -0.7606
   76SLPC   C28 6850   1.113   4.223   7.343 -0.7921 -0.0830  0.4445
   76SLPC   H8R 6851   1.008   4.215   7.307 -0.0757 -1.4616 -1.5440
   76SLPC   H8S 6852   1.128   4.131   7.403  1.4829  1.6415  2.7198
   76SLPC   C29 6853   1.117   4.356   7.425  0.2890  0.6479  0.5082
   76SLPC   H9R 6854   1.088   4.445   7.368  1.4124  1.6557  1.4491
   76SLPC  C210 6855   1.155   4.368   7.550 -0.8288  0.1603  0.1331
   76SLPC  H10R 6856   1.154   4.468   7.597  1.0623  0.5167 -0.4875
   76SLPC  C211 6857   1.201   4.260   7.646  0.7278 -0.4990  0.1193
   76SLPC  H11R 6858   1.276   4.311   7.710 -1.4170  3.8022 -0.3980
   76SLPC  H11S 6859   1.262   4.187   7.589  1.1412 -0.3094  0.3174
   76SLPC  C212 6860   1.094   4.183   7.722 -0.3586  0.2876 -0.1305
   76SLPC  H12R 6861   0.996   4.181   7.672 -1.5936  2.4273  1.9719
   76SLPC  C213 6862   1.121   4.129   7.839 -0.5357 -0.0131  0.2496
   76SLPC  H13R 6863   1.040   4.067   7.883  0.4115 -0.8444  0.8712
   76SLPC  C214 6864   1.249   4.129   7.921 -0.5542 -0.1836 -0.0014
   76SLPC  H14R 6865   1.318   4.211   7.894  1.4570 -2.2425 -1.5349
   76SLPC  H14S 6866   1.310   4.039   7.897 -0.0853  0.6615 -2.2317
   76SLPC  C215 6867   1.223   4.142   8.075 -0.2685  0.4438 -0.4779
   76SLPC  H15R 6868   1.176   4.240   8.096 -2.3795 -0.6489  0.1277
   76SLPC  H15S 6869   1.323   4.164   8.119  1.1387 -1.7406 -2.3381
   76SLPC  C216 6870   1.165   4.029   8.158 -0.8404 -0.0113 -0.7786
   76SLPC  H16R 6871   1.228   3.939   8.137  1.1090  1.0706  0.1519
   76SLPC  H16S 6872   1.063   4.004   8.123 -0.2364 -1.8642 -1.3328
   76SLPC  C217 6873   1.179   4.034   8.309  0.0479 -0.0191  0.1336
   76SLPC  H17R 6874   1.124   3.948   8.355  0.2815 -0.6894 -0.8190
   76SLPC  H17S 6875   1.143   4.136   8.335 -2.5656 -0.8786  0.2272
   76SLPC  C218 6876   1.321   4.013   8.367  0.5145  0.3279  0.1256
   76SLPC  H18R 6877   1.350   3.906   8.355 -1.0866 -0.0968 -0.1898
   76SLPC  H18S 6878   1.318   4.041   8.474 -2.3528 -1.3877  0.6136
   76SLPC  H18T 6879   1.397   4.081   8.323  0.3535 -0.7644 -1.9759
   76SLPC   C33 6880   1.756   4.199   6.632  0.2619  0.8628 -0.1504
   76SLPC   H3X 6881   1.811   4.194   6.536  1.2980 -0.4577  0.4732
   76SLPC   H3Y 6882   1.685   4.114   6.636  3.1562 -1.7008  0.5294
   76SLPC   C34 6883   1.849   4.184   6.754 -0.8357  0.7361 -0.0799
   76SLPC   H4X 6884   1.911   4.272   6.780 -1.5449  0.8880  1.2423
   76SLPC   H4Y 6885   1.923   4.108   6.719 -0.6023  0.0274  1.8197
   76SLPC   C35 6886   1.796   4.141   6.894 -0.3850 -0.1618  0.9542
   76SLPC   H5X 6887   1.751   4.040   6.881  0.9716 -0.6953  0.0633
   76SLPC   H5Y 6888   1.711   4.207   6.920 -1.4928 -1.0985 -0.1460
   76SLPC   C36 6889   1.904   4.135   7.000  0.3965 -0.1674 -0.3600
   76SLPC   H6X 6890   1.948   4.237   7.006  0.6415 -0.2367 -0.8968
   76SLPC   H6Y 6891   1.985   4.059   6.985  4.0310  2.8134  2.1652
   76SLPC   C37 6892   1.850   4.097   7.134 -0.0669 -0.0167  0.3533
   76SLPC   H7X 6893   1.786   4.006   7.132  1.3115 -1.0231 -1.1508
   76SLPC   H7Y 6894   1.791   4.179   7.180  0.6829 -0.2778  1.8504
   76SLPC   C38 6895   1.959   4.085   7.242  0.4979  0.2316  0.2279
   76SLPC   H8X 6896   2.007   4.181   7.268 -0.1282  0.9610 -1.1947
   76SLPC   H8Y 6897   2.039   4.012   7.215 -1.5009 -2.1242  0.3150
   76SLPC   C39 6898   1.902   4.034   7.380  0.4688 -0.3950  0.4793
   76SLPC   H9X 6899   1.866   3.930   7.366  2.5839 -0.8412 -2.7340
   76SLPC   H9Y 6900   1.824   4.103   7.419  1.4124  0.0401  1.6661
   76SLPC  C310 6901   2.014   4.023   7.479 -0.0791  0.3462  0.1029
   76SLPC  H10X 6902   2.059   4.123   7.499 -0.4328  0.3928  0.6797
   76SLPC  H10Y 6903   2.095   3.955   7.445 -1.7828 -0.4351 -2.6979
   76SLPC  C311 6904   1.965   3.970   7.618  0.2851 -0.1656 -0.4204
   76SLPC  H11X 6905   1.904   3.881   7.590  0.0536  0.2090 -1.1510
   76SLPC  H11Y 6906   1.906   4.049   7.670 -0.5259 -0.6734 -0.5526
   76SLPC  C312 6907   2.086   3.944   7.713 -0.5485 -0.2530 -0.9260
   76SLPC  H12X 6908   2.164   4.024   7.714  0.4281 -0.9934 -4.1311
   76SLPC  H12Y 6909   2.140   3.860   7.665 -0.0967 -0.3246 -0.2970
   76SLPC  C313 6910   2.040   3.924   7.860 -0.1000 -0.2856  0.0446
   76SLPC  H13X 6911   1.957   3.851   7.865 -0.5259 -0.0019 -1.8774
   76SLPC  H13Y 6912   1.998   4.020   7.896  1.5820  0.7491 -0.5820
   76SLPC  C314 6913   2.165   3.898   7.947 -0.3234 -0.2741  0.2689
   76SLPC  H14X 6914   2.251   3.960   7.915 -1.5629  0.9248 -0.8791
   76SLPC  H14Y 6915   2.197   3.793   7.928 -2.3549 -1.2239  1.6841
   76SLPC  C315 6916   2.138   3.929   8.093 -0.2795  0.7090 -0.7163
   76SLPC  H15X 6917   2.062   3.853   8.120  1.2378 -0.5078  0.3404
   76SLPC  H15Y 6918   2.101   4.033   8.106 -0.9975  0.4858 -0.9440
   76SLPC  C316 6919   2.258   3.899   8.183 -0.4208  0.4311 -0.3789
   76SLPC  H16X 6920   2.326   3.987   8.169 -1.6153  1.3678 -0.4474
   76SLPC  H16Y 6921   2.317   3.811   8.150 -0.2582  0.9369 -1.4957
   76SLPC  C317 6922   2.229   3.893   8.340 -0.4181 -0.1018  0.5445
   76SLPC  H17X 6923   2.161   3.977   8.367  0.6658  0.8782  0.2667
   76SLPC  H17Y 6924   2.321   3.909   8.399 -0.2809 -3.9211  1.6407
   76SLPC  C318 6925   2.179   3.754   8.361  0.3450  0.3260  0.0629
   76SLPC  H18X 6926   2.097   3.731   8.291 -0.1565 -1.5558  1.1898
   76SLPC  H18Y 6927   2.157   3.723   8.466  2.9646  1.4245  1.0474
   76SLPC  H18Z 6928   2.259   3.687   8.325 -0.1311 -0.7045  0.8734
   77SLPC     N 6929   5.883   4.529   6.173  0.1343  0.8622 -0.0101
   77SLPC   C13 6930   5.862   4.672   6.144  0.3813 -0.4458  0.0530
   77SLPC  H13A 6931   5.950   4.724   6.109  0.2876 -0.9949 -1.0603
   77SLPC  H13B 6932   5.785   4.683   6.069  1.1173 -1.3317 -0.8508
   77SLPC  H13C 6933   5.825   4.726   6.230  0.0366  1.4923 -1.2651
   77SLPC   C14 6934   6.011   4.519   6.249  0.7742 -0.0491  0.5096
   77SLPC  H14A 6935   6.093   4.535   6.181  0.2453  0.8599  0.0680
   77SLPC  H14B 6936   6.013   4.601   6.319 -1.1512  0.0998  0.4236
   77SLPC  H14C 6937   6.018   4.428   6.307 -0.7444  1.1729  2.7980
   77SLPC   C15 6938   5.883   4.451   6.041  0.1355  0.4495  0.4593
   77SLPC  H15A 6939   5.953   4.490   5.969 -0.0299  0.3358  0.2353
   77SLPC  H15B 6940   5.910   4.347   6.055  2.4524  0.7785 -1.1105
   77SLPC  H15C 6941   5.786   4.456   5.992  0.3943  2.4748  0.0530
   77SLPC   C12 6942   5.769   4.481   6.259 -0.4956  0.3914 -0.7079
   77SLPC  H12A 6943   5.780   4.375   6.273 -0.3323  0.5020  0.0497
   77SLPC  H12B 6944   5.679   4.473   6.199  0.9572 -2.0591 -2.7400
   77SLPC   C11 6945   5.745   4.554   6.391 -1.1233  0.5555 -0.2414
   77SLPC  H11A 6946   5.846   4.577   6.431  0.1803 -1.4097 -2.1623
   77SLPC  H11B 6947   5.699   4.490   6.470  2.2121  0.3184  1.7399
   77SLPC     P 6948   5.535   4.663   6.310  0.4091 -0.5108  0.1507
   77SLPC   O13 6949   5.539   4.694   6.164 -0.2808  0.3591 -0.4216
   77SLPC   O14 6950   5.469   4.537   6.342 -0.2876 -0.5202 -0.1525
   77SLPC   O12 6951   5.678   4.675   6.371 -0.5399 -0.7821 -0.6296
   77SLPC   O11 6952   5.457   4.792   6.374 -0.1365  0.3092  0.1569
   77SLPC    C1 6953   5.541   4.891   6.447  0.2342  0.0373 -0.0041
   77SLPC    HA 6954   5.645   4.902   6.408 -0.9299  0.0666 -3.3896
   77SLPC    HB 6955   5.491   4.990   6.453  0.1003 -0.0908  1.2882
   77SLPC    C2 6956   5.556   4.843   6.598 -0.3689  0.7069 -0.2600
   77SLPC    HS 6957   5.582   4.735   6.602  1.4810  0.9973 -2.2857
   77SLPC   O21 6958   5.438   4.871   6.670  0.4741 -0.3773 -0.0384
   77SLPC   C21 6959   5.392   4.776   6.750 -0.4336  0.4089 -0.0437
   77SLPC   O22 6960   5.444   4.668   6.770  0.1588 -0.2348 -0.4046
   77SLPC   C22 6961   5.285   4.821   6.843  0.7452 -0.0539  0.4349
   77SLPC   H2R 6962   5.319   4.918   6.885  1.9840  0.0654 -0.7655
   77SLPC   H2S 6963   5.197   4.843   6.778 -0.0335  3.5889  2.4367
   77SLPC    C3 6964   5.683   4.918   6.658  0.2126  0.9272  0.4099
   77SLPC    HX 6965   5.648   5.022   6.670  0.0733  0.6699  2.6969
   77SLPC    HY 6966   5.768   4.917   6.586  0.4725  1.3892  0.7101
   77SLPC   O31 6967   5.719   4.867   6.791 -0.6245 -0.3030  0.4702
   77SLPC   C31 6968   5.820   4.778   6.799  0.2066  0.0278 -0.3795
   77SLPC   O32 6969   5.878   4.732   6.704  0.1375 -0.2078  0.2160
   77SLPC   C32 6970   5.832   4.744   6.946 -0.2496  0.2079 -0.3202
   77SLPC   H2X 6971   5.752   4.794   7.005  0.3770  1.0794 -0.1926
   77SLPC   H2Y 6972   5.929   4.788   6.976  0.6085 -0.5343 -1.8608
   77SLPC   C23 6973   5.257   4.723   6.965  0.1698 -0.5098 -0.2089
   77SLPC   H3R 6974   5.261   4.620   6.923  0.9941 -0.2936 -0.6755
   77SLPC   H3S 6975   5.158   4.751   7.007  0.5732 -1.1744  1.2249
   77SLPC   C24 6976   5.363   4.756   7.076 -0.4222 -0.0124 -0.4214
   77SLPC   H4R 6977   5.368   4.865   7.098  0.5100 -0.0574 -0.3664
   77SLPC   H4S 6978   5.466   4.735   7.042 -0.2546  1.8386 -1.1929
   77SLPC   C25 6979   5.329   4.679   7.210 -0.0111  0.1341  0.2265
   77SLPC   H5R 6980   5.282   4.579   7.198 -0.4573  0.4467 -0.6932
   77SLPC   H5S 6981   5.251   4.735   7.265  0.1025 -0.2982  0.8471
   77SLPC   C26 6982   5.452   4.680   7.298  0.3696  0.3651  0.6260
   77SLPC   H6R 6983   5.500   4.779   7.285 -1.6169  1.1818 -1.0649
   77SLPC   H6S 6984   5.525   4.600   7.274  1.2259  0.4112  2.8232
   77SLPC   C27 6985   5.424   4.653   7.444  0.7705  0.2337 -0.3302
   77SLPC   H7R 6986   5.374   4.555   7.455  0.1127  0.8136  3.3553
   77SLPC   H7S 6987   5.356   4.729   7.488 -0.3699 -1.5728  1.1562
   77SLPC   C28 6988   5.554   4.642   7.524  0.5420 -0.5236 -0.3295
   77SLPC   H8R 6989   5.626   4.584   7.462  0.1489  0.0918 -1.3937
   77SLPC   H8S 6990   5.537   4.571   7.607  1.3124 -0.4545 -0.1048
   77SLPC   C29 6991   5.618   4.772   7.577  0.1084  0.0347 -0.0045
   77SLPC   H9R 6992   5.568   4.824   7.660  0.4757  1.4625 -0.6465
   77SLPC  C210 6993   5.716   4.840   7.524  0.2617 -0.3247 -0.1815
   77SLPC  H10R 6994   5.748   4.930   7.578 -0.6353 -0.7121  1.0663
   77SLPC  C211 6995   5.795   4.809   7.403 -0.1811  0.1860  0.1484
   77SLPC  H11R 6996   5.767   4.886   7.328  1.7355  0.6038 -0.1721
   77SLPC  H11S 6997   5.764   4.713   7.357  0.4021  0.2689 -0.4238
   77SLPC  C212 6998   5.945   4.799   7.431 -0.6874 -0.1863  0.8398
   77SLPC  H12R 6999   5.990   4.759   7.523  2.5611  0.6228 -0.2941
   77SLPC  C213 7000   6.045   4.842   7.357  0.5056  0.0682  0.1989
   77SLPC  H13R 7001   6.149   4.818   7.385  0.3881  0.3450  0.8823
   77SLPC  C214 7002   6.040   4.917   7.224 -0.1474 -0.3196  0.4365
   77SLPC  H14R 7003   5.946   4.884   7.175  0.9885  1.5421 -3.3286
   77SLPC  H14S 7004   6.133   4.892   7.169 -0.6542 -2.2000  0.3698
   77SLPC  C215 7005   6.010   5.068   7.228  0.0883 -0.5410  0.0181
   77SLPC  H15R 7006   6.108   5.117   7.250  0.2334 -1.5287  1.6470
   77SLPC  H15S 7007   5.936   5.096   7.306 -0.0277 -0.4933 -0.1082
   77SLPC  C216 7008   5.956   5.120   7.085 -0.2101 -0.0228  0.3029
   77SLPC  H16R 7009   5.859   5.073   7.061  1.5422 -3.8109 -0.1807
   77SLPC  H16S 7010   6.030   5.079   7.013 -0.7333  1.8420 -1.3622
   77SLPC  C217 7011   5.944   5.274   7.084 -0.8874  0.0825 -0.0941
   77SLPC  H17R 7012   6.045   5.319   7.087 -0.3934 -0.8397 -1.8237
   77SLPC  H17S 7013   5.891   5.323   7.169  0.9726  0.2034  1.0371
   77SLPC  C218 7014   5.874   5.320   6.957  0.6916  0.3338  0.4750
   77SLPC  H18R 7015   5.771   5.279   6.953  1.3455 -1.6423  2.1285
   77SLPC  H18S 7016   5.924   5.266   6.874  0.8477 -2.4558  2.2293
   77SLPC  H18T 7017   5.866   5.429   6.941  2.9969  0.5372  0.3327
   77SLPC   C33 7018   5.839   4.585   6.968 -0.2925  0.5349  0.2346
   77SLPC   H3X 7019   5.920   4.544   6.905 -1.2631 -2.9742  1.0408
   77SLPC   H3Y 7020   5.740   4.534   6.959  1.1290 -2.1498 -1.3138
   77SLPC   C34 7021   5.896   4.556   7.106  0.2252 -0.2301 -0.2500
   77SLPC   H4X 7022   5.823   4.604   7.175 -1.1310 -1.1240 -1.0184
   77SLPC   H4Y 7023   5.990   4.612   7.124 -0.0619  0.8685 -1.8592
   77SLPC   C35 7024   5.912   4.407   7.139 -0.0248  0.3620 -0.2024
   77SLPC   H5X 7025   5.942   4.348   7.049  0.6085  2.9070 -1.7724
   77SLPC   H5Y 7026   5.815   4.363   7.170 -1.3264  0.9664 -3.0861
   77SLPC   C36 7027   6.007   4.385   7.254  0.1729  0.4180 -0.1369
   77SLPC   H6X 7028   6.004   4.279   7.286  0.0436  0.2613 -0.6650
   77SLPC   H6Y 7029   5.972   4.448   7.339 -3.0324  0.0828 -1.1162
   77SLPC   C37 7030   6.158   4.422   7.227 -0.0993  0.2160  0.9223
   77SLPC   H7X 7031   6.171   4.527   7.193 -1.9776  0.4056  0.6778
   77SLPC   H7Y 7032   6.193   4.366   7.138  0.5200  0.2230  1.1529
   77SLPC   C38 7033   6.261   4.389   7.347  0.7110 -0.5444  0.4263
   77SLPC   H8X 7034   6.347   4.457   7.333 -0.4348  0.8136 -0.2856
   77SLPC   H8Y 7035   6.282   4.283   7.319 -1.0506 -0.7507 -0.2984
   77SLPC   C39 7036   6.194   4.381   7.487  0.6901  0.1930  0.5532
   77SLPC   H9X 7037   6.116   4.302   7.486  1.8706 -1.0365 -1.5055
   77SLPC   H9Y 7038   6.161   4.484   7.513 -0.4127  0.4334 -1.5676
   77SLPC  C310 7039   6.293   4.343   7.600 -0.4389  0.1026 -0.4515
   77SLPC  H10X 7040   6.358   4.433   7.602 -0.2188 -0.0474 -0.8582
   77SLPC  H10Y 7041   6.363   4.260   7.574  0.7501  1.0059 -0.2406
   77SLPC  C311 7042   6.224   4.309   7.727 -0.1261 -0.3285  0.0804
   77SLPC  H11X 7043   6.131   4.249   7.717 -0.4058 -0.7540  3.9832
   77SLPC  H11Y 7044   6.196   4.406   7.771  0.2154 -0.0144 -0.3809
   77SLPC  C312 7045   6.304   4.233   7.825 -0.0485 -0.0047 -0.6846
   77SLPC  H12X 7046   6.395   4.285   7.860 -0.0578  0.7124 -1.6944
   77SLPC  H12Y 7047   6.343   4.141   7.777 -0.0167 -0.7629  0.7189
   77SLPC  C313 7048   6.217   4.204   7.952 -0.4923  0.3925 -0.1388
   77SLPC  H13X 7049   6.118   4.170   7.918 -1.3055  1.3367  1.1815
   77SLPC  H13Y 7050   6.195   4.298   8.007 -0.6649  0.8334 -0.9489
   77SLPC  C314 7051   6.297   4.097   8.034 -0.6398  0.6578  0.0606
   77SLPC  H14X 7052   6.393   4.134   8.077 -0.6902 -0.1574  0.9051
   77SLPC  H14Y 7053   6.330   4.018   7.964  0.6193  0.5840  0.7108
   77SLPC  C315 7054   6.197   4.026   8.135 -0.4713  0.2175  0.4368
   77SLPC  H15X 7055   6.135   3.952   8.079  1.2209 -0.8844 -0.0910
   77SLPC  H15Y 7056   6.133   4.101   8.185 -1.8959 -0.8174  0.2393
   77SLPC  C316 7057   6.266   3.955   8.252  0.0551 -0.5731  0.0399
   77SLPC  H16X 7058   6.343   4.024   8.293  0.7298 -2.3749  1.9740
   77SLPC  H16Y 7059   6.319   3.863   8.222  0.3233 -0.1945 -0.6772
   77SLPC  C317 7060   6.172   3.931   8.370 -0.3553  0.9820 -0.1252
   77SLPC  H17X 7061   6.222   3.852   8.431 -1.6088  0.2624  0.0024
   77SLPC  H17Y 7062   6.077   3.886   8.335  0.4546  0.1025 -1.3366
   77SLPC  C318 7063   6.148   4.052   8.456  0.9626  0.1356  0.0762
   77SLPC  H18X 7064   6.067   4.037   8.530 -2.5091  0.7423 -3.3186
   77SLPC  H18Y 7065   6.112   4.129   8.386  0.6734 -0.4114 -0.3893
   77SLPC  H18Z 7066   6.247   4.076   8.502  0.6569 -0.0082  0.8243
   78SLPC     N 7067   6.526   3.471   5.905  0.1551 -0.0792  0.7111
   78SLPC   C13 7068   6.668   3.471   5.957 -0.5195  0.4642  0.0991
   78SLPC  H13A 7069   6.748   3.451   5.888  0.0148 -1.7659  1.2576
   78SLPC  H13B 7070   6.681   3.563   6.011  0.4690  0.2960  0.1485
   78SLPC  H13C 7071   6.683   3.392   6.029  0.1440 -1.3401 -1.8837
   78SLPC   C14 7072   6.492   3.346   5.835  0.3994  0.3073  0.1115
   78SLPC  H14A 7073   6.390   3.331   5.803  0.7566 -2.2312 -0.0529
   78SLPC  H14B 7074   6.561   3.316   5.758  0.8005  0.3927  0.4311
   78SLPC  H14C 7075   6.507   3.259   5.899  1.8237 -1.5257 -2.5224
   78SLPC   C15 7076   6.521   3.581   5.804  0.2686 -0.5255  0.6455
   78SLPC  H15A 7077   6.427   3.586   5.753  0.9031  2.2004 -0.4380
   78SLPC  H15B 7078   6.546   3.674   5.854  3.7074 -0.0709 -1.5457
   78SLPC  H15C 7079   6.597   3.565   5.730 -0.8550 -2.3260 -0.1662
   78SLPC   C12 7080   6.426   3.505   6.011 -0.2519  0.4995 -0.2513
   78SLPC  H12A 7081   6.436   3.423   6.082 -1.7416  0.6097  0.1147
   78SLPC  H12B 7082   6.326   3.496   5.971 -0.9672 -2.4263  1.8221
   78SLPC   C11 7083   6.427   3.628   6.092  0.9066 -0.6783 -0.4035
   78SLPC  H11A 7084   6.333   3.621   6.151  1.5824  0.1168  0.8109
   78SLPC  H11B 7085   6.419   3.725   6.039  2.2257  2.2740  4.1364
   78SLPC     P 7086   6.557   3.527   6.299 -0.0100  0.5499 -0.0161
   78SLPC   O13 7087   6.449   3.571   6.386  0.3776 -0.0959 -0.1588
   78SLPC   O14 7088   6.565   3.382   6.256  0.1770  0.6411 -0.8104
   78SLPC   O12 7089   6.543   3.626   6.177  0.4604  0.4830 -0.1219
   78SLPC   O11 7090   6.693   3.575   6.358  0.3987 -0.1140  0.1062
   78SLPC    C1 7091   6.702   3.719   6.390 -0.2871 -0.2934  0.1757
   78SLPC    HA 7092   6.749   3.766   6.301 -0.5060 -2.6120 -1.2265
   78SLPC    HB 7093   6.601   3.760   6.412 -0.3142 -0.8390  1.1119
   78SLPC    C2 7094   6.798   3.744   6.507 -0.9364  0.7918 -0.0696
   78SLPC    HS 7095   6.894   3.694   6.482  0.8348  3.2142  1.4589
   78SLPC   O21 7096   6.747   3.684   6.623 -0.2568 -0.6524 -0.4266
   78SLPC   C21 7097   6.825   3.618   6.706  0.1877  0.1509  0.0203
   78SLPC   O22 7098   6.941   3.577   6.687 -0.6004 -0.1921  0.1576
   78SLPC   C22 7099   6.735   3.596   6.835  0.1653  0.5034  0.1398
   78SLPC   H2R 7100   6.686   3.692   6.863 -2.4816 -1.0255  1.1590
   78SLPC   H2S 7101   6.664   3.516   6.803  0.5241  0.2098  0.0689
   78SLPC    C3 7102   6.831   3.895   6.542 -0.0344 -0.3307 -0.3909
   78SLPC    HX 7103   6.736   3.946   6.572 -2.1641 -2.7953 -2.4448
   78SLPC    HY 7104   6.874   3.928   6.445  0.8415 -2.8336 -0.9225
   78SLPC   O31 7105   6.925   3.907   6.657  0.3597 -0.0047  0.6412
   78SLPC   C31 7106   7.051   3.904   6.619  0.0635 -0.2898  0.1477
   78SLPC   O32 7107   7.088   3.922   6.502 -0.1911  0.2562 -0.7545
   78SLPC   C32 7108   7.136   3.861   6.734 -0.2305  0.6687  0.4553
   78SLPC   H2X 7109   7.242   3.865   6.701 -0.9762 -1.0577 -2.4943
   78SLPC   H2Y 7110   7.123   3.751   6.737 -1.7689  0.7317 -1.6533
   78SLPC   C23 7111   6.810   3.547   6.965  0.6933 -0.5622  1.6587
   78SLPC   H3R 7112   6.905   3.602   6.976  0.5028 -0.3549  2.3509
   78SLPC   H3S 7113   6.830   3.438   6.965  0.3815 -0.6210  1.7592
   78SLPC   C24 7114   6.722   3.572   7.094 -0.1441 -0.8110  0.3900
   78SLPC   H4R 7115   6.620   3.532   7.074 -0.5769  0.2138  0.4452
   78SLPC   H4S 7116   6.704   3.681   7.110 -0.3781 -1.0351  1.8253
   78SLPC   C25 7117   6.774   3.524   7.228  0.3914  0.2615 -1.8138
   78SLPC   H5R 7118   6.859   3.590   7.255  0.9598  0.1754 -3.3311
   78SLPC   H5S 7119   6.806   3.418   7.222 -0.7788 -0.1144 -1.6769
   78SLPC   C26 7120   6.663   3.532   7.338  0.5020 -0.0920  0.0202
   78SLPC   H6R 7121   6.579   3.467   7.307 -1.2332  2.0363  0.0103
   78SLPC   H6S 7122   6.611   3.630   7.347  0.1037 -0.2826 -0.1765
   78SLPC   C27 7123   6.699   3.477   7.478 -0.0989  0.2867 -0.4094
   78SLPC   H7R 7124   6.705   3.560   7.551 -1.3688  0.1122 -0.0830
   78SLPC   H7S 7125   6.801   3.433   7.482 -0.4452 -0.4114  2.2757
   78SLPC   C28 7126   6.606   3.370   7.540 -0.6710  0.2195  0.2063
   78SLPC   H8R 7127   6.503   3.395   7.507  0.0319 -0.1616 -2.5547
   78SLPC   H8S 7128   6.609   3.374   7.651 -0.8254 -0.8022  0.2578
   78SLPC   C29 7129   6.649   3.238   7.485  0.0498 -0.0467  0.6505
   78SLPC   H9R 7130   6.631   3.237   7.377 -1.4423 -1.8848  0.8616
   78SLPC  C210 7131   6.679   3.133   7.562 -0.1767 -0.6560  0.3077
   78SLPC  H10R 7132   6.719   3.039   7.522  1.2770  0.0448  0.0510
   78SLPC  C211 7133   6.662   3.125   7.708  0.2319  0.0648 -0.7736
   78SLPC  H11R 7134   6.579   3.185   7.749  1.1904 -0.3412  2.0393
   78SLPC  H11S 7135   6.757   3.164   7.751  1.4724 -2.1016 -1.3398
   78SLPC  C212 7136   6.661   2.984   7.769  0.0454 -1.1279  1.1099
   78SLPC  H12R 7137   6.683   2.905   7.695 -0.5084  1.3635 -1.9526
   78SLPC  C213 7138   6.648   2.954   7.897 -0.1081  0.6866 -0.1866
   78SLPC  H13R 7139   6.653   2.847   7.923 -0.9561  0.7748  0.4025
   78SLPC  C214 7140   6.627   3.041   8.015 -0.0675  0.2735 -0.2496
   78SLPC  H14R 7141   6.699   3.123   7.995  0.8537 -0.7434 -1.2927
   78SLPC  H14S 7142   6.662   2.989   8.107 -1.1066 -0.4280 -0.2345
   78SLPC  C215 7143   6.478   3.079   8.025 -0.6552 -0.0457  0.5050
   78SLPC  H15R 7144   6.419   2.986   8.038  1.0497 -1.1025  1.1272
   78SLPC  H15S 7145   6.436   3.113   7.929  3.2391 -1.9513 -2.1402
   78SLPC  C216 7146   6.458   3.190   8.132  0.5538 -0.0486  0.0813
   78SLPC  H16R 7147   6.471   3.293   8.093 -0.5031  0.0766  0.0568
   78SLPC  H16S 7148   6.535   3.186   8.212  0.5879 -0.5639  0.0256
   78SLPC  C217 7149   6.327   3.169   8.203 -0.3082  0.5509 -0.0095
   78SLPC  H17R 7150   6.324   3.072   8.256 -4.5029  0.0927 -0.8031
   78SLPC  H17S 7151   6.245   3.169   8.128  0.7572  1.8877 -1.2490
   78SLPC  C218 7152   6.289   3.286   8.298  1.3542  0.1403 -0.1935
   78SLPC  H18R 7153   6.201   3.242   8.350  1.3288 -2.1574 -2.0100
   78SLPC  H18S 7154   6.250   3.378   8.250 -1.7688 -0.2351  1.3634
   78SLPC  H18T 7155   6.374   3.306   8.367  0.2759  0.3067  1.1220
   78SLPC   C33 7156   7.114   3.937   6.870 -0.9115 -0.2105  0.7236
   78SLPC   H3X 7157   7.006   3.958   6.883 -1.2459  0.4242 -2.3345
   78SLPC   H3Y 7158   7.168   4.035   6.871 -1.1180 -0.0292 -1.5153
   78SLPC   C34 7159   7.173   3.851   6.984 -0.7203  0.3379 -0.8958
   78SLPC   H4X 7160   7.284   3.863   6.978 -0.7287  0.8458 -0.1453
   78SLPC   H4Y 7161   7.148   3.745   6.963 -1.9273  0.3913  0.2067
   78SLPC   C35 7162   7.138   3.899   7.124  0.0848 -0.3201  0.2310
   78SLPC   H5X 7163   7.029   3.924   7.125  0.1192 -0.1127 -0.5902
   78SLPC   H5Y 7164   7.197   3.992   7.142  1.5296 -0.6400 -2.3871
   78SLPC   C36 7165   7.167   3.787   7.226 -0.4526 -0.0773  0.1424
   78SLPC   H6X 7166   7.277   3.784   7.240 -0.2191  0.2155 -1.4662
   78SLPC   H6Y 7167   7.136   3.686   7.190 -0.0655  0.2635 -1.1911
   78SLPC   C37 7168   7.112   3.821   7.362 -0.4883  0.2207  0.3321
   78SLPC   H7X 7169   7.019   3.767   7.390  0.1897 -0.8206  0.6350
   78SLPC   H7Y 7170   7.082   3.927   7.380  0.8492  0.7750 -0.5255
   78SLPC   C38 7171   7.208   3.787   7.479 -0.7451  0.1582  0.1876
   78SLPC   H8X 7172   7.299   3.848   7.496  0.3471 -0.5871 -2.4737
   78SLPC   H8Y 7173   7.253   3.688   7.455 -1.0836  0.3883 -1.5769
   78SLPC   C39 7174   7.130   3.774   7.615 -0.0894 -0.5740  0.3469
   78SLPC   H9X 7175   7.068   3.862   7.641  0.8702  0.2595 -0.1245
   78SLPC   H9Y 7176   7.211   3.777   7.691  0.0833 -1.5048  0.2138
   78SLPC  C310 7177   7.057   3.636   7.624  0.9484 -0.1810  0.0307
   78SLPC  H10X 7178   7.140   3.563   7.610  1.5446 -0.1257  2.7381
   78SLPC  H10Y 7179   6.984   3.635   7.540 -0.6566  0.8768  1.3599
   78SLPC  C311 7180   6.983   3.611   7.751  0.2362 -0.3133 -0.0320
   78SLPC  H11X 7181   6.882   3.654   7.737  0.7840  0.8173 -0.6383
   78SLPC  H11Y 7182   7.040   3.659   7.833  0.0817 -1.6764  0.8993
   78SLPC  C312 7183   6.963   3.461   7.795  0.6243  0.4610  0.5266
   78SLPC  H12X 7184   7.065   3.418   7.784  0.2371 -0.2835 -0.3864
   78SLPC  H12Y 7185   6.893   3.406   7.728  1.1043 -0.9598  1.1489
   78SLPC  C313 7186   6.925   3.442   7.944 -0.0672 -0.0145 -0.0123
   78SLPC  H13X 7187   6.818   3.457   7.969 -0.0545 -1.3349  0.9521
   78SLPC  H13Y 7188   6.978   3.516   8.008 -1.8645 -0.5945  2.3056
   78SLPC  C314 7189   6.965   3.300   7.990  0.4323 -0.3590  1.2021
   78SLPC  H14X 7190   7.076   3.301   7.985  0.4596 -2.4046  0.2630
   78SLPC  H14Y 7191   6.935   3.236   7.904  1.4010  1.0948 -0.2765
   78SLPC  C315 7192   6.922   3.255   8.129 -0.1278 -0.7197 -0.4236
   78SLPC  H15X 7193   6.962   3.153   8.146 -2.4068 -1.5333  0.5646
   78SLPC  H15Y 7194   6.813   3.233   8.133  0.1343 -1.9315  1.2596
   78SLPC  C316 7195   6.961   3.352   8.248  1.0324  0.1380 -0.6099
   78SLPC  H16X 7196   6.940   3.455   8.212  0.7945  0.9623  1.7691
   78SLPC  H16Y 7197   7.068   3.358   8.278  0.6522  0.3241  0.7314
   78SLPC  C317 7198   6.884   3.327   8.374 -0.1915  0.0025 -0.1486
   78SLPC  H17X 7199   6.901   3.218   8.385 -1.0093 -0.0677  0.4902
   78SLPC  H17Y 7200   6.773   3.336   8.369 -0.2631 -1.4493 -2.5835
   78SLPC  C318 7201   6.941   3.399   8.497 -0.8062 -0.0768 -0.0530
   78SLPC  H18X 7202   7.052   3.410   8.499 -0.7850 -0.3939  0.4783
   78SLPC  H18Y 7203   6.913   3.329   8.578  1.3414 -2.2407 -1.0641
   78SLPC  H18Z 7204   6.876   3.487   8.513  0.4319  1.2551 -1.8379
   79SLPC     N 7205   3.850   5.925   6.175  0.3069 -0.7367 -0.0639
   79SLPC   C13 7206   3.746   5.816   6.172  0.2130 -0.3955  0.4225
   79SLPC  H13A 7207   3.681   5.824   6.086  3.9884  0.0889 -2.6263
   79SLPC  H13B 7208   3.791   5.719   6.170 -1.7493 -1.3546 -0.1919
   79SLPC  H13C 7209   3.682   5.810   6.259 -0.2491 -2.6890 -0.0186
   79SLPC   C14 7210   3.910   5.921   6.044 -0.5930  0.0924 -0.3095
   79SLPC  H14A 7211   3.999   5.982   6.042  0.6768 -1.3876  2.9168
   79SLPC  H14B 7212   3.936   5.818   6.022 -0.5681 -0.8559  3.4592
   79SLPC  H14C 7213   3.839   5.948   5.968 -0.8016 -1.3986 -0.6779
   79SLPC   C15 7214   3.955   5.886   6.275 -0.0639  0.5547 -0.0393
   79SLPC  H15A 7215   4.025   5.961   6.309  1.2842 -1.9078  3.0601
   79SLPC  H15B 7216   3.923   5.834   6.364  0.0299 -1.4455 -1.1327
   79SLPC  H15C 7217   4.024   5.819   6.227  0.7591  0.3640  1.3698
   79SLPC   C12 7218   3.794   6.060   6.193 -0.2966  0.4942 -0.5458
   79SLPC  H12A 7219   3.735   6.084   6.105  0.5353  0.3796 -1.1546
   79SLPC  H12B 7220   3.878   6.127   6.190  0.4081 -0.2562  1.4773
   79SLPC   C11 7221   3.713   6.095   6.317 -0.0620  0.9255 -0.0959
   79SLPC  H11A 7222   3.669   6.195   6.299 -1.0120  0.0224 -3.4369
   79SLPC  H11B 7223   3.794   6.086   6.394  1.7987 -1.3465 -2.1446
   79SLPC     P 7224   3.564   5.955   6.477 -0.0856  0.3941  0.3208
   79SLPC   O13 7225   3.424   5.910   6.474 -0.6139 -0.1886  0.4019
   79SLPC   O14 7226   3.664   5.859   6.534  0.2672 -0.9344  0.1077
   79SLPC   O12 7227   3.608   5.995   6.324  0.1053 -0.2744  0.1886
   79SLPC   O11 7228   3.582   6.089   6.556 -0.2942 -0.2133  0.4124
   79SLPC    C1 7229   3.470   6.188   6.543 -0.5513  0.8554  0.5650
   79SLPC    HA 7230   3.517   6.287   6.521 -1.6376  1.8443  2.4350
   79SLPC    HB 7231   3.388   6.166   6.472  0.1240  2.5002 -0.8009
   79SLPC    C2 7232   3.395   6.205   6.678 -0.0485  0.0954  0.1315
   79SLPC    HS 7233   3.348   6.306   6.680 -1.4529 -0.5416  0.4212
   79SLPC   O21 7234   3.481   6.192   6.788 -0.4269  0.1465 -0.4999
   79SLPC   C21 7235   3.541   6.305   6.827  0.0427 -0.5514 -1.0036
   79SLPC   O22 7236   3.530   6.413   6.771  0.5391  0.2059 -0.3953
   79SLPC   C22 7237   3.629   6.275   6.948  0.5452  0.4099 -0.4213
   79SLPC   H2R 7238   3.563   6.286   7.037  0.6532 -0.8286 -0.1567
   79SLPC   H2S 7239   3.652   6.166   6.956  1.5238  0.7374  2.4315
   79SLPC    C3 7240   3.272   6.112   6.693 -0.2777 -0.0341 -0.1649
   79SLPC    HX 7241   3.302   6.005   6.696 -0.8551 -0.2469 -1.5390
   79SLPC    HY 7242   3.218   6.137   6.599  2.9957  1.0777 -1.9227
   79SLPC   O31 7243   3.197   6.158   6.808  0.0396 -0.3141 -0.4998
   79SLPC   C31 7244   3.125   6.063   6.860  0.2945  0.3766 -0.3398
   79SLPC   O32 7245   3.114   5.951   6.807 -0.2335  0.0402  0.0847
   79SLPC   C32 7246   3.067   6.115   6.993  0.8823 -0.3281 -0.0904
   79SLPC   H2X 7247   3.061   6.226   6.985  1.5641 -0.2194  0.7258
   79SLPC   H2Y 7248   3.151   6.100   7.064  1.3721 -0.7070 -0.7460
   79SLPC   C23 7249   3.753   6.363   6.960  0.3327  0.1720  0.0823
   79SLPC   H3R 7250   3.726   6.470   6.955 -3.0300 -0.5624 -0.2768
   79SLPC   H3S 7251   3.825   6.339   6.879 -1.7992  0.1646 -1.9168
   79SLPC   C24 7252   3.836   6.316   7.086  0.2236  0.1702  0.1878
   79SLPC   H4R 7253   3.874   6.212   7.076 -0.2775  0.2296 -4.5581
   79SLPC   H4S 7254   3.769   6.335   7.173 -0.1248 -0.8653  0.1585
   79SLPC   C25 7255   3.957   6.400   7.107  0.1683 -1.0804 -0.3425
   79SLPC   H5R 7256   3.934   6.505   7.078 -0.5099 -0.6994  1.4621
   79SLPC   H5S 7257   4.034   6.374   7.031  0.8234  0.7339 -0.3414
   79SLPC   C26 7258   4.030   6.394   7.245  0.1473  0.1769  0.2359
   79SLPC   H6R 7259   4.121   6.456   7.233  0.3541 -0.5519 -3.0058
   79SLPC   H6S 7260   4.061   6.295   7.283 -0.2423  0.3219  0.9520
   79SLPC   C27 7261   3.962   6.483   7.346 -0.3562 -0.5461  0.1586
   79SLPC   H7R 7262   3.857   6.445   7.350 -0.6415 -0.0762 -1.7884
   79SLPC   H7S 7263   3.968   6.582   7.295 -1.9754 -1.5461 -2.1378
   79SLPC   C28 7264   4.034   6.461   7.479 -0.4251 -0.1972 -0.1429
   79SLPC   H8R 7265   4.139   6.499   7.473 -0.4251  0.4173  2.5412
   79SLPC   H8S 7266   4.041   6.351   7.495  0.9766 -0.3187 -1.4018
   79SLPC   C29 7267   3.962   6.531   7.591 -0.5511 -0.1651 -0.7087
   79SLPC   H9R 7268   3.924   6.632   7.566 -1.6543 -0.9991 -2.6644
   79SLPC  C210 7269   3.974   6.507   7.718 -0.1135  0.0282 -0.1302
   79SLPC  H10R 7270   3.927   6.571   7.795  2.1719  1.0150  0.5355
   79SLPC  C211 7271   4.041   6.389   7.787  0.5529  0.1548  0.1077
   79SLPC  H11R 7272   4.071   6.313   7.711  0.2335 -0.3701  0.4969
   79SLPC  H11S 7273   3.958   6.345   7.846 -1.0810  0.9767 -1.4692
   79SLPC  C212 7274   4.147   6.433   7.872 -0.6632  0.1765  0.4950
   79SLPC  H12R 7275   4.155   6.541   7.895 -1.0397  0.2424  0.3279
   79SLPC  C213 7276   4.247   6.360   7.930  0.1075 -0.3530  0.2140
   79SLPC  H13R 7277   4.319   6.418   7.989  0.6752  1.1417 -1.8266
   79SLPC  C214 7278   4.279   6.212   7.902 -0.0975  0.2492  0.1749
   79SLPC  H14R 7279   4.389   6.198   7.902 -0.1415 -0.3634  1.6597
   79SLPC  H14S 7280   4.238   6.176   7.806 -0.5515  1.3403 -0.0589
   79SLPC  C215 7281   4.222   6.126   8.016 -0.5961 -0.1425 -0.7726
   79SLPC  H15R 7282   4.256   6.021   8.001  0.3016  0.2154 -1.3638
   79SLPC  H15S 7283   4.112   6.134   8.005 -0.5462  1.5855 -0.1928
   79SLPC  C216 7284   4.255   6.174   8.153 -0.4362  0.5490  0.4830
   79SLPC  H16R 7285   4.214   6.277   8.167 -0.6850  0.1830  2.8732
   79SLPC  H16S 7286   4.360   6.208   8.158  0.1049 -0.5894 -1.8604
   79SLPC  C217 7287   4.199   6.077   8.258 -0.0028 -0.0454  0.6197
   79SLPC  H17R 7288   4.263   6.090   8.348 -0.2449  1.4128  0.6053
   79SLPC  H17S 7289   4.197   5.978   8.207  0.4843  1.2554 -2.1153
   79SLPC  C218 7290   4.063   6.109   8.311 -0.2403  0.2481  0.1632
   79SLPC  H18R 7291   4.024   6.031   8.381 -1.5938  0.5800 -0.1870
   79SLPC  H18S 7292   3.982   6.126   8.237  1.7595  3.5016 -1.4896
   79SLPC  H18T 7293   4.060   6.195   8.380 -0.2968  2.3100 -2.2732
   79SLPC   C33 7294   2.937   6.052   7.046  0.1583 -0.2568  0.4479
   79SLPC   H3X 7295   2.934   5.942   7.034 -0.1341  0.0035 -2.3230
   79SLPC   H3Y 7296   2.858   6.094   6.980 -1.0280 -2.0970  0.6372
   79SLPC   C34 7297   2.898   6.086   7.189  0.0230 -0.2410  0.1682
   79SLPC   H4X 7298   2.791   6.057   7.194  0.2447 -1.5079 -1.4593
   79SLPC   H4Y 7299   2.892   6.195   7.210 -0.1953 -0.6907  2.7034
   79SLPC   C35 7300   2.960   6.016   7.310 -0.9327 -0.5560  0.1138
   79SLPC   H5X 7301   3.070   6.030   7.298 -1.0719 -0.3597 -1.1039
   79SLPC   H5Y 7302   2.939   5.907   7.300 -2.0674 -0.4515  1.2121
   79SLPC   C36 7303   2.903   6.069   7.437 -0.0292 -0.3806  0.2808
   79SLPC   H6X 7304   2.792   6.056   7.439 -0.4735  2.6865  1.3415
   79SLPC   H6Y 7305   2.922   6.178   7.421 -0.1163 -0.8221 -3.6286
   79SLPC   C37 7306   2.967   6.018   7.569  0.2999  0.6616 -0.0087
   79SLPC   H7X 7307   3.074   6.047   7.571 -0.1895  2.6902  3.1809
   79SLPC   H7Y 7308   2.953   5.908   7.584 -0.4538  0.3451 -2.5335
   79SLPC   C38 7309   2.923   6.093   7.697 -0.3294  0.1143  0.2357
   79SLPC   H8X 7310   2.812   6.095   7.701 -0.2877  1.3833  3.2269
   79SLPC   H8Y 7311   2.961   6.197   7.688 -0.6282  0.2299  0.2963
   79SLPC   C39 7312   2.970   6.027   7.819 -0.1451  0.2030 -0.1891
   79SLPC   H9X 7313   3.075   5.992   7.808 -0.2380  0.1499 -0.9636
   79SLPC   H9Y 7314   2.908   5.938   7.841  0.7701 -0.0165  1.6576
   79SLPC  C310 7315   2.969   6.122   7.942 -0.1940  0.9206 -0.0049
   79SLPC  H10X 7316   2.863   6.154   7.954 -0.5303 -0.3273  0.4446
   79SLPC  H10Y 7317   3.019   6.220   7.926 -1.0989  1.4714  0.4722
   79SLPC  C311 7318   3.024   6.061   8.075 -0.1071 -0.1762 -0.2935
   79SLPC  H11X 7319   3.132   6.041   8.063 -0.0473  0.9953 -2.1926
   79SLPC  H11Y 7320   2.967   5.969   8.099 -0.6856  0.8357  2.5756
   79SLPC  C312 7321   2.986   6.154   8.192  0.6960 -0.1221  0.4010
   79SLPC  H12X 7322   2.881   6.183   8.171  1.1536  1.0669 -0.3203
   79SLPC  H12Y 7323   3.051   6.244   8.191 -1.6173  1.6208 -0.4523
   79SLPC  C313 7324   3.006   6.074   8.323 -0.7373 -0.5549 -0.4136
   79SLPC  H13X 7325   2.919   6.008   8.341 -2.4969  1.0534 -2.4726
   79SLPC  H13Y 7326   3.022   6.147   8.406  0.6980 -1.0460 -0.2258
   79SLPC  C314 7327   3.141   5.990   8.336  0.4684  0.0243  0.1363
   79SLPC  H14X 7328   3.222   6.055   8.295  0.8094 -0.7913 -0.5061
   79SLPC  H14Y 7329   3.144   5.905   8.264 -0.2072  1.5403 -1.7759
   79SLPC  C315 7330   3.172   5.931   8.474 -0.3320  0.1825 -0.5885
   79SLPC  H15X 7331   3.122   5.834   8.495  1.8016 -0.4652  2.1711
   79SLPC  H15Y 7332   3.114   5.994   8.545 -1.0806 -3.8828  2.8132
   79SLPC  C316 7333   3.319   5.922   8.509  0.0467  0.0362  0.5699
   79SLPC  H16X 7334   3.373   6.019   8.500 -2.4635  1.5722  1.2477
   79SLPC  H16Y 7335   3.356   5.843   8.440  0.6803 -0.3025  1.2707
   79SLPC  C317 7336   3.341   5.867   8.647  0.2951  0.5291 -0.1363
   79SLPC  H17X 7337   3.278   5.779   8.672 -0.4031  0.5345 -1.7527
   79SLPC  H17Y 7338   3.321   5.949   8.719  0.6905  1.0656 -0.6293
   79SLPC  C318 7339   3.481   5.822   8.673  0.4742 -0.7443 -0.4219
   79SLPC  H18X 7340   3.518   5.760   8.588  2.0626 -0.2124 -0.1524
   79SLPC  H18Y 7341   3.492   5.770   8.771  0.7261  0.4647  0.2099
   79SLPC  H18Z 7342   3.551   5.908   8.681 -0.2216 -0.2987  1.2170
   80SLPC     N 7343   4.374   3.373   5.759  0.6281  0.6152 -0.0929
   80SLPC   C13 7344   4.401   3.273   5.866 -0.0649 -0.4745 -0.0945
   80SLPC  H13A 7345   4.354   3.308   5.957  0.8278 -0.9327  0.5532
   80SLPC  H13B 7346   4.351   3.181   5.837 -0.4685  0.5333 -2.9141
   80SLPC  H13C 7347   4.504   3.245   5.876 -0.4653 -2.1105 -0.1913
   80SLPC   C14 7348   4.406   3.324   5.623 -0.1077 -0.1682  0.5356
   80SLPC  H14A 7349   4.370   3.394   5.548 -0.5564  1.4628  2.1836
   80SLPC  H14B 7350   4.514   3.328   5.612 -0.2364  1.8803 -0.5677
   80SLPC  H14C 7351   4.380   3.221   5.603 -0.5907 -0.0316  0.4435
   80SLPC   C15 7352   4.469   3.492   5.785 -0.1119  0.1462 -0.4493
   80SLPC  H15A 7353   4.462   3.559   5.700 -0.3838  0.9472  0.1947
   80SLPC  H15B 7354   4.436   3.531   5.880  0.5115 -2.3965  0.9026
   80SLPC  H15C 7355   4.571   3.456   5.790 -0.5260 -1.6110 -2.8046
   80SLPC   C12 7356   4.227   3.421   5.762  0.1489 -0.1159 -0.2564
   80SLPC  H12A 7357   4.169   3.330   5.762  2.4795 -1.7103 -1.8576
   80SLPC  H12B 7358   4.201   3.479   5.675 -3.5940 -2.2944 -0.8002
   80SLPC   C11 7359   4.173   3.504   5.883  0.0354  0.3035  0.5929
   80SLPC  H11A 7360   4.070   3.535   5.854  1.4518  2.8870 -2.1588
   80SLPC  H11B 7361   4.236   3.595   5.892  0.6097  0.1842 -1.8121
   80SLPC     P 7362   4.081   3.329   6.033  0.1447  0.0665  0.1208
   80SLPC   O13 7363   4.063   3.241   5.916  0.1240  0.4727  0.2749
   80SLPC   O14 7364   4.110   3.259   6.159 -0.4503  0.1307  0.0646
   80SLPC   O12 7365   4.184   3.444   6.011  0.6104 -0.7174  0.2657
   80SLPC   O11 7366   3.941   3.402   6.041 -0.0367 -0.2491  0.1833
   80SLPC    C1 7367   3.930   3.529   6.098 -0.0708  0.0529 -0.3832
   80SLPC    HA 7368   4.021   3.593   6.086  1.5855 -1.6758  1.9083
   80SLPC    HB 7369   3.847   3.588   6.054 -0.0939  0.1932 -0.1568
   80SLPC    C2 7370   3.914   3.533   6.254  0.1314 -0.0139 -0.6400
   80SLPC    HS 7371   3.990   3.467   6.301 -0.6468  0.4238  1.3379
   80SLPC   O21 7372   3.784   3.497   6.294  0.1161  0.1906  0.3786
   80SLPC   C21 7373   3.759   3.446   6.417 -0.2783 -0.5956  0.0175
   80SLPC   O22 7374   3.838   3.393   6.493  0.1695  0.0808  0.7062
   80SLPC   C22 7375   3.608   3.485   6.439 -0.0857  0.2086 -0.4217
   80SLPC   H2R 7376   3.587   3.549   6.351  1.7807 -1.5830 -2.2716
   80SLPC   H2S 7377   3.547   3.394   6.423  2.1007 -1.4228  0.0173
   80SLPC    C3 7378   3.946   3.674   6.318  0.5214  0.2375  0.6984
   80SLPC    HX 7379   3.873   3.748   6.280  0.8837  2.6288  4.2101
   80SLPC    HY 7380   4.048   3.706   6.288  1.0060 -0.3866  1.6155
   80SLPC   O31 7381   3.929   3.681   6.462  0.3795 -0.1804 -0.1411
   80SLPC   C31 7382   4.032   3.632   6.530 -0.1958 -0.1708  0.4049
   80SLPC   O32 7383   4.143   3.617   6.475 -0.1391  0.2185 -0.1773
   80SLPC   C32 7384   3.992   3.608   6.675 -0.6352 -0.2363 -0.1468
   80SLPC   H2X 7385   3.891   3.562   6.665 -0.7401  0.4218 -2.9299
   80SLPC   H2Y 7386   3.972   3.710   6.714 -0.2880  0.0614 -0.7221
   80SLPC   C23 7387   3.583   3.549   6.578 -0.4260 -0.5879  0.0960
   80SLPC   H3R 7388   3.640   3.481   6.645 -2.1923 -2.6582 -0.3875
   80SLPC   H3S 7389   3.473   3.544   6.595 -0.1990 -0.5856  1.7841
   80SLPC   C24 7390   3.624   3.693   6.583  0.0269 -0.6505  0.6326
   80SLPC   H4R 7391   3.553   3.751   6.520  0.7765 -1.3819 -0.9428
   80SLPC   H4S 7392   3.726   3.711   6.544  0.3687 -0.3252  1.6336
   80SLPC   C25 7393   3.609   3.763   6.724  0.2816  0.2719  0.0869
   80SLPC   H5R 7394   3.624   3.873   6.721 -0.3804  0.3494 -0.9397
   80SLPC   H5S 7395   3.698   3.735   6.784  0.2520  3.6148  1.9598
   80SLPC   C26 7396   3.479   3.727   6.789  0.0642 -0.6018 -0.2693
   80SLPC   H6R 7397   3.482   3.621   6.824 -0.3986 -0.2089  1.0349
   80SLPC   H6S 7398   3.400   3.730   6.711  0.3658  1.6146 -0.5371
   80SLPC   C27 7399   3.445   3.822   6.905 -0.3306  0.3029 -0.6461
   80SLPC   H7R 7400   3.385   3.908   6.869  2.7063  2.1459 -1.6903
   80SLPC   H7S 7401   3.538   3.859   6.953  0.8601 -2.6912 -0.4133
   80SLPC   C28 7402   3.367   3.738   7.011  0.0409  0.2350  0.0463
   80SLPC   H8R 7403   3.421   3.642   7.024 -1.9034 -1.2443 -2.0053
   80SLPC   H8S 7404   3.263   3.715   6.979 -1.0290  1.8440  2.1015
   80SLPC   C29 7405   3.343   3.802   7.147  0.2042  0.2043 -0.3964
   80SLPC   H9R 7406   3.390   3.901   7.160  2.6141 -1.1273  2.0149
   80SLPC  C210 7407   3.298   3.745   7.260 -0.1613  0.5766  0.1640
   80SLPC  H10R 7408   3.275   3.804   7.350  0.5167  1.3888 -0.1827
   80SLPC  C211 7409   3.265   3.596   7.273  0.2793 -0.2443  0.4100
   80SLPC  H11R 7410   3.311   3.561   7.368 -0.0851 -1.0902  0.2822
   80SLPC  H11S 7411   3.314   3.545   7.187 -1.7071 -1.2793 -0.1635
   80SLPC  C212 7412   3.112   3.588   7.264 -1.1789 -0.4266 -0.4687
   80SLPC  H12R 7413   3.053   3.679   7.244  0.9416  0.7584 -1.8080
   80SLPC  C213 7414   3.042   3.476   7.292  0.5679 -0.3597  0.9224
   80SLPC  H13R 7415   2.936   3.477   7.264  0.7061  1.4268  0.3173
   80SLPC  C214 7416   3.097   3.337   7.324  0.9999 -0.1893 -0.0669
   80SLPC  H14R 7417   3.200   3.313   7.291  2.0103 -0.6746  3.1111
   80SLPC  H14S 7418   3.036   3.272   7.257  0.2319 -1.0896  1.4338
   80SLPC  C215 7419   3.060   3.298   7.464 -0.1917  0.1414 -0.4618
   80SLPC  H15R 7420   3.081   3.191   7.484  0.5268  0.0149 -1.8069
   80SLPC  H15S 7421   2.952   3.315   7.487 -0.2498 -0.7150 -0.0521
   80SLPC  C216 7422   3.155   3.371   7.565 -0.2900 -0.0350 -0.3310
   80SLPC  H16R 7423   3.136   3.480   7.564  0.6126  0.1541  0.7367
   80SLPC  H16S 7424   3.264   3.356   7.548 -0.3106  0.7566 -1.2855
   80SLPC  C217 7425   3.139   3.321   7.714  0.2618 -0.5550  0.0932
   80SLPC  H17R 7426   3.146   3.210   7.718  0.9042 -0.5111  0.4416
   80SLPC  H17S 7427   3.044   3.363   7.753  0.2253  0.5360 -1.1058
   80SLPC  C218 7428   3.240   3.376   7.817  0.3108  0.3720 -0.0217
   80SLPC  H18R 7429   3.348   3.366   7.794  0.5989  0.9343  0.9925
   80SLPC  H18S 7430   3.228   3.326   7.916  1.4768 -1.0548 -0.5644
   80SLPC  H18T 7431   3.229   3.485   7.832  1.4695  0.3755  1.0136
   80SLPC   C33 7432   4.080   3.513   6.749  0.0071  0.1432 -0.5700
   80SLPC   H3X 7433   4.190   3.531   6.738 -0.1139  0.9521 -0.5482
   80SLPC   H3Y 7434   4.064   3.413   6.704  0.0312  0.2978 -0.9341
   80SLPC   C34 7435   4.053   3.501   6.901  0.1725 -0.0077 -0.8903
   80SLPC   H4X 7436   4.087   3.597   6.947  1.8768  0.1827 -2.4546
   80SLPC   H4Y 7437   4.104   3.412   6.943 -1.0108 -0.8196 -1.1180
   80SLPC   C35 7438   3.906   3.472   6.934  0.6732  0.1728  0.0593
   80SLPC   H5X 7439   3.879   3.376   6.885 -0.0289 -1.3211  3.1396
   80SLPC   H5Y 7440   3.846   3.553   6.887  0.8767  1.2558  1.6060
   80SLPC   C36 7441   3.877   3.462   7.083  0.0707 -0.0477 -0.1928
   80SLPC   H6X 7442   3.899   3.561   7.130  0.3518  0.7886 -1.9956
   80SLPC   H6Y 7443   3.951   3.388   7.120 -0.1264 -0.9999 -1.6102
   80SLPC   C37 7444   3.729   3.427   7.115 -0.8721  0.2540 -0.9462
   80SLPC   H7X 7445   3.690   3.341   7.057 -0.5544 -0.2826 -0.3768
   80SLPC   H7Y 7446   3.659   3.507   7.084 -1.8928  0.6395  2.0132
   80SLPC   C38 7447   3.710   3.410   7.269  0.1344 -0.5858  0.7372
   80SLPC   H8X 7448   3.809   3.391   7.316  0.5984 -0.5726 -0.1954
   80SLPC   H8Y 7449   3.649   3.317   7.277 -1.6190  0.4157 -0.3826
   80SLPC   C39 7450   3.647   3.530   7.343 -0.2408  0.1162 -0.7520
   80SLPC   H9X 7451   3.573   3.584   7.280  0.6939 -0.4511 -2.3971
   80SLPC   H9Y 7452   3.732   3.598   7.364 -1.6287  1.6930 -0.0297
   80SLPC  C310 7453   3.578   3.495   7.480  0.0479 -0.3828  0.5266
   80SLPC  H10X 7454   3.529   3.395   7.477  1.4111 -1.1330  1.6344
   80SLPC  H10Y 7455   3.497   3.569   7.497 -1.4641 -1.2403 -2.2878
   80SLPC  C311 7456   3.687   3.488   7.601  0.6637  0.1438 -0.5414
   80SLPC  H11X 7457   3.745   3.583   7.608  0.3042  0.3641 -0.4931
   80SLPC  H11Y 7458   3.755   3.402   7.582 -0.9382 -0.7380 -2.7134
   80SLPC  C312 7459   3.628   3.465   7.737  0.3308  0.1163  0.6939
   80SLPC  H12X 7460   3.575   3.367   7.740  0.6604 -0.0331  2.1476
   80SLPC  H12Y 7461   3.566   3.554   7.762  2.1258  2.4872 -2.5836
   80SLPC  C313 7462   3.741   3.452   7.844  0.5055  0.7409  0.2564
   80SLPC  H13X 7463   3.812   3.536   7.829 -0.2196  0.7594 -4.8835
   80SLPC  H13Y 7464   3.805   3.361   7.845 -0.0760  0.2971 -0.8399
   80SLPC  C314 7465   3.667   3.471   7.971 -0.4206 -0.2776 -0.6254
   80SLPC  H14X 7466   3.590   3.550   7.963 -0.5638 -0.3089  0.3345
   80SLPC  H14Y 7467   3.744   3.503   8.045 -1.6143  1.4137 -0.0659
   80SLPC  C315 7468   3.608   3.340   8.033 -0.5378  0.0190  0.7579
   80SLPC  H15X 7469   3.665   3.249   8.007  0.2669  0.1063  2.1322
   80SLPC  H15Y 7470   3.503   3.324   8.000 -1.1969  1.7239  1.8959
   80SLPC  C316 7471   3.591   3.339   8.176  0.9514  0.1290  0.4240
   80SLPC  H16X 7472   3.508   3.405   8.209 -1.4245 -2.3433 -0.1835
   80SLPC  H16Y 7473   3.685   3.373   8.224  1.1968 -0.0156  0.0513
   80SLPC  C317 7474   3.565   3.199   8.237  0.6865  0.1627  0.4471
   80SLPC  H17X 7475   3.653   3.133   8.220  0.1263 -1.3398  2.8877
   80SLPC  H17Y 7476   3.477   3.156   8.184  1.3736 -1.8665  0.8608
   80SLPC  C318 7477   3.527   3.197   8.382  0.4436  0.0770  0.1896
   80SLPC  H18X 7478   3.418   3.213   8.396  0.7690  1.2377  1.6370
   80SLPC  H18Y 7479   3.579   3.279   8.436  2.1252 -0.7144 -0.1668
   80SLPC  H18Z 7480   3.566   3.102   8.426  1.2525 -0.2651 -1.2053
   81SAPS     N 7481   5.814   6.116  11.259  0.3584 -0.3470  0.5150
   81SAPS   HN1 7482   5.773   6.033  11.307  1.7930 -0.3631  1.7556
   81SAPS   HN2 7483   5.796   6.109  11.156 -1.4285  2.3772  0.5426
   81SAPS   HN3 7484   5.914   6.139  11.269 -0.3372  3.0021  0.8232
   81SAPS   C12 7485   5.738   6.235  11.306 -0.1815  0.3607 -0.1557
   81SAPS  H12A 7486   5.636   6.211  11.279 -0.4784  1.7767 -0.3438
   81SAPS   C13 7487   5.747   6.260  11.456  0.2158 -0.5116  0.0508
   81SAPS  O13A 7488   5.839   6.213  11.526 -0.2652  0.1060  0.2262
   81SAPS  O13B 7489   5.663   6.344  11.500  0.2201 -0.4991  0.1984
   81SAPS   C11 7490   5.775   6.360  11.224 -0.1150  0.1555 -0.3225
   81SAPS  H11A 7491   5.878   6.384  11.256  0.8096 -0.3784 -2.7071
   81SAPS  H11B 7492   5.724   6.453  11.259 -0.0737  0.1502 -0.2462
   81SAPS     P 7493   5.666   6.399  10.987  0.2024  0.1195 -0.2110
   81SAPS   O13 7494   5.535   6.353  11.040  0.4753  0.0349 -0.0536
   81SAPS   O14 7495   5.688   6.542  10.979  0.5538 -1.0797  0.4456
   81SAPS   O12 7496   5.784   6.342  11.083  0.6625 -0.0123 -0.5336
   81SAPS   O11 7497   5.700   6.331  10.846 -0.3008 -0.0542 -0.4763
   81SAPS    C1 7498   5.791   6.391  10.751  0.5452 -0.4154  0.1433
   81SAPS    HA 7499   5.863   6.463  10.794  0.8726 -0.8193  0.2736
   81SAPS    HB 7500   5.849   6.304  10.714  2.4135  0.2372  1.3840
   81SAPS    C2 7501   5.713   6.458  10.632 -0.4595 -0.5251 -0.2550
   81SAPS    HS 7502   5.638   6.533  10.664 -0.6017  0.8165 -3.4454
   81SAPS   O21 7503   5.649   6.354  10.558  0.3817 -0.2548 -0.3042
   81SAPS   C21 7504   5.533   6.395  10.494 -0.2874 -0.0906  0.4592
   81SAPS   O22 7505   5.475   6.500  10.498  0.2746  0.7421  0.1640
   81SAPS   C22 7506   5.487   6.279  10.404  0.2240  0.4573  0.0557
   81SAPS   H2R 7507   5.576   6.253  10.344  0.4198 -0.9698  0.9086
   81SAPS   H2S 7508   5.465   6.198  10.477  0.8898  1.9210  1.9277
   81SAPS    C3 7509   5.803   6.550  10.544 -0.2634 -0.0590 -0.2770
   81SAPS    HX 7510   5.892   6.487  10.521  0.2767 -0.0671  1.6694
   81SAPS    HY 7511   5.843   6.627  10.614 -1.7564  1.1268 -0.6747
   81SAPS   O31 7512   5.754   6.602  10.413  0.1036  0.2602  0.6593
   81SAPS   C31 7513   5.702   6.717  10.421 -0.7306  0.4675  0.1318
   81SAPS   O32 7514   5.701   6.795  10.517  0.6603 -0.0110  0.3374
   81SAPS   C32 7515   5.620   6.743  10.298  1.4795  1.0061 -0.1651
   81SAPS   H2X 7516   5.519   6.703  10.319  1.5771  0.6091 -0.4234
   81SAPS   H2Y 7517   5.651   6.684  10.208  1.0787  1.0503 -0.3333
   81SAPS   C23 7518   5.370   6.322  10.316  0.6004  0.0169  0.4856
   81SAPS   H3R 7519   5.288   6.368  10.375 -0.9191 -0.0551 -1.4507
   81SAPS   H3S 7520   5.335   6.231  10.261  2.0000  1.9356 -4.0542
   81SAPS   C24 7521   5.402   6.425  10.209  0.6784 -0.7190  0.3673
   81SAPS   H4R 7522   5.477   6.398  10.131  0.6066  1.1395 -0.3807
   81SAPS   H4S 7523   5.448   6.513  10.258  1.1750 -0.5009 -0.4682
   81SAPS   C25 7524   5.274   6.462  10.132  0.4894 -0.1063 -0.4585
   81SAPS   H5R 7525   5.190   6.477  10.201  0.7078 -1.5678  0.1611
   81SAPS   C26 7526   5.239   6.436  10.006 -0.0066  0.1949 -0.0373
   81SAPS   H6R 7527   5.141   6.464   9.965  0.7385  2.6120 -0.3486
   81SAPS   C27 7528   5.330   6.377   9.902  0.2920  0.2041 -0.1688
   81SAPS   H7R 7529   5.296   6.276   9.870 -0.5586  1.1613 -2.5752
   81SAPS   H7S 7530   5.432   6.361   9.943 -0.8429 -1.0568  2.3598
   81SAPS   C28 7531   5.323   6.479   9.785 -0.0868  0.5870 -0.7676
   81SAPS   H8R 7532   5.353   6.583   9.805  0.8875  0.4957 -1.6607
   81SAPS   C29 7533   5.289   6.469   9.659 -0.1070  0.1522  0.0242
   81SAPS   H9R 7534   5.289   6.559   9.596 -1.9910 -0.2623 -0.6430
   81SAPS  C210 7535   5.241   6.350   9.576  0.1593  0.2525 -0.6035
   81SAPS  H10R 7536   5.145   6.381   9.530 -0.1910  0.0011 -0.0422
   81SAPS  H10S 7537   5.237   6.256   9.634 -2.2117 -0.1864 -1.3680
   81SAPS  C211 7538   5.353   6.324   9.469  0.3184  0.2443 -0.0019
   81SAPS  H11R 7539   5.452   6.304   9.514  0.7133 -0.5745 -1.1850
   81SAPS  C212 7540   5.335   6.320   9.336  0.1380 -0.0404 -0.2530
   81SAPS  H12R 7541   5.423   6.289   9.279  0.1132 -0.1599 -0.2253
   81SAPS  C213 7542   5.209   6.342   9.257  0.6234  0.1578 -0.0354
   81SAPS  H13R 7543   5.129   6.366   9.330  0.9655  1.2269  0.0055
   81SAPS  H13S 7544   5.169   6.252   9.206  0.3611  0.4104 -0.2719
   81SAPS  C214 7545   5.219   6.459   9.162 -0.7709 -0.7309 -0.1137
   81SAPS  H14R 7546   5.180   6.550   9.211  2.0961 -0.8040  2.6083
   81SAPS  C215 7547   5.243   6.460   9.029  0.9265 -0.7278 -1.0614
   81SAPS  H15R 7548   5.238   6.558   8.979  0.7849  0.6092  1.4149
   81SAPS  C216 7549   5.274   6.343   8.944 -0.1833 -0.4697  0.1250
   81SAPS  H16R 7550   5.213   6.333   8.851  0.9661 -1.0609 -0.5944
   81SAPS  H16S 7551   5.266   6.248   9.001  0.6471 -0.7190 -0.1533
   81SAPS  C217 7552   5.426   6.340   8.895  0.5450 -0.5002 -0.1240
   81SAPS  H17R 7553   5.441   6.238   8.855  0.5188 -0.9146  0.8952
   81SAPS  H17S 7554   5.494   6.335   8.982 -0.2556  0.6324  0.6022
   81SAPS  C218 7555   5.450   6.448   8.788 -0.8640  0.3887  0.1853
   81SAPS  H18R 7556   5.436   6.545   8.840  0.1259  0.2118  0.8251
   81SAPS  H18S 7557   5.366   6.450   8.715 -1.7144 -0.1668  1.1179
   81SAPS  C219 7558   5.591   6.436   8.731 -0.0214 -0.6695 -0.6261
   81SAPS  H19R 7559   5.667   6.433   8.812  1.5738 -0.8938 -2.0694
   81SAPS  H19S 7560   5.602   6.533   8.677  0.1092  0.5618  1.5172
   81SAPS  C220 7561   5.614   6.324   8.633 -0.3406 -0.3276 -0.7801
   81SAPS  H20R 7562   5.547   6.330   8.545 -2.3240 -1.2088  0.5885
   81SAPS  H20S 7563   5.604   6.222   8.676 -0.0957 -0.2296 -0.4839
   81SAPS  H20T 7564   5.716   6.323   8.589 -0.8207  2.0852 -2.1042
   81SAPS   C33 7565   5.597   6.894  10.256  0.1997  0.5167  0.1022
   81SAPS   H3X 7566   5.690   6.950  10.229 -0.5272  1.6736 -0.0681
   81SAPS   H3Y 7567   5.551   6.943  10.344 -1.1230  0.8490 -0.7539
   81SAPS   C34 7568   5.490   6.908  10.151 -0.3189  0.3506 -0.2224
   81SAPS   H4X 7569   5.456   7.014  10.147 -1.0848  0.0846 -2.7453
   81SAPS   H4Y 7570   5.406   6.839  10.172 -0.1609  0.6515  1.5090
   81SAPS   C35 7571   5.548   6.868  10.015  0.1371 -0.6825 -0.6688
   81SAPS   H5X 7572   5.551   6.757  10.010  0.5191 -0.8848  2.3783
   81SAPS   H5Y 7573   5.649   6.913  10.004 -0.4784  0.4130 -2.2913
   81SAPS   C36 7574   5.448   6.909   9.910  0.2090 -0.1695  0.6056
   81SAPS   H6X 7575   5.450   7.020   9.906 -2.4832 -0.0596  0.4159
   81SAPS   H6Y 7576   5.340   6.889   9.930 -0.2539  0.0249 -1.3956
   81SAPS   C37 7577   5.493   6.851   9.781  0.4705  0.0987  0.9609
   81SAPS   H7X 7578   5.526   6.746   9.790  1.0592  0.3726  2.4629
   81SAPS   H7Y 7579   5.583   6.912   9.758 -0.1978  0.5252 -0.6223
   81SAPS   C38 7580   5.398   6.872   9.668  0.1848  0.0220  0.0550
   81SAPS   H8X 7581   5.352   6.974   9.665  0.3239  0.0652 -0.8980
   81SAPS   H8Y 7582   5.309   6.809   9.691  1.8670 -1.5827  2.8257
   81SAPS   C39 7583   5.448   6.814   9.534  0.4495 -0.0807  0.4376
   81SAPS   H9X 7584   5.486   6.710   9.541 -1.2549 -0.7970 -0.3185
   81SAPS   H9Y 7585   5.533   6.875   9.497  0.2099  0.1937  0.3261
   81SAPS  C310 7586   5.333   6.828   9.429  0.2228 -0.4330 -0.5871
   81SAPS  H10X 7587   5.304   6.935   9.419  2.0405  0.2706  0.9428
   81SAPS  H10Y 7588   5.253   6.770   9.478 -0.0968 -0.4428 -1.1178
   81SAPS  C311 7589   5.370   6.747   9.306  0.0585  0.0989 -0.6083
   81SAPS  H11X 7590   5.282   6.719   9.244  0.5058 -1.3455 -0.6181
   81SAPS  H11Y 7591   5.391   6.641   9.333  1.3224  0.5365  0.1979
   81SAPS  C312 7592   5.462   6.809   9.206  0.3614  0.1778  0.8060
   81SAPS  H12X 7593   5.543   6.864   9.259 -0.2896  2.9816 -0.8948
   81SAPS  H12Y 7594   5.408   6.900   9.170 -0.8351 -0.6528  0.4379
   81SAPS  C313 7595   5.513   6.708   9.108  0.6540  0.4929 -0.3944
   81SAPS  H13X 7596   5.447   6.689   9.021  0.0284  1.3844 -0.1209
   81SAPS  H13Y 7597   5.531   6.609   9.156 -0.6270  0.0800 -0.7373
   81SAPS  C314 7598   5.635   6.751   9.035 -0.2874 -0.0320  0.2396
   81SAPS  H14X 7599   5.678   6.668   8.974 -1.6894  0.3128 -1.2905
   81SAPS  H14Y 7600   5.720   6.759   9.106 -0.2856 -2.8376  0.6762
   81SAPS  C315 7601   5.621   6.875   8.949  0.1205  0.0774  1.3340
   81SAPS  H15X 7602   5.555   6.946   9.003 -3.0275 -2.0747  0.5974
   81SAPS  H15Y 7603   5.559   6.844   8.862  1.3115 -1.0362  0.8402
   81SAPS  C316 7604   5.747   6.935   8.891 -0.6371  0.8508  0.2700
   81SAPS  H16X 7605   5.791   6.864   8.818  1.7537  2.1645  0.3534
   81SAPS  H16Y 7606   5.818   6.952   8.974  0.1118 -0.4279 -0.0871
   81SAPS  C317 7607   5.716   7.067   8.816 -0.0259  0.2486 -0.1527
   81SAPS  H17X 7608   5.641   7.128   8.871 -0.1726  1.6685 -1.8069
   81SAPS  H17Y 7609   5.665   7.043   8.720  1.4814 -0.5546 -0.7971
   81SAPS  C318 7610   5.835   7.160   8.786 -0.1736  0.3323 -0.0002
   81SAPS  H18X 7611   5.875   7.202   8.882  3.1731  0.1371 -1.1717
   81SAPS  H18Y 7612   5.810   7.244   8.718  0.6300 -1.2632 -2.3597
   81SAPS  H18Z 7613   5.918   7.108   8.735 -0.4555 -0.1486  0.0309
   82SAPS     N 7614   4.216   4.605  10.607  0.3534  0.7482  0.0270
   82SAPS   HN1 7615   4.150   4.684  10.620 -0.3396  0.1123  0.4812
   82SAPS   HN2 7616   4.231   4.576  10.509 -0.1209  1.1557 -0.1710
   82SAPS   HN3 7617   4.196   4.518  10.661  1.1368  1.0185  0.7689
   82SAPS   C12 7618   4.339   4.663  10.674 -0.6413 -0.2552  0.5225
   82SAPS  H12A 7619   4.370   4.753  10.623 -1.2916  0.3254  1.1501
   82SAPS   C13 7620   4.307   4.719  10.814 -0.3678  0.5310  0.0070
   82SAPS  O13A 7621   4.189   4.693  10.862 -0.0948  0.2530  1.0891
   82SAPS  O13B 7622   4.401   4.764  10.886 -0.0226 -0.1229  0.5030
   82SAPS   C11 7623   4.456   4.557  10.676  0.8540 -0.3088 -0.7679
   82SAPS  H11A 7624   4.441   4.501  10.581 -3.7065 -2.8803  1.1077
   82SAPS  H11B 7625   4.437   4.483  10.757 -1.0750 -0.2049 -1.0687
   82SAPS     P 7626   4.711   4.544  10.646  0.3206 -0.4458  0.0251
   82SAPS   O13 7627   4.824   4.604  10.714 -0.8418 -0.0887 -0.2406
   82SAPS   O14 7628   4.698   4.397  10.647  0.5425 -0.2949  0.0898
   82SAPS   O12 7629   4.581   4.618  10.692  0.1565 -0.0372  0.0831
   82SAPS   O11 7630   4.713   4.593  10.501 -0.0513 -0.5506 -0.2218
   82SAPS    C1 7631   4.673   4.722  10.460 -0.2337 -0.1875  0.0298
   82SAPS    HA 7632   4.568   4.729  10.494 -0.7519  0.6775 -1.6541
   82SAPS    HB 7633   4.733   4.801  10.511  0.7130 -0.6958 -0.2643
   82SAPS    C2 7634   4.661   4.741  10.307 -0.1037  0.7138  0.7245
   82SAPS    HS 7635   4.752   4.799  10.283 -0.2919  1.5301  1.9023
   82SAPS   O21 7636   4.540   4.811  10.281 -0.4817  0.0231  0.8457
   82SAPS   C21 7637   4.548   4.938  10.309 -0.2155 -0.0337 -0.5890
   82SAPS   O22 7638   4.636   4.986  10.382  0.4932 -0.1755  0.0857
   82SAPS   C22 7639   4.429   5.011  10.248  0.4180  0.7951  0.6296
   82SAPS   H2R 7640   4.367   4.955  10.175  0.3746  3.6604 -1.7543
   82SAPS   H2S 7641   4.353   5.035  10.326 -0.0520 -0.4991  0.5869
   82SAPS    C3 7642   4.658   4.596  10.234 -0.5182 -0.7575  0.8041
   82SAPS    HX 7643   4.589   4.528  10.289 -2.2521  0.6662  0.4810
   82SAPS    HY 7644   4.758   4.552  10.253  1.1312  2.7985  1.0388
   82SAPS   O31 7645   4.630   4.620  10.093  0.0917 -0.2556 -0.9710
   82SAPS   C31 7646   4.502   4.605  10.065 -0.6464 -0.0415  0.0697
   82SAPS   O32 7647   4.418   4.537  10.128 -0.8561 -0.1575 -0.0540
   82SAPS   C32 7648   4.462   4.676   9.939 -0.2969  0.7876  0.0944
   82SAPS   H2X 7649   4.497   4.782   9.938  0.4771  0.6080  2.3661
   82SAPS   H2Y 7650   4.351   4.684   9.940 -0.2934  2.6172 -2.6838
   82SAPS   C23 7651   4.466   5.140  10.182  0.1274 -0.1181 -0.4014
   82SAPS   H3R 7652   4.554   5.187  10.232 -0.4058  0.4658  0.0046
   82SAPS   H3S 7653   4.390   5.221  10.185  0.2105 -0.0313 -0.6030
   82SAPS   C24 7654   4.494   5.145  10.034  0.0114 -1.0503 -0.0362
   82SAPS   H4R 7655   4.488   5.249   9.997  0.2545 -0.6167  1.0822
   82SAPS   H4S 7656   4.406   5.098   9.985 -1.2393 -0.4463  1.5181
   82SAPS   C25 7657   4.615   5.063   9.982 -0.3539  0.1929 -0.0519
   82SAPS   H5R 7658   4.680   5.010  10.053  2.7335  1.6696 -1.5854
   82SAPS   C26 7659   4.663   5.073   9.861  0.4054  0.4244 -0.1293
   82SAPS   H6R 7660   4.743   5.005   9.828  0.4890  0.7593 -0.6392
   82SAPS   C27 7661   4.600   5.156   9.742  0.1629  0.3869 -0.2339
   82SAPS   H7R 7662   4.687   5.192   9.684 -1.4010  4.1638 -0.5201
   82SAPS   H7S 7663   4.546   5.248   9.774 -1.4851 -0.8988  0.8590
   82SAPS   C28 7664   4.495   5.076   9.659  0.1852 -0.0519  0.1576
   82SAPS   H8R 7665   4.404   5.057   9.718  0.6604 -1.8836  0.3531
   82SAPS   C29 7666   4.495   5.035   9.528 -0.9135  0.4364  0.1880
   82SAPS   H9R 7667   4.403   4.993   9.484 -0.3452  1.1940 -1.8301
   82SAPS  C210 7668   4.609   5.050   9.427  0.1076  0.4556  0.0458
   82SAPS  H10R 7669   4.625   4.946   9.393  1.5791  0.5449  0.4132
   82SAPS  H10S 7670   4.699   5.089   9.478 -0.7383  3.5754 -0.6008
   82SAPS  C211 7671   4.581   5.148   9.309  0.0774 -0.1530  0.0091
   82SAPS  H11R 7672   4.566   5.249   9.348  1.6510  0.6638 -1.3659
   82SAPS  C212 7673   4.561   5.123   9.181  0.5099  0.3671  0.2640
   82SAPS  H12R 7674   4.505   5.195   9.119  1.4705  0.6597 -0.2922
   82SAPS  C213 7675   4.565   4.983   9.120  0.0800 -0.2975  0.3293
   82SAPS  H13R 7676   4.574   4.910   9.203 -2.1422  0.1552  1.0373
   82SAPS  H13S 7677   4.658   4.970   9.060  0.7647  1.6406  0.8866
   82SAPS  C214 7678   4.444   4.949   9.031 -0.6192 -0.2396  0.2355
   82SAPS  H14R 7679   4.368   4.880   9.071  2.0687 -2.6156  1.6913
   82SAPS  C215 7680   4.432   4.992   8.906  0.0204 -1.0195  0.3680
   82SAPS  H15R 7681   4.336   4.970   8.857 -0.2696 -0.3612  0.6259
   82SAPS  C216 7682   4.516   5.082   8.819  0.1157 -0.6116 -0.2625
   82SAPS  H16R 7683   4.617   5.080   8.865  0.2157 -4.4387 -0.3155
   82SAPS  H16S 7684   4.478   5.186   8.816  1.3134 -0.1882 -1.2140
   82SAPS  C217 7685   4.515   5.036   8.673  0.8109  0.2170 -0.4276
   82SAPS  H17R 7686   4.411   5.031   8.636  1.3575  0.0303 -1.9916
   82SAPS  H17S 7687   4.564   4.937   8.670  0.7083  0.1944 -1.8635
   82SAPS  C218 7688   4.599   5.102   8.571 -0.4003  0.1496  0.1075
   82SAPS  H18R 7689   4.616   5.030   8.488  1.0070 -1.2470  1.5535
   82SAPS  H18S 7690   4.693   5.137   8.619 -0.1231 -0.6560  0.1506
   82SAPS  C219 7691   4.532   5.233   8.519  0.3498  0.0735  0.4005
   82SAPS  H19R 7692   4.506   5.305   8.600 -2.0240  3.1213 -2.7673
   82SAPS  H19S 7693   4.432   5.199   8.483  0.1991 -2.0016  2.5026
   82SAPS  C220 7694   4.598   5.300   8.402  0.1537 -1.0193 -0.3859
   82SAPS  H20R 7695   4.532   5.384   8.372 -0.8958 -2.0385 -1.0186
   82SAPS  H20S 7696   4.592   5.243   8.307 -0.3890  0.3587 -1.2023
   82SAPS  H20T 7697   4.700   5.340   8.422 -0.6757  0.3447  1.4142
   82SAPS   C33 7698   4.505   4.607   9.806  0.3577 -0.0031  0.5529
   82SAPS   H3X 7699   4.453   4.509   9.797  0.3923 -0.0083  0.4000
   82SAPS   H3Y 7700   4.610   4.571   9.810  0.9499  1.2403 -1.8296
   82SAPS   C34 7701   4.469   4.686   9.673 -0.4948  0.1809  0.5035
   82SAPS   H4X 7702   4.540   4.772   9.661 -0.0919 -0.0433  1.1742
   82SAPS   H4Y 7703   4.364   4.722   9.673 -0.3910  0.4984  1.0037
   82SAPS   C35 7704   4.491   4.589   9.550 -0.6727  0.3588 -0.3099
   82SAPS   H5X 7705   4.417   4.506   9.554  0.5447 -0.7185  1.9349
   82SAPS   H5Y 7706   4.592   4.547   9.567 -0.4026  1.4156  0.8646
   82SAPS   C36 7707   4.479   4.655   9.420  0.7381  0.3642 -0.4247
   82SAPS   H6X 7708   4.536   4.750   9.413  0.7775  0.2262 -3.3953
   82SAPS   H6Y 7709   4.376   4.695   9.408  0.6995  0.1103 -0.9725
   82SAPS   C37 7710   4.530   4.570   9.307 -0.6634  0.4194 -0.7247
   82SAPS   H7X 7711   4.545   4.472   9.356  3.7100  1.4068  0.3771
   82SAPS   H7Y 7712   4.636   4.595   9.286 -0.3129  0.5620  1.0904
   82SAPS   C38 7713   4.441   4.570   9.182 -0.2309 -0.7388 -0.9762
   82SAPS   H8X 7714   4.413   4.676   9.163 -1.3316 -1.1971 -2.0416
   82SAPS   H8Y 7715   4.348   4.514   9.205  0.0820 -0.0035  2.7449
   82SAPS   C39 7716   4.514   4.519   9.052  0.4269 -0.3917 -0.1633
   82SAPS   H9X 7717   4.513   4.408   9.048 -0.8277 -0.3915 -0.2573
   82SAPS   H9Y 7718   4.620   4.550   9.050 -0.1745  1.9280  0.7486
   82SAPS  C310 7719   4.446   4.569   8.924 -0.1800  0.3757  0.2787
   82SAPS  H10X 7720   4.445   4.680   8.920  0.6094  0.4577  1.6942
   82SAPS  H10Y 7721   4.339   4.541   8.925 -0.9666  2.9657 -1.7455
   82SAPS  C311 7722   4.514   4.510   8.807 -0.0014  0.4150  0.3036
   82SAPS  H11X 7723   4.558   4.410   8.830  0.8617  1.1946  2.1954
   82SAPS  H11Y 7724   4.598   4.576   8.777  0.0848  0.6448  1.0329
   82SAPS  C312 7725   4.422   4.509   8.683 -0.5747  0.0353  0.0214
   82SAPS  H12X 7726   4.324   4.463   8.709  1.0091 -3.2583  0.7307
   82SAPS  H12Y 7727   4.458   4.435   8.609 -1.4049 -0.3528 -0.0019
   82SAPS  C313 7728   4.408   4.646   8.614 -0.9062 -0.0779 -0.7372
   82SAPS  H13X 7729   4.511   4.685   8.594 -0.8001 -0.9225 -1.9699
   82SAPS  H13Y 7730   4.343   4.704   8.682  0.1353 -0.6467  0.7881
   82SAPS  C314 7731   4.336   4.652   8.476  0.6502 -0.4818 -0.8758
   82SAPS  H14X 7732   4.234   4.609   8.491  1.3581 -1.7717  0.5790
   82SAPS  H14Y 7733   4.391   4.583   8.409  1.3834 -1.5565  0.7537
   82SAPS  C315 7734   4.321   4.790   8.414 -0.9917  0.1135 -0.3118
   82SAPS  H15X 7735   4.416   4.844   8.399  0.1682 -1.2558  1.6567
   82SAPS  H15Y 7736   4.270   4.855   8.489  0.9162  0.6193  0.5948
   82SAPS  C316 7737   4.239   4.785   8.286  0.1601  0.2823 -0.0751
   82SAPS  H16X 7738   4.179   4.876   8.264  0.2409  0.1198 -1.0349
   82SAPS  H16Y 7739   4.168   4.700   8.295 -1.9782  1.8737 -0.8472
   82SAPS  C317 7740   4.318   4.753   8.157  0.3137 -0.0103 -0.5249
   82SAPS  H17X 7741   4.393   4.676   8.185  1.2542  1.0719  0.0228
   82SAPS  H17Y 7742   4.372   4.845   8.127 -1.0654 -0.0061 -3.3496
   82SAPS  C318 7743   4.237   4.705   8.038  0.3690  0.3990 -0.3416
   82SAPS  H18X 7744   4.286   4.725   7.940  4.2580 -1.1254  1.0678
   82SAPS  H18Y 7745   4.138   4.755   8.040  0.5998  0.8385  0.7743
   82SAPS  H18Z 7746   4.205   4.599   8.045  0.6495  0.4326  2.5884
   83SAPS     N 7747   5.467   0.550  10.961  0.1491  0.2859 -0.0763
   83SAPS   HN1 7748   5.430   0.575  11.055  0.7434  1.2385 -0.0812
   83SAPS   HN2 7749   5.413   0.610  10.897  0.4678 -0.5213 -1.1311
   83SAPS   HN3 7750   5.447   0.448  10.953  0.8191  0.0637  0.8761
   83SAPS   C12 7751   5.611   0.580  10.949 -0.5042 -0.0899  0.2050
   83SAPS  H12A 7752   5.646   0.664  11.007  2.9810 -0.4930 -1.1081
   83SAPS   C13 7753   5.704   0.466  11.001 -0.2642  0.0702  0.2192
   83SAPS  O13A 7754   5.661   0.380  11.081 -0.1680 -0.2210 -0.2927
   83SAPS  O13B 7755   5.827   0.479  10.983 -0.5540  0.7014  0.3096
   83SAPS   C11 7756   5.652   0.611  10.803  0.2216 -0.2083 -0.9090
   83SAPS  H11A 7757   5.639   0.524  10.734 -1.5144 -0.1344 -0.7168
   83SAPS  H11B 7758   5.760   0.629  10.784  0.5075 -0.6616  0.1919
   83SAPS     P 7759   5.617   0.874  10.755  0.1770  0.0619  0.3455
   83SAPS   O13 7760   5.486   0.949  10.746 -0.1100 -0.0369  0.0573
   83SAPS   O14 7761   5.701   0.920  10.870 -0.2514 -0.0825  0.2740
   83SAPS   O12 7762   5.582   0.725  10.750 -0.0770  0.2745 -0.4935
   83SAPS   O11 7763   5.693   0.893  10.619 -0.5556  0.1579 -0.4974
   83SAPS    C1 7764   5.840   0.879  10.601  1.0723 -0.2533  0.1629
   83SAPS    HA 7765   5.874   0.983  10.584 -2.2944  0.9269 -0.0309
   83SAPS    HB 7766   5.897   0.838  10.687 -0.8017 -0.4084  1.4009
   83SAPS    C2 7767   5.881   0.799  10.475 -0.3059 -0.5913 -0.9843
   83SAPS    HS 7768   5.988   0.820  10.453 -0.3614  0.8353  0.0086
   83SAPS   O21 7769   5.806   0.840  10.360  0.5962  0.7776 -0.5166
   83SAPS   C21 7770   5.814   0.964  10.316  0.4682  0.7862 -0.2241
   83SAPS   O22 7771   5.896   1.045  10.352 -0.5156 -0.0722 -0.2171
   83SAPS   C22 7772   5.709   0.991  10.204  0.8144 -0.5437 -0.4182
   83SAPS   H2R 7773   5.608   0.980  10.250  1.2939 -0.4271  0.6864
   83SAPS   H2S 7774   5.734   1.085  10.152 -0.9740  0.1112 -0.1765
   83SAPS    C3 7775   5.869   0.647  10.508 -0.2036  0.3787  0.2003
   83SAPS    HX 7776   5.759   0.629  10.514  0.0980 -1.5992  0.3333
   83SAPS    HY 7777   5.907   0.631  10.611  0.1252 -0.6793 -0.0752
   83SAPS   O31 7778   5.938   0.567  10.414 -0.4330 -0.5724  0.5493
   83SAPS   C31 7779   5.944   0.436  10.430 -0.9887  0.0003  0.1000
   83SAPS   O32 7780   5.894   0.377  10.522  0.1350  0.4002 -0.8923
   83SAPS   C32 7781   6.014   0.378  10.302  0.3369 -0.2009  0.6164
   83SAPS   H2X 7782   6.090   0.454  10.273 -0.1807  0.8367  1.8773
   83SAPS   H2Y 7783   5.940   0.383  10.219 -0.1921  0.8558  1.1295
   83SAPS   C23 7784   5.724   0.884  10.090  0.0344 -0.1464  1.2715
   83SAPS   H3R 7785   5.730   0.786  10.142  0.4051 -0.8210  0.0027
   83SAPS   H3S 7786   5.817   0.902  10.033 -0.3465  2.8621  1.4179
   83SAPS   C24 7787   5.604   0.887   9.990 -0.3034 -0.2826  0.3707
   83SAPS   H4R 7788   5.599   0.993   9.956 -0.9728 -0.3812  0.1646
   83SAPS   H4S 7789   5.510   0.875  10.047  0.4897  0.5514  1.9348
   83SAPS   C25 7790   5.624   0.797   9.875 -0.6123 -0.5079 -0.2715
   83SAPS   H5R 7791   5.620   0.694   9.913  2.3453 -1.2677 -1.7247
   83SAPS   C26 7792   5.651   0.822   9.747 -0.1363  0.1090 -0.6145
   83SAPS   H6R 7793   5.675   0.740   9.677 -0.3467 -0.8883  0.4496
   83SAPS   C27 7794   5.668   0.956   9.682 -0.2050 -0.0908  0.0067
   83SAPS   H7R 7795   5.751   0.941   9.610 -2.5373 -1.7558 -2.5563
   83SAPS   H7S 7796   5.707   1.040   9.744 -1.1297  3.0857 -3.3929
   83SAPS   C28 7797   5.549   1.003   9.609  0.3387 -0.4949  0.4021
   83SAPS   H8R 7798   5.468   1.038   9.675 -1.3772  0.7319 -2.1623
   83SAPS   C29 7799   5.543   1.021   9.476 -0.2524 -0.1823 -0.6899
   83SAPS   H9R 7800   5.445   1.057   9.441 -0.9785 -1.3816  0.0515
   83SAPS  C210 7801   5.646   0.982   9.377 -0.4247  0.3059 -0.1725
   83SAPS  H10R 7802   5.748   1.019   9.401 -0.7241  1.4028 -0.5421
   83SAPS  H10S 7803   5.628   1.037   9.283 -2.2960 -0.3665 -0.2420
   83SAPS  C211 7804   5.642   0.827   9.358 -0.2730 -0.6213  0.8544
   83SAPS  H11R 7805   5.669   0.772   9.449  0.9819  0.4260  1.1512
   83SAPS  C212 7806   5.608   0.760   9.243 -0.4051 -0.9115 -0.2163
   83SAPS  H12R 7807   5.604   0.651   9.260  0.2809 -0.9213 -0.1065
   83SAPS  C213 7808   5.572   0.820   9.111 -0.3476 -0.4692 -0.6652
   83SAPS  H13R 7809   5.668   0.845   9.059  0.2498 -1.5577 -0.1098
   83SAPS  H13S 7810   5.506   0.909   9.119 -0.7422 -0.5603 -2.4374
   83SAPS  C214 7811   5.484   0.723   9.032  0.3624  0.7257  0.4792
   83SAPS  H14R 7812   5.400   0.682   9.089  2.7572 -3.7477  1.2359
   83SAPS  C215 7813   5.502   0.674   8.908  0.1787  0.0356 -0.4188
   83SAPS  H15R 7814   5.426   0.608   8.866  0.5355 -0.1579 -0.7613
   83SAPS  C216 7815   5.623   0.704   8.819 -0.3554  0.5980 -0.0626
   83SAPS  H16R 7816   5.695   0.621   8.808  0.1382  1.1021 -0.7234
   83SAPS  H16S 7817   5.691   0.773   8.873  0.0704  0.0430  0.1117
   83SAPS  C217 7818   5.588   0.766   8.682 -0.0096  0.4375  0.5640
   83SAPS  H17R 7819   5.530   0.858   8.704 -1.3997 -0.1089 -0.6798
   83SAPS  H17S 7820   5.512   0.701   8.632  2.5419 -1.7403 -0.7422
   83SAPS  C218 7821   5.711   0.784   8.587 -0.1232  0.2533  0.5244
   83SAPS  H18R 7822   5.802   0.815   8.644  0.3594  1.9271 -1.0602
   83SAPS  H18S 7823   5.693   0.867   8.516  0.5017  0.2563  0.3604
   83SAPS  C219 7824   5.759   0.655   8.508  0.8637 -0.3159  0.5980
   83SAPS  H19R 7825   5.666   0.622   8.458 -0.9850  0.7284  3.1244
   83SAPS  H19S 7826   5.800   0.580   8.579  1.6503 -0.4967 -0.0334
   83SAPS  C220 7827   5.864   0.690   8.396  0.0063  0.3913 -0.0724
   83SAPS  H20R 7828   5.893   0.597   8.342 -2.5438 -1.6366  1.7652
   83SAPS  H20S 7829   5.952   0.732   8.449 -0.3759  0.7790  0.2516
   83SAPS  H20T 7830   5.833   0.782   8.342  1.8834  0.6868 -0.7276
   83SAPS   C33 7831   6.052   0.230  10.319  0.3649  0.3926 -0.1398
   83SAPS   H3X 7832   5.965   0.166  10.342 -0.2160  1.2151  0.0029
   83SAPS   H3Y 7833   6.119   0.211  10.405 -0.3909  1.5502  0.7310
   83SAPS   C34 7834   6.108   0.185  10.186  0.0143  0.1366  0.1628
   83SAPS   H4X 7835   6.202   0.242  10.173 -0.4828  0.4615 -2.6148
   83SAPS   H4Y 7836   6.043   0.214  10.100  1.7520 -1.4788 -1.8022
   83SAPS   C35 7837   6.122   0.030  10.176  0.1274  0.0399  0.4525
   83SAPS   H5X 7838   6.155  -0.014  10.273  1.0426 -4.3705 -1.6068
   83SAPS   H5Y 7839   6.195   0.009  10.095  0.4745 -0.9639  1.0033
   83SAPS   C36 7840   5.994  -0.038  10.126  0.1591 -0.4789  0.9073
   83SAPS   H6X 7841   5.956   0.026  10.043  2.1702  1.1636  1.1711
   83SAPS   H6Y 7842   5.923  -0.032  10.211  1.9660 -0.5511  2.4765
   83SAPS   C37 7843   6.017  -0.186  10.091  0.4000 -0.3888  0.1804
   83SAPS   H7X 7844   6.072  -0.239  10.172  3.6373 -0.0924 -1.6727
   83SAPS   H7Y 7845   6.078  -0.194   9.999  0.4148 -1.4071  0.2715
   83SAPS   C38 7846   5.884  -0.243  10.053 -0.0893  0.4034 -0.1362
   83SAPS   H8X 7847   5.839  -0.178   9.975 -1.6985 -0.3285  0.1451
   83SAPS   H8Y 7848   5.807  -0.244  10.133  1.2684 -1.1966  1.2399
   83SAPS   C39 7849   5.884  -0.393  10.014 -0.2379 -0.5292 -0.4481
   83SAPS   H9X 7850   5.934  -0.442  10.100 -0.4424 -0.5375 -0.3329
   83SAPS   H9Y 7851   5.947  -0.406   9.923 -0.3286 -0.0320 -0.5870
   83SAPS  C310 7852   5.746  -0.449  10.001 -0.7906  0.2314  0.7153
   83SAPS  H10X 7853   5.672  -0.404   9.932  0.1799  2.1602  0.8575
   83SAPS  H10Y 7854   5.703  -0.449  10.103  0.5487 -0.9284  1.3197
   83SAPS  C311 7855   5.759  -0.605   9.966  0.7220 -0.1854 -0.8746
   83SAPS  H11X 7856   5.812  -0.661  10.046  0.8349 -0.5222 -1.1802
   83SAPS  H11Y 7857   5.829  -0.601   9.880  2.8107  0.4410  0.7694
   83SAPS  C312 7858   5.625  -0.671   9.921  0.3814 -0.2460  0.1004
   83SAPS  H12X 7859   5.569  -0.620   9.840 -1.4392  0.1032  1.5286
   83SAPS  H12Y 7860   5.564  -0.675  10.014  0.1758  0.5274  0.0056
   83SAPS  C313 7861   5.641  -0.820   9.881 -0.1627  0.1814 -0.7681
   83SAPS  H13X 7862   5.536  -0.854   9.875 -1.0375  2.7508 -1.2290
   83SAPS  H13Y 7863   5.689  -0.883   9.959  1.2998  1.7635 -0.3083
   83SAPS  C314 7864   5.707  -0.867   9.753  0.0124 -0.1471  0.4239
   83SAPS  H14X 7865   5.712  -0.978   9.751 -1.6381 -0.2411 -1.0466
   83SAPS  H14Y 7866   5.810  -0.827   9.738 -0.5744  0.8045 -1.3450
   83SAPS  C315 7867   5.630  -0.821   9.638 -0.0391  0.2237  0.3976
   83SAPS  H15X 7868   5.636  -0.710   9.646 -2.1995  0.6117 -2.1729
   83SAPS  H15Y 7869   5.528  -0.863   9.649  0.1793 -0.0806  1.4003
   83SAPS  C316 7870   5.677  -0.872   9.500  0.3142 -0.1093 -0.5724
   83SAPS  H16X 7871   5.594  -0.858   9.428 -1.1136 -0.9782  0.8468
   83SAPS  H16Y 7872   5.679  -0.983   9.511  2.0458 -0.2017 -1.4063
   83SAPS  C317 7873   5.815  -0.834   9.443 -0.1759 -0.2746  0.4144
   83SAPS  H17X 7874   5.885  -0.887   9.510  0.3306  0.5346  0.5480
   83SAPS  H17Y 7875   5.828  -0.725   9.462  0.5590 -0.0823 -0.9830
   83SAPS  C318 7876   5.827  -0.873   9.296 -0.2603  0.0602  0.0127
   83SAPS  H18X 7877   5.747  -0.822   9.238 -0.6185  0.1091  0.5466
   83SAPS  H18Y 7878   5.821  -0.983   9.281 -0.2997 -0.0441  0.7962
   83SAPS  H18Z 7879   5.930  -0.850   9.260  0.5702 -0.8590  1.6817
   84SAPS     N 7880   6.505   0.584  11.052 -0.1242  0.3349  0.3951
   84SAPS   HN1 7881   6.436   0.581  11.130  0.0308 -1.7812  0.4915
   84SAPS   HN2 7882   6.512   0.678  11.006  0.8095  1.9179  3.4790
   84SAPS   HN3 7883   6.475   0.503  10.994  0.9835 -1.6135  2.3920
   84SAPS   C12 7884   6.635   0.537  11.103 -0.6836  0.2266 -0.0965
   84SAPS  H12A 7885   6.663   0.609  11.179  1.6144 -0.4946 -0.1752
   84SAPS   C13 7886   6.629   0.398  11.174  0.3625 -0.0087  0.0299
   84SAPS  O13A 7887   6.525   0.372  11.234  0.6072  0.4534 -0.0410
   84SAPS  O13B 7888   6.741   0.353  11.216  0.2039 -0.5335  0.0754
   84SAPS   C11 7889   6.742   0.540  10.991 -0.3930  0.4262  0.0526
   84SAPS  H11A 7890   6.710   0.473  10.909  1.0753 -0.3352  0.0793
   84SAPS  H11B 7891   6.842   0.506  11.026 -0.5408  1.1332  1.2496
   84SAPS     P 7892   6.878   0.737  10.894 -0.0753 -0.0465  0.2802
   84SAPS   O13 7893   6.858   0.878  10.914 -0.3899 -0.0291 -0.0512
   84SAPS   O14 7894   6.994   0.666  10.959  0.4774 -0.7493 -0.1791
   84SAPS   O12 7895   6.755   0.670  10.948  0.0474 -0.2614  0.6864
   84SAPS   O11 7896   6.882   0.712  10.740 -0.1186  0.0499  0.1645
   84SAPS    C1 7897   6.763   0.690  10.656  0.2383 -0.4245  0.3927
   84SAPS    HA 7898   6.690   0.616  10.695 -1.0582  0.2613 -0.6513
   84SAPS    HB 7899   6.712   0.788  10.647  1.8201  0.5511  1.4499
   84SAPS    C2 7900   6.802   0.638  10.515 -0.2895  0.0272  0.2724
   84SAPS    HS 7901   6.884   0.709  10.488  1.5236 -1.9566  0.2632
   84SAPS   O21 7902   6.685   0.648  10.430  0.3940 -0.6988 -0.1876
   84SAPS   C21 7903   6.714   0.670  10.303  0.1366  0.1698 -0.3216
   84SAPS   O22 7904   6.822   0.658  10.251 -0.2685 -0.0236  0.4884
   84SAPS   C22 7905   6.583   0.709  10.230 -0.5760  0.7601  0.8233
   84SAPS   H2R 7906   6.509   0.637  10.271 -1.2842  0.1894 -1.3522
   84SAPS   H2S 7907   6.552   0.813  10.253  0.3742  0.7460  2.3238
   84SAPS    C3 7908   6.861   0.498  10.522  0.4174  0.2039  0.1523
   84SAPS    HX 7909   6.791   0.427  10.571  0.0333  0.1904 -0.4124
   84SAPS    HY 7910   6.948   0.504  10.592  2.2331  2.4531 -2.0732
   84SAPS   O31 7911   6.895   0.430  10.406 -0.6785  0.0893 -0.0862
   84SAPS   C31 7912   7.016   0.448  10.348  0.1209 -0.0046 -0.2202
   84SAPS   O32 7913   7.105   0.521  10.391  0.0836 -0.0190 -0.1262
   84SAPS   C32 7914   7.031   0.346  10.235  0.0309 -0.1093 -0.4107
   84SAPS   H2X 7915   6.928   0.321  10.201 -0.4389  1.6808 -0.4024
   84SAPS   H2Y 7916   7.071   0.246  10.262 -0.9546 -0.6185 -0.7508
   84SAPS   C23 7917   6.589   0.704  10.083  0.3278  0.2363  0.6600
   84SAPS   H3R 7918   6.649   0.783  10.031 -1.3725  0.1278 -1.6234
   84SAPS   H3S 7919   6.491   0.716  10.033  1.0746 -1.6298 -1.4409
   84SAPS   C24 7920   6.635   0.569  10.009 -0.0972  0.0248  0.3031
   84SAPS   H4R 7921   6.733   0.532  10.046 -0.3553 -0.7722  0.2141
   84SAPS   H4S 7922   6.652   0.600   9.904 -3.6235  1.9244  0.1400
   84SAPS   C25 7923   6.525   0.467  10.019  0.1747  0.0288 -0.1217
   84SAPS   H5R 7924   6.511   0.419  10.116 -1.0497  1.0074  0.2092
   84SAPS   C26 7925   6.434   0.435   9.926 -0.0405 -0.0073  0.5402
   84SAPS   H6R 7926   6.359   0.364   9.964  0.0024 -0.9181 -0.9967
   84SAPS   C27 7927   6.425   0.479   9.781 -0.1116  0.7975  0.2502
   84SAPS   H7R 7928   6.443   0.588   9.791 -0.7057  1.2401 -2.5322
   84SAPS   H7S 7929   6.324   0.462   9.740 -0.3418  1.4024  0.5595
   84SAPS   C28 7930   6.535   0.430   9.693  0.0630 -0.4512 -0.3041
   84SAPS   H8R 7931   6.607   0.364   9.744 -1.7801 -2.9723 -0.7482
   84SAPS   C29 7932   6.570   0.487   9.578 -0.6296 -0.2636  0.3278
   84SAPS   H9R 7933   6.663   0.446   9.537 -0.9393 -1.3762  0.6990
   84SAPS  C210 7934   6.500   0.602   9.514 -0.3266 -0.3811 -0.8439
   84SAPS  H10R 7935   6.551   0.697   9.539 -0.1892 -1.0150  1.5239
   84SAPS  H10S 7936   6.395   0.601   9.553 -0.0810  0.7130 -0.1286
   84SAPS  C211 7937   6.477   0.592   9.368  0.4676 -0.0727 -0.2228
   84SAPS  H11R 7938   6.464   0.488   9.332  1.6767 -0.0105 -0.8821
   84SAPS  C212 7939   6.489   0.696   9.277  0.0370 -0.7830  0.2231
   84SAPS  H12R 7940   6.490   0.669   9.170  1.1414 -0.5098  0.1530
   84SAPS  C213 7941   6.527   0.842   9.316 -0.2998 -0.2168 -0.2168
   84SAPS  H13R 7942   6.636   0.853   9.329 -0.3138  0.8878 -0.9322
   84SAPS  H13S 7943   6.489   0.872   9.416  0.3626 -0.5271  0.1375
   84SAPS  C214 7944   6.458   0.943   9.221 -0.4811  1.2378  0.3197
   84SAPS  H14R 7945   6.352   0.956   9.247 -0.3254  0.6469  1.2805
   84SAPS  C215 7946   6.507   1.003   9.111 -0.2244 -0.4593  0.1538
   84SAPS  H15R 7947   6.441   1.075   9.061 -1.0895 -0.3896  1.3558
   84SAPS  C216 7948   6.650   0.990   9.056  0.0926 -0.3103  0.1924
   84SAPS  H16R 7949   6.691   0.908   9.118  0.7502 -0.6192 -0.6384
   84SAPS  H16S 7950   6.711   1.082   9.061 -0.6865  0.2202  0.0805
   84SAPS  C217 7951   6.668   0.950   8.909  0.3277  0.0119 -0.2616
   84SAPS  H17R 7952   6.588   0.880   8.877 -1.7473  2.2674 -0.2364
   84SAPS  H17S 7953   6.765   0.896   8.904  1.5024  2.0452 -0.3073
   84SAPS  C218 7954   6.691   1.069   8.814  0.3592  0.1339  0.2084
   84SAPS  H18R 7955   6.771   1.138   8.847  0.3314 -0.2327  1.0506
   84SAPS  H18S 7956   6.595   1.126   8.817  0.5397  0.3999  1.3437
   84SAPS  C219 7957   6.726   1.013   8.675 -0.1356 -0.2965 -0.4351
   84SAPS  H19R 7958   6.820   0.954   8.670  0.7519  1.1344 -2.5857
   84SAPS  H19S 7959   6.758   1.098   8.612 -0.6925  1.2026  1.2298
   84SAPS  C220 7960   6.610   0.950   8.591  0.0569 -0.4509  0.1498
   84SAPS  H20R 7961   6.633   0.907   8.492  0.0624 -3.2585  1.2763
   84SAPS  H20S 7962   6.524   1.018   8.573  0.5094  0.0660 -0.0916
   84SAPS  H20T 7963   6.567   0.857   8.635 -2.2752 -0.6333 -2.2401
   84SAPS   C33 7964   7.119   0.397  10.111  0.5351 -0.3575  0.1892
   84SAPS   H3X 7965   7.130   0.319  10.033  0.5723 -0.5554  0.3921
   84SAPS   H3Y 7966   7.220   0.421  10.153 -0.0409 -1.2905  2.2416
   84SAPS   C34 7967   7.045   0.522  10.041 -0.5967  0.7896  0.0305
   84SAPS   H4X 7968   7.019   0.596  10.119  2.6001  2.3736 -0.2387
   84SAPS   H4Y 7969   6.954   0.475   9.997 -1.2487 -0.5674  2.6520
   84SAPS   C35 7970   7.134   0.584   9.935 -0.0378 -0.0034 -0.7038
   84SAPS   H5X 7971   7.181   0.502   9.876  1.7709 -0.3225  1.0884
   84SAPS   H5Y 7972   7.219   0.635   9.984  0.6493  0.9153 -2.7277
   84SAPS   C36 7973   7.077   0.673   9.829  0.0974 -0.5725  0.3501
   84SAPS   H6X 7974   7.159   0.730   9.780 -0.8132  1.9385  1.5912
   84SAPS   H6Y 7975   7.025   0.749   9.890  4.3567  2.1937  0.8985
   84SAPS   C37 7976   6.976   0.612   9.728 -0.3270  0.1528 -0.0662
   84SAPS   H7X 7977   6.928   0.693   9.670 -0.7476 -0.1155 -0.1009
   84SAPS   H7Y 7978   6.890   0.550   9.764 -0.6242 -0.2369 -1.3990
   84SAPS   C38 7979   7.064   0.522   9.635  0.2085 -0.6129  0.1901
   84SAPS   H8X 7980   7.092   0.430   9.691  0.4612 -1.6673 -1.6196
   84SAPS   H8Y 7981   7.155   0.575   9.600 -1.1114  2.2500  0.7300
   84SAPS   C39 7982   6.980   0.484   9.515 -0.0691 -0.1307 -0.1893
   84SAPS   H9X 7983   6.951   0.578   9.463  3.2974  0.4210 -1.3258
   84SAPS   H9Y 7984   6.893   0.433   9.563  1.0964  0.0680  2.3008
   84SAPS  C310 7985   7.058   0.401   9.409 -0.3506  0.5246  0.0834
   84SAPS  H10X 7986   7.114   0.318   9.457 -1.5727 -0.8998 -0.8364
   84SAPS  H10Y 7987   7.143   0.463   9.374  1.6810 -2.3459 -0.4612
   84SAPS  C311 7988   6.956   0.345   9.296 -0.4876  0.1064  0.3754
   84SAPS  H11X 7989   6.890   0.270   9.344  0.5081 -0.5995  0.6676
   84SAPS  H11Y 7990   7.009   0.280   9.223  2.2975  1.8507  0.7331
   84SAPS  C312 7991   6.877   0.452   9.234  0.0670  0.1362 -0.1207
   84SAPS  H12X 7992   6.950   0.520   9.185  1.6236 -1.6433 -0.4232
   84SAPS  H12Y 7993   6.815   0.507   9.308  0.1073 -1.6579  1.3234
   84SAPS  C313 7994   6.781   0.404   9.123 -0.1371  0.1368  0.6226
   84SAPS  H13X 7995   6.703   0.339   9.168 -0.3957 -1.1098 -1.4764
   84SAPS  H13Y 7996   6.837   0.333   9.058  1.0569 -1.3614  3.1422
   84SAPS  C314 7997   6.723   0.519   9.041  0.0791  0.3295  0.1898
   84SAPS  H14X 7998   6.796   0.582   8.985  0.0053  0.0312 -0.2471
   84SAPS  H14Y 7999   6.684   0.590   9.116 -1.0674 -0.1824  0.0922
   84SAPS  C315 8000   6.615   0.474   8.945  0.0757 -0.2010 -0.1645
   84SAPS  H15X 8001   6.532   0.434   9.008 -0.3436  0.6838 -0.1417
   84SAPS  H15Y 8002   6.656   0.386   8.891 -0.2954 -1.2134  1.1503
   84SAPS  C316 8003   6.553   0.595   8.871 -0.3486  0.1555  0.2213
   84SAPS  H16X 8004   6.628   0.638   8.801 -0.6815 -1.1474 -0.9931
   84SAPS  H16Y 8005   6.517   0.675   8.939 -1.1408  0.7931 -0.9039
   84SAPS  C317 8006   6.440   0.558   8.771 -0.2703  0.3194  0.2066
   84SAPS  H17X 8007   6.483   0.510   8.680  0.4833  2.3870 -0.5921
   84SAPS  H17Y 8008   6.392   0.653   8.738 -0.9140  0.4887  1.5785
   84SAPS  C318 8009   6.329   0.470   8.826 -0.1406 -0.2856  0.1323
   84SAPS  H18X 8010   6.296   0.515   8.922  2.4164  1.4106  0.2983
   84SAPS  H18Y 8011   6.365   0.370   8.859 -3.3222 -1.8813 -0.8065
   84SAPS  H18Z 8012   6.249   0.450   8.752 -1.0413 -1.3550  1.3430
   85SAPS     N 8013   4.215   4.619  11.138 -0.7236 -0.2263 -0.6124
   85SAPS   HN1 8014   4.225   4.629  11.035 -0.3789 -0.3576 -0.5918
   85SAPS   HN2 8015   4.183   4.709  11.180 -1.3694 -0.2321 -1.0741
   85SAPS   HN3 8016   4.311   4.607  11.176 -1.4595 -1.3944  0.9978
   85SAPS   C12 8017   4.131   4.509  11.165  0.2454  0.0006  0.3873
   85SAPS  H12A 8018   4.200   4.439  11.211 -0.4826 -0.7023  0.4343
   85SAPS   C13 8019   4.014   4.513  11.260 -0.4440  0.2256  0.4591
   85SAPS  O13A 8020   3.982   4.626  11.319 -0.1925  0.2370 -0.1409
   85SAPS  O13B 8021   3.966   4.404  11.296  0.1601  0.2314 -0.3949
   85SAPS   C11 8022   4.083   4.452  11.026 -0.2201 -0.2548 -0.1443
   85SAPS  H11A 8023   4.043   4.523  10.950 -2.7692  1.4632  2.5609
   85SAPS  H11B 8024   4.007   4.375  11.049 -0.3644 -0.1560 -0.2814
   85SAPS     P 8025   4.195   4.285  10.856 -0.2168 -0.1795  0.3920
   85SAPS   O13 8026   4.334   4.246  10.832  0.2277  0.4088 -0.6626
   85SAPS   O14 8027   4.098   4.180  10.897  0.1086  0.1672 -0.4011
   85SAPS   O12 8028   4.202   4.398  10.961  0.1865 -0.0444 -0.0553
   85SAPS   O11 8029   4.140   4.359  10.728  0.5061 -0.1868  0.4905
   85SAPS    C1 8030   4.011   4.335  10.662  0.4995  0.1836  0.3689
   85SAPS    HA 8031   3.936   4.303  10.737  1.1954 -0.5563  0.7690
   85SAPS    HB 8032   3.976   4.429  10.614  2.3854 -0.4219 -2.4900
   85SAPS    C2 8033   4.022   4.246  10.532  0.0811 -0.0278 -0.9870
   85SAPS    HS 8034   4.051   4.144  10.566  1.2519  1.6550  3.9153
   85SAPS   O21 8035   4.127   4.309  10.450 -0.2152  0.0164 -0.7456
   85SAPS   C21 8036   4.190   4.220  10.373 -0.6499 -0.0679 -0.3034
   85SAPS   O22 8037   4.181   4.095  10.381  0.4247 -0.0527 -0.3956
   85SAPS   C22 8038   4.294   4.288  10.283  0.3633 -0.8477 -0.4875
   85SAPS   H2R 8039   4.239   4.357  10.216  0.1481  0.2340  0.7620
   85SAPS   H2S 8040   4.350   4.366  10.339 -1.6079  1.8989 -2.1051
   85SAPS    C3 8041   3.883   4.246  10.457 -0.1206  0.5029 -0.7374
   85SAPS    HX 8042   3.857   4.351  10.433  0.7734  0.7650 -0.5904
   85SAPS    HY 8043   3.806   4.213  10.530  0.0737  2.5018  0.4492
   85SAPS   O31 8044   3.876   4.161  10.339  0.0488  0.3421  0.4732
   85SAPS   C31 8045   3.851   4.029  10.354  0.4118 -0.0400 -0.4862
   85SAPS   O32 8046   3.830   3.974  10.462  0.4118  0.2800 -0.5054
   85SAPS   C32 8047   3.867   3.971  10.218 -0.4723  0.0036  0.1405
   85SAPS   H2X 8048   3.871   3.860  10.225  0.7908 -0.1666 -2.3935
   85SAPS   H2Y 8049   3.961   4.009  10.173 -0.6247 -1.2479 -1.2919
   85SAPS   C23 8050   4.387   4.192  10.205  0.5311 -0.2232  0.3365
   85SAPS   H3R 8051   4.390   4.083  10.224 -0.9732 -0.2959  0.2329
   85SAPS   H3S 8052   4.482   4.244  10.231 -0.2690  1.6352 -0.2804
   85SAPS   C24 8053   4.362   4.206  10.057  0.3070 -0.4742 -0.0261
   85SAPS   H4R 8054   4.434   4.143  10.001  1.7171  1.2626 -0.2967
   85SAPS   H4S 8055   4.385   4.310  10.023  2.3943 -0.3532  1.4983
   85SAPS   C25 8056   4.222   4.161  10.026  0.1406  0.1661 -0.0327
   85SAPS   H5R 8057   4.202   4.056  10.049  0.7395  0.0764  0.0931
   85SAPS   C26 8058   4.129   4.230   9.960 -0.0126  0.5653 -0.2626
   85SAPS   H6R 8059   4.029   4.185   9.951  1.1435 -1.8316 -2.4218
   85SAPS   C27 8060   4.136   4.369   9.907  0.2263 -0.1782 -0.4651
   85SAPS   H7R 8061   4.216   4.428   9.957  0.8369  1.6112 -3.3026
   85SAPS   H7S 8062   4.038   4.422   9.913 -0.8451 -1.9572 -1.2900
   85SAPS   C28 8063   4.189   4.352   9.763  0.2446 -0.5536  0.0517
   85SAPS   H8R 8064   4.295   4.376   9.744  0.8874 -2.7102  0.6176
   85SAPS   C29 8065   4.109   4.315   9.654  0.4494 -0.1100  0.0350
   85SAPS   H9R 8066   4.146   4.312   9.550 -1.8386  0.2311 -0.8484
   85SAPS  C210 8067   3.960   4.286   9.650 -0.0600  0.5470  0.3809
   85SAPS  H10R 8068   3.926   4.240   9.745 -1.2906 -0.5839 -0.5820
   85SAPS  H10S 8069   3.951   4.212   9.568 -2.2676 -1.0622  1.9482
   85SAPS  C211 8070   3.868   4.401   9.618  0.3466 -0.3196  0.1470
   85SAPS  H11R 8071   3.893   4.500   9.659  2.8796 -1.1568  0.8023
   85SAPS  C212 8072   3.764   4.395   9.532 -0.2570  0.4532 -0.0385
   85SAPS  H12R 8073   3.690   4.476   9.520 -2.8944 -2.0725 -2.4218
   85SAPS  C213 8074   3.732   4.279   9.452  0.3710  0.3613 -0.4156
   85SAPS  H13R 8075   3.713   4.194   9.522 -1.0222 -0.2706 -1.5003
   85SAPS  H13S 8076   3.822   4.244   9.397  0.0301 -1.0821 -0.1020
   85SAPS  C214 8077   3.610   4.290   9.356 -0.1003 -0.0578 -0.7482
   85SAPS  H14R 8078   3.524   4.229   9.387  2.7113 -3.8048  0.3622
   85SAPS  C215 8079   3.609   4.348   9.238 -0.3242 -0.5957  0.5015
   85SAPS  H15R 8080   3.513   4.333   9.187  0.5017 -2.6601 -0.5322
   85SAPS  C216 8081   3.732   4.418   9.180  0.4123 -0.3925  0.7212
   85SAPS  H16R 8082   3.821   4.352   9.191  0.8553  0.1042  0.2121
   85SAPS  H16S 8083   3.748   4.514   9.234  2.6044  0.8050 -1.8303
   85SAPS  C217 8084   3.715   4.447   9.031 -0.7202 -0.2148  0.0006
   85SAPS  H17R 8085   3.696   4.349   8.982 -2.1486 -0.2394  0.5541
   85SAPS  H17S 8086   3.813   4.480   8.990  0.5574 -0.1951  2.7677
   85SAPS  C218 8087   3.597   4.538   8.998  0.4152 -0.7440 -0.1213
   85SAPS  H18R 8088   3.611   4.622   9.070  2.1938 -0.8751 -0.2614
   85SAPS  H18S 8089   3.496   4.496   9.015 -0.7583  2.0523  0.3776
   85SAPS  C219 8090   3.613   4.592   8.857  0.7751 -0.0718 -0.3846
   85SAPS  H19R 8091   3.717   4.628   8.847  0.1480  2.3074  0.9861
   85SAPS  H19S 8092   3.545   4.680   8.858  0.0250 -0.6465  0.2716
   85SAPS  C220 8093   3.590   4.492   8.746  0.1131  0.1897  0.3638
   85SAPS  H20R 8094   3.485   4.454   8.741 -1.1876  3.5788 -3.3084
   85SAPS  H20S 8095   3.664   4.411   8.760  0.4575  0.4488  0.0542
   85SAPS  H20T 8096   3.612   4.541   8.649  1.2970 -1.2732 -0.1431
   85SAPS   C33 8097   3.745   3.997  10.129  0.1808  0.4227  0.0370
   85SAPS   H3X 8098   3.751   4.107  10.109  3.6249  0.1265 -1.0755
   85SAPS   H3Y 8099   3.649   3.957  10.170  1.6942 -1.0464  2.3569
   85SAPS   C34 8100   3.756   3.925   9.997 -0.3326  0.0619 -0.2845
   85SAPS   H4X 8101   3.777   3.816  10.009  2.2771  0.4058 -1.2125
   85SAPS   H4Y 8102   3.844   3.965   9.943 -0.1716 -0.6912 -0.5887
   85SAPS   C35 8103   3.635   3.953   9.910  0.8572  0.1708 -0.1709
   85SAPS   H5X 8104   3.615   4.061   9.890  0.7765 -0.1498 -1.9740
   85SAPS   H5Y 8105   3.548   3.912   9.965  0.5005  0.4096 -0.5527
   85SAPS   C36 8106   3.646   3.882   9.772 -0.6884 -0.1094  0.4708
   85SAPS   H6X 8107   3.545   3.878   9.728 -0.2312 -0.1464 -0.5911
   85SAPS   H6Y 8108   3.678   3.775   9.771 -0.0954  0.0686 -0.0964
   85SAPS   C37 8109   3.740   3.961   9.680 -0.3385 -0.2144  0.6106
   85SAPS   H7X 8110   3.846   3.951   9.714 -1.0622 -3.1383  2.3506
   85SAPS   H7Y 8111   3.709   4.067   9.668  0.8518 -0.2019 -4.7583
   85SAPS   C38 8112   3.732   3.900   9.532  0.5331 -0.3501  0.7202
   85SAPS   H8X 8113   3.658   3.960   9.474  1.4319 -0.8133 -0.9852
   85SAPS   H8Y 8114   3.689   3.798   9.532 -0.0746 -0.2887 -3.4374
   85SAPS   C39 8115   3.868   3.907   9.466  0.0154 -1.0644  0.6854
   85SAPS   H9X 8116   3.924   3.839   9.534 -2.2132 -0.9095  2.8088
   85SAPS   H9Y 8117   3.901   4.011   9.487 -2.8085  0.2843 -0.9682
   85SAPS  C310 8118   3.879   3.862   9.326  0.4106  0.2331 -0.0290
   85SAPS  H10X 8119   3.837   3.759   9.317  0.3180  0.1700  1.0068
   85SAPS  H10Y 8120   3.984   3.849   9.293  0.5283 -0.3125  0.5367
   85SAPS  C311 8121   3.802   3.961   9.238  0.7491  0.8593 -0.1129
   85SAPS  H11X 8122   3.849   4.062   9.243  0.1764  1.0656  2.1066
   85SAPS  H11Y 8123   3.698   3.980   9.273  0.3723  0.1994 -0.8421
   85SAPS  C312 8124   3.807   3.917   9.088 -0.1695 -0.6848 -0.3018
   85SAPS  H12X 8125   3.757   3.818   9.081  0.2981 -1.1572  2.1181
   85SAPS  H12Y 8126   3.914   3.911   9.059 -0.1073 -0.1125 -0.2020
   85SAPS  C313 8127   3.743   4.018   8.990 -0.1249 -0.1615 -0.7880
   85SAPS  H13X 8128   3.778   4.122   9.012 -0.9371 -0.3432  1.6363
   85SAPS  H13Y 8129   3.635   4.029   9.012 -0.3846  1.8923 -2.6666
   85SAPS  C314 8130   3.770   3.984   8.841  0.4411 -0.3654  0.8280
   85SAPS  H14X 8131   3.744   3.879   8.815 -2.3059  1.0442 -3.2319
   85SAPS  H14Y 8132   3.879   3.991   8.823  0.5982  0.6161  2.0760
   85SAPS  C315 8133   3.697   4.073   8.735  0.1951  0.1325 -0.2972
   85SAPS  H15X 8134   3.703   4.182   8.756 -1.0097 -0.2604  2.5447
   85SAPS  H15Y 8135   3.591   4.043   8.747  0.6374 -0.6970  2.2568
   85SAPS  C316 8136   3.733   4.031   8.600 -0.6886  0.5215 -0.8117
   85SAPS  H16X 8137   3.693   3.927   8.607  0.5344  0.0240 -0.9181
   85SAPS  H16Y 8138   3.843   4.015   8.589 -0.6832 -0.5237  0.4400
   85SAPS  C317 8139   3.672   4.108   8.483  0.7628 -0.4489 -0.4646
   85SAPS  H17X 8140   3.637   4.032   8.409  1.6654  2.1770 -3.8494
   85SAPS  H17Y 8141   3.743   4.181   8.438 -1.3701  2.1078  0.0851
   85SAPS  C318 8142   3.544   4.191   8.512  0.0325 -0.2379  0.4796
   85SAPS  H18X 8143   3.493   4.232   8.422  0.4181  0.4047  0.5472
   85SAPS  H18Y 8144   3.569   4.265   8.591 -0.7380  0.8473 -0.2692
   85SAPS  H18Z 8145   3.463   4.120   8.538 -1.9212  0.6372 -2.6797
   86SAPS     N 8146   6.314   3.091  10.929  0.5741 -0.4313  0.0459
   86SAPS   HN1 8147   6.347   2.998  10.897  0.1766 -0.6469  0.2528
   86SAPS   HN2 8148   6.228   3.076  10.986 -0.5930 -0.9489 -1.7557
   86SAPS   HN3 8149   6.271   3.137  10.847  1.9915 -3.8769 -2.9064
   86SAPS   C12 8150   6.429   3.157  10.996 -0.2684 -0.3374  0.1056
   86SAPS  H12A 8151   6.386   3.247  11.039 -0.0866 -0.7665  1.2176
   86SAPS   C13 8152   6.512   3.095  11.116  0.2526  0.4691 -0.1511
   86SAPS  O13A 8153   6.489   2.978  11.157 -0.4660 -0.8944  0.7464
   86SAPS  O13B 8154   6.605   3.163  11.166 -0.0342 -0.1046 -0.5651
   86SAPS   C11 8155   6.533   3.195  10.882 -0.2565  0.1173 -0.2357
   86SAPS  H11A 8156   6.620   3.252  10.923  0.6392 -0.0694 -1.7968
   86SAPS  H11B 8157   6.474   3.268  10.824 -2.0407  0.9644  2.4659
   86SAPS     P 8158   6.700   3.042  10.743  0.2049 -0.3390  0.2757
   86SAPS   O13 8159   6.814   3.117  10.799  0.4504 -0.3234 -0.0265
   86SAPS   O14 8160   6.708   2.896  10.754 -0.3316 -0.0253  0.2630
   86SAPS   O12 8161   6.561   3.077  10.810 -0.5693  0.2559  0.1339
   86SAPS   O11 8162   6.684   3.085  10.592  0.6133 -0.0880 -0.0104
   86SAPS    C1 8163   6.635   3.210  10.557 -0.2178 -0.3783  0.2607
   86SAPS    HA 8164   6.539   3.199  10.502 -0.3867 -3.2643  0.9717
   86SAPS    HB 8165   6.620   3.277  10.645 -1.0641 -0.1357 -0.0556
   86SAPS    C2 8166   6.733   3.273  10.452 -0.1693  0.5064  0.1776
   86SAPS    HS 8167   6.691   3.370  10.416  0.6763  0.7804 -0.1116
   86SAPS   O21 8168   6.771   3.190  10.343 -0.5740  0.8998  0.6283
   86SAPS   C21 8169   6.685   3.180  10.241 -0.3903 -0.4205  0.2801
   86SAPS   O22 8170   6.575   3.232  10.234 -0.3765  0.4516  0.4916
   86SAPS   C22 8171   6.756   3.104  10.128 -0.3107  0.5791  0.1747
   86SAPS   H2R 8172   6.837   3.170  10.091 -0.6956  0.8026 -0.2752
   86SAPS   H2S 8173   6.796   3.015  10.182 -3.3448 -1.0460 -0.0004
   86SAPS    C3 8174   6.878   3.310  10.507 -0.2762  0.6809 -0.7663
   86SAPS    HX 8175   6.917   3.216  10.553  1.4080  1.8326  0.2805
   86SAPS    HY 8176   6.857   3.383  10.588  1.1204 -0.9169  1.1370
   86SAPS   O31 8177   6.971   3.362  10.406  0.2311 -0.0463  0.5216
   86SAPS   C31 8178   7.085   3.291  10.386  0.3798 -1.2746 -0.4092
   86SAPS   O32 8179   7.121   3.197  10.448  0.3938  0.0515 -0.4131
   86SAPS   C32 8180   7.169   3.348  10.270 -0.9666 -0.0179  0.1461
   86SAPS   H2X 8181   7.207   3.446  10.305 -0.5532  0.7410 -2.2735
   86SAPS   H2Y 8182   7.102   3.365  10.183 -1.4162 -1.6376  0.1318
   86SAPS   C23 8183   6.662   3.065  10.012 -0.4714  0.5936  0.1435
   86SAPS   H3R 8184   6.586   3.141   9.985 -0.5887  0.2860 -0.3992
   86SAPS   H3S 8185   6.602   2.975  10.037 -1.4955  0.5862 -2.1485
   86SAPS   C24 8186   6.746   3.034   9.888 -0.2962  0.5770  0.9246
   86SAPS   H4R 8187   6.833   2.967   9.906 -0.2376 -0.1687 -1.6468
   86SAPS   H4S 8188   6.789   3.124   9.839  0.1215  0.0968  0.3812
   86SAPS   C25 8189   6.663   2.951   9.785 -0.0256  0.3645 -0.3010
   86SAPS   H5R 8190   6.643   2.851   9.826 -0.6852  0.0065 -1.4560
   86SAPS   C26 8191   6.599   2.987   9.670 -0.0285 -0.0779 -0.3439
   86SAPS   H6R 8192   6.556   2.915   9.599 -0.3936 -0.4331  0.2368
   86SAPS   C27 8193   6.615   3.125   9.617  0.2545 -0.5256  0.2203
   86SAPS   H7R 8194   6.716   3.161   9.648  0.8718 -1.0614 -1.0947
   86SAPS   H7S 8195   6.538   3.200   9.644  0.7402  1.2138 -2.8129
   86SAPS   C28 8196   6.608   3.132   9.459 -0.2221 -0.1417  0.2584
   86SAPS   H8R 8197   6.678   3.068   9.402 -1.1827 -1.7628  0.8313
   86SAPS   C29 8198   6.509   3.194   9.389  0.1408 -0.1504  0.4551
   86SAPS   H9R 8199   6.510   3.176   9.281  0.7062 -2.1349  0.7439
   86SAPS  C210 8200   6.388   3.269   9.443  0.2082 -0.4308 -0.0341
   86SAPS  H10R 8201   6.334   3.217   9.524  2.6485 -1.5530  0.9742
   86SAPS  H10S 8202   6.309   3.284   9.366 -0.7386 -0.4317  0.9245
   86SAPS  C211 8203   6.438   3.402   9.497 -0.7419  0.1271 -0.1373
   86SAPS  H11R 8204   6.458   3.400   9.605 -0.2575  1.3315 -0.1864
   86SAPS  C212 8205   6.449   3.517   9.423  0.0906 -0.4131 -0.0175
   86SAPS  H12R 8206   6.482   3.607   9.478  4.2351 -1.3939 -0.5260
   86SAPS  C213 8207   6.425   3.522   9.272 -0.3819 -0.1257 -0.1709
   86SAPS  H13R 8208   6.402   3.625   9.236  0.4607  0.3130  0.4975
   86SAPS  H13S 8209   6.338   3.456   9.252 -1.5381  0.3021  2.8398
   86SAPS  C214 8210   6.545   3.475   9.190  0.4883  0.3671  0.7083
   86SAPS  H14R 8211   6.645   3.492   9.233  1.2676  1.9515 -1.4777
   86SAPS  C215 8212   6.539   3.414   9.073 -0.7646  0.2373 -0.1389
   86SAPS  H15R 8213   6.621   3.374   9.011 -0.7891  0.6469 -0.4341
   86SAPS  C216 8214   6.419   3.388   8.989  0.0759  0.1305 -0.3772
   86SAPS  H16R 8215   6.350   3.475   8.997 -0.9259 -0.7361  1.1025
   86SAPS  H16S 8216   6.365   3.298   9.027 -3.5814  3.0078  1.9280
   86SAPS  C217 8217   6.446   3.367   8.844  0.2005 -0.6844  0.1725
   86SAPS  H17R 8218   6.522   3.287   8.841  1.0606  0.0283  1.7113
   86SAPS  H17S 8219   6.480   3.465   8.805 -3.1167 -0.5264 -2.7909
   86SAPS  C218 8220   6.326   3.331   8.767  0.5345  1.0389 -0.6867
   86SAPS  H18R 8221   6.342   3.355   8.660  0.7887  1.9509 -0.4507
   86SAPS  H18S 8222   6.239   3.395   8.789  0.4947  0.7339  0.0934
   86SAPS  C219 8223   6.299   3.177   8.780 -0.1256 -0.6496  0.2187
   86SAPS  H19R 8224   6.308   3.147   8.886  0.3424  0.3237  0.4654
   86SAPS  H19S 8225   6.380   3.120   8.729 -0.1799 -3.1022  2.6585
   86SAPS  C220 8226   6.158   3.138   8.719 -0.6445 -0.6132 -0.3611
   86SAPS  H20R 8227   6.074   3.192   8.767 -0.0639  0.8341 -0.9377
   86SAPS  H20S 8228   6.148   3.029   8.739  1.7009 -1.0344 -1.1814
   86SAPS  H20T 8229   6.159   3.152   8.609  0.4141 -2.0511 -0.5739
   86SAPS   C33 8230   7.275   3.243  10.223  0.0466  0.4190 -0.2480
   86SAPS   H3X 8231   7.340   3.217  10.309  1.9102  0.3947 -1.5991
   86SAPS   H3Y 8232   7.342   3.290  10.148  0.4838 -1.4545 -1.0797
   86SAPS   C34 8233   7.216   3.122  10.157  0.2117  0.1047  0.1763
   86SAPS   H4X 8234   7.128   3.087  10.215 -0.4105 -1.0396 -1.3799
   86SAPS   H4Y 8235   7.299   3.049  10.150 -0.0291 -0.0150 -2.3382
   86SAPS   C35 8236   7.166   3.155  10.025  0.0766  0.0330 -0.2906
   86SAPS   H5X 8237   7.218   3.245   9.985 -1.6105  1.9041  1.4912
   86SAPS   H5Y 8238   7.063   3.192  10.044  0.0641 -0.5204  0.8228
   86SAPS   C36 8239   7.159   3.047   9.923 -0.1393  0.3926 -0.7844
   86SAPS   H6X 8240   7.093   2.969   9.966  0.2240  1.3061  1.6345
   86SAPS   H6Y 8241   7.262   3.005   9.919 -0.8315 -1.3485 -1.0108
   86SAPS   C37 8242   7.117   3.099   9.785 -0.3897  0.0228  0.5776
   86SAPS   H7X 8243   7.205   3.154   9.743  1.8306 -3.1628  0.7275
   86SAPS   H7Y 8244   7.028   3.162   9.806 -2.4675 -2.8823  1.0132
   86SAPS   C38 8245   7.073   2.982   9.702 -0.6926  0.1784  0.4835
   86SAPS   H8X 8246   7.002   2.921   9.762 -0.2086 -2.0403 -1.0407
   86SAPS   H8Y 8247   7.155   2.907   9.691 -0.5839  0.4805 -0.9266
   86SAPS   C39 8248   7.021   3.017   9.566  0.4510  0.0057  0.2337
   86SAPS   H9X 8249   6.977   3.119   9.568 -1.0486 -0.5763 -1.0318
   86SAPS   H9Y 8250   6.940   2.953   9.525 -0.2774  0.2829  1.2026
   86SAPS  C310 8251   7.135   3.035   9.468 -0.0733  0.3253 -0.0090
   86SAPS  H10X 8252   7.200   2.947   9.483  0.4108  0.8081  0.7597
   86SAPS  H10Y 8253   7.207   3.112   9.503 -0.7168  1.1074 -0.3633
   86SAPS  C311 8254   7.097   3.059   9.314 -0.0749 -0.0504 -0.6009
   86SAPS  H11X 8255   7.049   3.158   9.300 -0.6449  0.1478  2.0889
   86SAPS  H11Y 8256   7.017   2.983   9.300 -2.6375  1.5576  3.4314
   86SAPS  C312 8257   7.219   3.030   9.228 -0.6134 -1.0087 -0.7369
   86SAPS  H12X 8258   7.242   2.921   9.228  0.1081 -0.8941  1.3114
   86SAPS  H12Y 8259   7.314   3.072   9.268  1.1999 -4.2871 -1.2566
   86SAPS  C313 8260   7.204   3.095   9.088  0.5593  0.2269 -0.3063
   86SAPS  H13X 8261   7.180   3.201   9.112 -3.5009 -0.5482 -0.1332
   86SAPS  H13Y 8262   7.118   3.046   9.037 -0.1781  1.1105  0.0548
   86SAPS  C314 8263   7.322   3.084   9.000 -0.6033  0.3093 -0.4977
   86SAPS  H14X 8264   7.373   2.986   9.013  1.7774  1.4113 -1.0411
   86SAPS  H14Y 8265   7.395   3.163   9.026 -0.3192 -0.2415  0.4598
   86SAPS  C315 8266   7.299   3.116   8.851 -0.4941  0.4993 -0.1005
   86SAPS  H15X 8267   7.400   3.130   8.808  1.1891 -2.1096  2.6231
   86SAPS  H15Y 8268   7.245   3.211   8.834  0.8962  1.3098 -0.1281
   86SAPS  C316 8269   7.224   2.992   8.778 -0.2531 -0.9548  0.3008
   86SAPS  H16X 8270   7.148   2.960   8.853 -0.9053  1.4762  0.7784
   86SAPS  H16Y 8271   7.290   2.904   8.761  0.5100 -0.3360 -0.0173
   86SAPS  C317 8272   7.154   3.036   8.648  0.4685 -0.3279 -0.1744
   86SAPS  H17X 8273   7.079   3.117   8.657 -0.8816 -1.7135  2.4012
   86SAPS  H17Y 8274   7.091   2.956   8.603  0.1485 -0.6206  0.7623
   86SAPS  C318 8275   7.261   3.083   8.549 -0.4389  0.3288  0.4255
   86SAPS  H18X 8276   7.315   2.994   8.512  0.1708  1.2078 -0.8826
   86SAPS  H18Y 8277   7.337   3.152   8.592  0.2121  1.3588 -2.1893
   86SAPS  H18Z 8278   7.218   3.122   8.455 -0.8268 -1.4585 -0.1729
   87SAPS     N 8279   1.495   3.686  10.942  0.5999 -0.9546  0.6729
   87SAPS   HN1 8280   1.589   3.641  10.940  0.0026 -2.2186  0.1958
   87SAPS   HN2 8281   1.433   3.644  11.015 -0.6182 -2.1924 -0.9965
   87SAPS   HN3 8282   1.447   3.678  10.850  2.9240 -0.7163 -0.6346
   87SAPS   C12 8283   1.516   3.829  10.991  0.6571  0.1175 -0.6024
   87SAPS  H12A 8284   1.571   3.832  11.084  0.1850  1.7543 -0.3509
   87SAPS   C13 8285   1.598   3.901  10.886 -0.4264 -1.1228 -0.8096
   87SAPS  O13A 8286   1.652   3.844  10.787 -0.3206 -0.1149 -0.2067
   87SAPS  O13B 8287   1.618   4.022  10.912  0.3481  0.0857  0.2781
   87SAPS   C11 8288   1.380   3.893  11.020  0.1756  0.3096 -0.9621
   87SAPS  H11A 8289   1.378   3.993  11.067  3.2179  0.8274 -1.7262
   87SAPS  H11B 8290   1.340   3.838  11.108  1.4415  2.5705  1.1712
   87SAPS     P 8291   1.161   3.976  10.913 -0.0247 -0.2262 -0.1747
   87SAPS   O13 8292   1.078   3.959  11.031  0.1980  0.5693 -1.1953
   87SAPS   O14 8293   1.223   4.108  10.897  0.2784  0.3479 -0.1559
   87SAPS   O12 8294   1.282   3.869  10.916 -0.1776 -0.1248  0.5191
   87SAPS   O11 8295   1.077   3.939  10.782 -0.1872  0.2322  0.0692
   87SAPS    C1 8296   1.138   3.850  10.683 -0.4966  0.3154  0.8256
   87SAPS    HA 8297   1.162   3.754  10.733  0.6741 -0.6078 -1.3720
   87SAPS    HB 8298   1.064   3.818  10.607  1.7950  0.7747 -1.7444
   87SAPS    C2 8299   1.261   3.907  10.603  0.4182 -0.7245 -0.6765
   87SAPS    HS 8300   1.345   3.909  10.675  2.0641  0.8441 -2.5197
   87SAPS   O21 8301   1.224   4.039  10.556 -0.0543 -0.5713 -0.0365
   87SAPS   C21 8302   1.321   4.107  10.494 -0.0756 -0.9671  0.0081
   87SAPS   O22 8303   1.434   4.076  10.476 -0.9199 -0.0307 -0.0946
   87SAPS   C22 8304   1.288   4.254  10.469 -0.3508 -0.7813 -0.1854
   87SAPS   H2R 8305   1.180   4.260  10.492 -0.4944 -2.1338 -0.4035
   87SAPS   H2S 8306   1.338   4.312  10.550  1.2084  0.4628 -1.9643
   87SAPS    C3 8307   1.316   3.807  10.488  0.0517 -0.0906 -0.3959
   87SAPS    HX 8308   1.321   3.702  10.522  1.1417  0.5603  1.6407
   87SAPS    HY 8309   1.423   3.836  10.489 -0.2642  1.1947  1.0545
   87SAPS   O31 8310   1.248   3.828  10.360  0.0136 -0.1947  0.1018
   87SAPS   C31 8311   1.125   3.755  10.350 -0.1478 -0.7450  0.0698
   87SAPS   O32 8312   1.089   3.666  10.425  0.0261  0.0014  0.1522
   87SAPS   C32 8313   1.039   3.817  10.236 -0.3011  0.4459 -0.4389
   87SAPS   H2X 8314   1.062   3.925  10.232 -0.5946  0.4811 -1.2474
   87SAPS   H2Y 8315   0.932   3.796  10.255 -0.2751  0.3968 -0.3446
   87SAPS   C23 8316   1.318   4.302  10.322 -0.1038 -0.3281  0.1832
   87SAPS   H3R 8317   1.428   4.318  10.311 -0.2598  2.5841  1.8164
   87SAPS   H3S 8318   1.285   4.407  10.309 -2.0978 -0.7182  1.7363
   87SAPS   C24 8319   1.288   4.217  10.198  0.2682  0.0643 -0.1025
   87SAPS   H4R 8320   1.329   4.115  10.208  1.3575  0.4777 -0.2472
   87SAPS   H4S 8321   1.342   4.262  10.112  1.1578 -0.3048  0.2520
   87SAPS   C25 8322   1.135   4.208  10.178  0.1050  0.7118 -0.4038
   87SAPS   H5R 8323   1.065   4.209  10.263  0.3102  0.6120 -0.2320
   87SAPS   C26 8324   1.067   4.206  10.062  0.0752 -0.6314  0.0072
   87SAPS   H6R 8325   0.958   4.190  10.067  0.0450 -0.7376 -0.8651
   87SAPS   C27 8326   1.128   4.217   9.924 -0.7467  0.5999 -0.0766
   87SAPS   H7R 8327   1.072   4.158   9.849 -1.5679 -0.7492  1.5178
   87SAPS   H7S 8328   1.235   4.189   9.936 -1.0250 -0.6903 -0.4380
   87SAPS   C28 8329   1.118   4.359   9.882  0.1349 -0.1334  0.0676
   87SAPS   H8R 8330   1.117   4.427   9.969  0.6475 -0.2370  0.1582
   87SAPS   C29 8331   1.117   4.397   9.753 -0.4996 -0.8751  0.0552
   87SAPS   H9R 8332   1.083   4.498   9.727 -3.0845 -1.5693  0.4510
   87SAPS  C210 8333   1.122   4.314   9.630 -0.3754  0.0923 -0.2617
   87SAPS  H10R 8334   1.025   4.260   9.623  0.0923 -0.8097 -0.0093
   87SAPS  H10S 8335   1.198   4.237   9.653 -1.0273  0.4921  3.8921
   87SAPS  C211 8336   1.142   4.376   9.492  0.5191 -0.1180  0.1365
   87SAPS  H11R 8337   1.106   4.480   9.483 -1.0962 -0.5426  1.3160
   87SAPS  C212 8338   1.197   4.307   9.387 -0.0876 -0.5562  1.4403
   87SAPS  H12R 8339   1.205   4.363   9.293 -0.0651  0.6318  2.1252
   87SAPS  C213 8340   1.262   4.172   9.380  0.6305 -0.0500 -0.0031
   87SAPS  H13R 8341   1.326   4.157   9.470  0.6080  2.4513  0.4962
   87SAPS  H13S 8342   1.345   4.176   9.306  0.4145 -0.1064 -0.2482
   87SAPS  C214 8343   1.172   4.055   9.361  0.1916 -1.3111  0.2157
   87SAPS  H14R 8344   1.131   4.019   9.456 -1.5222 -0.1893 -0.0557
   87SAPS  C215 8345   1.130   3.991   9.248 -0.6195 -0.3360  0.2826
   87SAPS  H15R 8346   1.047   3.919   9.254 -1.5187  0.6314 -0.2271
   87SAPS  C216 8347   1.169   4.032   9.106  0.1099  0.0406  0.3362
   87SAPS  H16R 8348   1.234   4.122   9.108 -0.1171  0.2696 -1.4689
   87SAPS  H16S 8349   1.074   4.054   9.053 -0.0086  1.7054  1.1780
   87SAPS  C217 8350   1.253   3.926   9.033 -0.4450 -0.3613 -0.2920
   87SAPS  H17R 8351   1.200   3.830   9.050 -2.0007  0.5139 -0.0268
   87SAPS  H17S 8352   1.357   3.919   9.071 -0.3432  3.5142  0.5435
   87SAPS  C218 8353   1.252   3.934   8.881  0.3180 -0.0956  0.3192
   87SAPS  H18R 8354   1.306   4.023   8.844  0.4639 -1.1136 -2.1307
   87SAPS  H18S 8355   1.151   3.929   8.835 -0.0634  0.4257  1.0755
   87SAPS  C219 8356   1.325   3.810   8.828 -0.5750  0.2747 -0.0940
   87SAPS  H19R 8357   1.264   3.723   8.861  3.3087 -2.8275 -0.2585
   87SAPS  H19S 8358   1.423   3.801   8.879  0.7476  0.5608 -2.4080
   87SAPS  C220 8359   1.355   3.801   8.669  0.1626  0.6535  0.2472
   87SAPS  H20R 8360   1.420   3.885   8.636  2.7869 -0.8649  1.2932
   87SAPS  H20S 8361   1.266   3.799   8.603 -0.3275 -0.1907  0.9138
   87SAPS  H20T 8362   1.421   3.712   8.659  0.7058  1.1099 -0.3622
   87SAPS   C33 8363   1.084   3.759  10.098  0.3748 -0.3674 -0.1134
   87SAPS   H3X 8364   1.020   3.668  10.096 -0.1914  0.0270 -0.2482
   87SAPS   H3Y 8365   1.193   3.741  10.104  0.3558 -1.2204 -1.7465
   87SAPS   C34 8366   1.055   3.851   9.987  0.6566 -0.7297 -0.1415
   87SAPS   H4X 8367   1.149   3.909   9.972  1.2533 -1.9319 -1.2558
   87SAPS   H4Y 8368   0.969   3.914  10.018  0.6962 -2.0711  3.2491
   87SAPS   C35 8369   1.029   3.777   9.856  0.0645  0.7125  0.3498
   87SAPS   H5X 8370   0.975   3.847   9.789 -0.0772  0.7807  0.5342
   87SAPS   H5Y 8371   0.957   3.694   9.873  1.0251  0.0353  1.2222
   87SAPS   C36 8372   1.152   3.728   9.779  0.5761  0.1134  0.3251
   87SAPS   H6X 8373   1.206   3.651   9.839  0.2939  0.7414  1.4152
   87SAPS   H6Y 8374   1.223   3.811   9.760  0.0496  0.8365  1.3920
   87SAPS   C37 8375   1.117   3.666   9.638 -0.0893  0.5638 -1.0128
   87SAPS   H7X 8376   1.028   3.721   9.599  0.2801  1.8968 -0.0502
   87SAPS   H7Y 8377   1.100   3.557   9.649  1.4790  0.3184 -0.7626
   87SAPS   C38 8378   1.237   3.695   9.549 -0.7133  0.3170 -0.0277
   87SAPS   H8X 8379   1.320   3.642   9.600 -1.8820 -2.8578 -1.2173
   87SAPS   H8Y 8380   1.255   3.805   9.546  1.6744 -0.0334 -0.4861
   87SAPS   C39 8381   1.216   3.644   9.405  0.0892 -0.7142  0.7812
   87SAPS   H9X 8382   1.122   3.684   9.361  0.6043 -0.2917  0.0405
   87SAPS   H9Y 8383   1.198   3.534   9.407 -2.8485 -0.3255  0.4386
   87SAPS  C310 8384   1.329   3.686   9.307 -0.5344  0.9811 -0.6880
   87SAPS  H10X 8385   1.428   3.660   9.349 -0.2481  0.3412 -1.7075
   87SAPS  H10Y 8386   1.329   3.797   9.302  0.3917  0.9960 -0.4944
   87SAPS  C311 8387   1.323   3.612   9.169 -0.2342 -0.3730  0.1262
   87SAPS  H11X 8388   1.403   3.656   9.106  0.8583 -1.8817  0.3978
   87SAPS  H11Y 8389   1.227   3.639   9.121  0.7598 -0.9860 -2.4089
   87SAPS  C312 8390   1.345   3.459   9.171  0.2443  0.4163 -0.2229
   87SAPS  H12X 8391   1.277   3.411   9.244 -0.3464 -0.0081 -1.0263
   87SAPS  H12Y 8392   1.446   3.419   9.191 -0.3359 -1.7869 -1.3273
   87SAPS  C313 8393   1.294   3.398   9.034 -0.4248 -0.2442  0.0754
   87SAPS  H13X 8394   1.186   3.416   9.013 -0.7161 -3.7068 -2.0299
   87SAPS  H13Y 8395   1.296   3.287   9.034 -2.2634 -0.3368  1.8886
   87SAPS  C314 8396   1.387   3.438   8.910  0.4702  0.0121  0.2452
   87SAPS  H14X 8397   1.493   3.417   8.934  0.6916 -2.5162 -2.3478
   87SAPS  H14Y 8398   1.380   3.545   8.882  4.1899  0.3867  0.2628
   87SAPS  C315 8399   1.352   3.364   8.780 -0.1147  0.0163  0.3512
   87SAPS  H15X 8400   1.338   3.425   8.688 -2.3812 -1.5189 -0.4288
   87SAPS  H15Y 8401   1.247   3.338   8.805  0.5678 -2.8682  0.5982
   87SAPS  C316 8402   1.423   3.230   8.761  0.8877  0.8034  0.3626
   87SAPS  H16X 8403   1.413   3.181   8.860  2.1586  3.0795  1.7126
   87SAPS  H16Y 8404   1.529   3.262   8.752  0.2501  3.0827  0.3218
   87SAPS  C317 8405   1.357   3.130   8.666 -0.6407  0.2500  0.0476
   87SAPS  H17X 8406   1.372   3.170   8.563 -1.0181  2.6570  0.8557
   87SAPS  H17Y 8407   1.252   3.120   8.701 -1.1816 -1.5511 -1.8507
   87SAPS  C318 8408   1.415   2.985   8.680  0.2298  0.3614 -0.6042
   87SAPS  H18X 8409   1.420   2.951   8.786 -0.4843 -0.9518 -0.9642
   87SAPS  H18Y 8410   1.518   2.979   8.640  0.5020  0.4239  0.0802
   87SAPS  H18Z 8411   1.345   2.909   8.637 -1.8596  0.2555  2.6173
   88SAPS     N 8412   0.893   0.918  10.920  1.0113  0.4284  0.1969
   88SAPS   HN1 8413   0.896   0.905  11.023  4.2152  0.3091  0.1970
   88SAPS   HN2 8414   0.959   0.997  10.904  1.2955 -0.4039 -3.4587
   88SAPS   HN3 8415   0.800   0.957  10.896  0.7403  0.1377  0.7483
   88SAPS   C12 8416   0.918   0.795  10.840  0.2522  0.3100 -0.2072
   88SAPS  H12A 8417   1.009   0.749  10.874  0.1131 -0.3459 -0.6891
   88SAPS   C13 8418   0.801   0.696  10.844  0.3745 -0.8672  0.4301
   88SAPS  O13A 8419   0.710   0.713  10.930 -0.1762  0.6788 -0.3962
   88SAPS  O13B 8420   0.815   0.580  10.792  0.4960 -0.1819 -0.1673
   88SAPS   C11 8421   0.944   0.817  10.685 -0.1462  0.8390 -0.2132
   88SAPS  H11A 8422   0.850   0.855  10.640 -0.9312  1.8075  2.0641
   88SAPS  H11B 8423   0.969   0.721  10.636  0.3466  0.4814  0.7101
   88SAPS     P 8424   1.186   0.908  10.640  0.4059 -0.0107  0.1683
   88SAPS   O13 8425   1.239   1.041  10.614 -0.2746  0.2079 -0.5319
   88SAPS   O14 8426   1.247   0.832  10.750 -0.4665 -0.4380  0.5050
   88SAPS   O12 8427   1.032   0.921  10.673 -0.2907  0.2099  0.2226
   88SAPS   O11 8428   1.184   0.826  10.503 -0.4937  0.1059 -0.1324
   88SAPS    C1 8429   1.112   0.879  10.389  0.0223  0.8393  0.0898
   88SAPS    HA 8430   1.020   0.933  10.420 -0.5111  1.0796 -1.7912
   88SAPS    HB 8431   1.186   0.943  10.338  1.3523  0.7550  1.8468
   88SAPS    C2 8432   1.061   0.756  10.308 -0.2262  0.3711 -0.2387
   88SAPS    HS 8433   1.046   0.795  10.205  2.2735  2.3312  0.0580
   88SAPS   O21 8434   0.933   0.713  10.363  0.0372  0.1380  0.2874
   88SAPS   C21 8435   0.830   0.789  10.338 -0.0707 -0.3018  0.4036
   88SAPS   O22 8436   0.836   0.909  10.304  0.5124  0.0471 -0.4502
   88SAPS   C22 8437   0.698   0.711  10.328 -0.4248  0.3781  0.4249
   88SAPS   H2R 8438   0.719   0.609  10.367  1.0387  0.5251  0.1029
   88SAPS   H2S 8439   0.615   0.757  10.385 -1.6973 -0.0758 -0.9913
   88SAPS    C3 8440   1.157   0.638  10.301 -0.5613  0.0909 -0.0730
   88SAPS    HX 8441   1.117   0.565  10.228  1.6169  1.6249 -3.0120
   88SAPS    HY 8442   1.156   0.600  10.406 -0.8913  0.9496  0.2410
   88SAPS   O31 8443   1.292   0.672  10.273 -0.2457  0.2106 -0.9558
   88SAPS   C31 8444   1.352   0.600  10.182  0.6302 -0.1544  0.0109
   88SAPS   O32 8445   1.319   0.490  10.134 -0.4528  0.0007 -0.2951
   88SAPS   C32 8446   1.487   0.662  10.138  0.4616  0.4146 -0.1620
   88SAPS   H2X 8447   1.568   0.638  10.211 -0.5071 -2.9918 -0.0380
   88SAPS   H2Y 8448   1.476   0.773  10.133  3.3453  0.7159 -1.3583
   88SAPS   C23 8449   0.643   0.706  10.181 -0.4450 -0.1582  0.2889
   88SAPS   H3R 8450   0.658   0.808  10.140 -0.8354  0.4558  1.6365
   88SAPS   H3S 8451   0.534   0.695  10.193 -0.9768  4.6909  1.9018
   88SAPS   C24 8452   0.700   0.609  10.082 -0.3167  0.0453 -0.6478
   88SAPS   H4R 8453   0.645   0.599   9.986 -0.7827 -1.2290 -0.2755
   88SAPS   H4S 8454   0.685   0.508  10.126 -1.9921 -0.2718 -1.8582
   88SAPS   C25 8455   0.841   0.630  10.042 -0.1285  0.2315  0.2042
   88SAPS   H5R 8456   0.913   0.585  10.111 -0.7560 -0.1043  0.6530
   88SAPS   C26 8457   0.875   0.702   9.933 -0.3537  0.6524  0.3161
   88SAPS   H6R 8458   0.979   0.713   9.899 -0.0171  2.3752  1.7820
   88SAPS   C27 8459   0.783   0.784   9.849 -0.2324 -0.1496  0.7411
   88SAPS   H7R 8460   0.674   0.778   9.871 -0.1466 -2.7593  0.7827
   88SAPS   H7S 8461   0.798   0.758   9.742  0.2884  2.1985  0.1791
   88SAPS   C28 8462   0.814   0.933   9.873  0.4310  0.4237  0.2814
   88SAPS   H8R 8463   0.813   0.962   9.979  1.7809  0.6925  0.2376
   88SAPS   C29 8464   0.839   1.029   9.781 -0.2005 -0.3339  0.0189
   88SAPS   H9R 8465   0.878   1.126   9.815 -1.3450  1.2955 -2.9306
   88SAPS  C210 8466   0.845   0.999   9.636  0.6608  0.0168  0.4221
   88SAPS  H10R 8467   0.888   0.899   9.614  0.2119 -0.2081  0.5610
   88SAPS  H10S 8468   0.928   1.058   9.590  1.1852 -0.9171  0.1351
   88SAPS  C211 8469   0.710   1.014   9.573  0.2514 -0.6083 -0.3231
   88SAPS  H11R 8470   0.637   1.057   9.643 -0.0741  0.0928 -1.0741
   88SAPS  C212 8471   0.687   0.990   9.443  0.5138 -0.2757  0.6168
   88SAPS  H12R 8472   0.589   1.016   9.399  0.1908  0.1993  1.5678
   88SAPS  C213 8473   0.784   0.933   9.353  0.1255  0.1256  0.4728
   88SAPS  H13R 8474   0.884   0.944   9.402 -0.1689  3.6731  0.5464
   88SAPS  H13S 8475   0.812   1.000   9.269 -1.5292 -0.3788 -0.5266
   88SAPS  C214 8476   0.748   0.799   9.300 -0.2688  0.4522 -0.1916
   88SAPS  H14R 8477   0.670   0.750   9.360  2.5695 -2.6053  1.3130
   88SAPS  C215 8478   0.782   0.740   9.182 -0.4681  0.3673 -0.2999
   88SAPS  H15R 8479   0.736   0.643   9.160 -1.0579  0.7117 -0.6192
   88SAPS  C216 8480   0.870   0.807   9.076 -0.7028  0.5260  0.4845
   88SAPS  H16R 8481   0.976   0.794   9.106  0.0481 -1.9693 -2.7675
   88SAPS  H16S 8482   0.842   0.915   9.069 -0.5805  0.4367 -2.6797
   88SAPS  C217 8483   0.863   0.754   8.930  0.6187 -0.4511 -0.3831
   88SAPS  H17R 8484   0.879   0.644   8.933  0.6879 -0.4909 -1.5959
   88SAPS  H17S 8485   0.953   0.798   8.882 -0.2575  2.7364  0.6939
   88SAPS  C218 8486   0.737   0.799   8.862 -0.3535  0.7760 -0.4267
   88SAPS  H18R 8487   0.726   0.909   8.876 -1.5356  0.9306 -2.2693
   88SAPS  H18S 8488   0.648   0.745   8.902 -0.1272 -0.0070 -0.9812
   88SAPS  C219 8489   0.751   0.767   8.705 -0.2159  0.6310 -1.4046
   88SAPS  H19R 8490   0.796   0.671   8.674 -0.7091  0.3929 -1.3941
   88SAPS  H19S 8491   0.811   0.853   8.669  0.8867  0.3167 -0.3840
   88SAPS  C220 8492   0.610   0.763   8.645  0.6549  0.5894  0.1365
   88SAPS  H20R 8493   0.551   0.853   8.675 -0.2891  0.3369 -0.8927
   88SAPS  H20S 8494   0.562   0.669   8.681  2.5326 -0.6222 -0.3944
   88SAPS  H20T 8495   0.613   0.751   8.535 -0.2046 -1.9249  0.3342
   88SAPS   C33 8496   1.526   0.614  10.006 -0.5761  0.2402  0.6968
   88SAPS   H3X 8497   1.451   0.620   9.924 -0.0575 -2.0359 -0.0159
   88SAPS   H3Y 8498   1.542   0.505  10.000 -0.1180  0.3766 -1.9192
   88SAPS   C34 8499   1.650   0.691   9.960 -0.9232  0.0873 -0.2792
   88SAPS   H4X 8500   1.729   0.653  10.028 -0.3029  3.0914  0.8223
   88SAPS   H4Y 8501   1.639   0.798   9.987 -1.1109  0.4344 -1.6292
   88SAPS   C35 8502   1.696   0.678   9.816  0.6459 -0.3049  0.6434
   88SAPS   H5X 8503   1.677   0.572   9.788  0.5468 -0.3209  0.7700
   88SAPS   H5Y 8504   1.804   0.699   9.798  0.8763  0.4453  2.6349
   88SAPS   C36 8505   1.613   0.776   9.724 -0.2959 -0.7512 -0.9901
   88SAPS   H6X 8506   1.604   0.876   9.773 -0.1118 -1.7857  1.2454
   88SAPS   H6Y 8507   1.512   0.731   9.725 -0.3446 -0.7082  1.1553
   88SAPS   C37 8508   1.663   0.773   9.575 -0.5423  0.4401  0.4684
   88SAPS   H7X 8509   1.628   0.697   9.502 -0.3266  1.8792 -1.2163
   88SAPS   H7Y 8510   1.773   0.758   9.578 -0.8092 -1.7269  0.3907
   88SAPS   C38 8511   1.618   0.901   9.505  0.0985 -1.0010 -0.5683
   88SAPS   H8X 8512   1.645   0.991   9.563  0.6239 -0.0298 -2.2522
   88SAPS   H8Y 8513   1.507   0.891   9.504 -0.0163  0.2071 -1.1787
   88SAPS   C39 8514   1.665   0.926   9.362 -0.5478 -0.2223 -0.2237
   88SAPS   H9X 8515   1.662   0.829   9.307  2.9507  0.2452 -1.5185
   88SAPS   H9Y 8516   1.772   0.952   9.373 -0.9373  0.8177  1.3027
   88SAPS  C310 8517   1.598   1.041   9.292  0.2596  0.1878 -0.4217
   88SAPS  H10X 8518   1.588   1.120   9.369 -3.7608  0.0307 -0.5757
   88SAPS  H10Y 8519   1.496   1.003   9.268 -0.0572  0.8214 -0.0986
   88SAPS  C311 8520   1.667   1.091   9.166  0.3736  0.5491 -0.1522
   88SAPS  H11X 8521   1.774   1.115   9.181  0.4704 -1.2227  2.6628
   88SAPS  H11Y 8522   1.614   1.189   9.161  0.2328  0.9532  4.6133
   88SAPS  C312 8523   1.638   0.999   9.051 -0.4523  0.2912 -0.9242
   88SAPS  H12X 8524   1.542   0.947   9.074 -0.8350  0.8921 -1.1506
   88SAPS  H12Y 8525   1.721   0.927   9.037 -0.3208 -0.3081  2.2085
   88SAPS  C313 8526   1.620   1.084   8.921  0.0022 -0.1096  0.0386
   88SAPS  H13X 8527   1.710   1.144   8.895 -0.5454  1.6697  1.9189
   88SAPS  H13Y 8528   1.552   1.172   8.931 -1.6196 -1.4437  1.4187
   88SAPS  C314 8529   1.561   0.998   8.803 -0.5430 -0.7183 -0.0082
   88SAPS  H14X 8530   1.488   1.059   8.744 -2.0069 -0.9287  1.5097
   88SAPS  H14Y 8531   1.498   0.918   8.848  0.8577 -2.0587 -0.3558
   88SAPS  C315 8532   1.670   0.944   8.723  0.3395  0.9518  0.8532
   88SAPS  H15X 8533   1.738   0.890   8.792  1.3071  1.1717  0.1013
   88SAPS  H15Y 8534   1.739   1.023   8.687  0.8420 -0.9515 -2.8628
   88SAPS  C316 8535   1.635   0.847   8.607  0.3577  0.0663  0.0968
   88SAPS  H16X 8536   1.585   0.919   8.538 -0.5423  0.2612  0.9227
   88SAPS  H16Y 8537   1.566   0.762   8.625  3.3950 -2.3974  0.8928
   88SAPS  C317 8538   1.762   0.779   8.551 -0.9609  0.1055  1.0978
   88SAPS  H17X 8539   1.804   0.699   8.616  0.0205 -0.0603  0.2814
   88SAPS  H17Y 8540   1.845   0.852   8.539  1.3520 -2.5466 -0.3117
   88SAPS  C318 8541   1.742   0.724   8.405 -0.1652 -0.1139 -0.7997
   88SAPS  H18X 8542   1.830   0.670   8.365  0.3495 -1.5401  1.9563
   88SAPS  H18Y 8543   1.722   0.812   8.341 -0.1941  0.4408 -0.0415
   88SAPS  H18Z 8544   1.656   0.654   8.411 -0.0244 -0.1963  0.6404
   89SAPS     N 8545   1.822   3.627  10.717  0.1286 -0.4577 -0.2780
   89SAPS   HN1 8546   1.866   3.659  10.628  1.1927 -0.7151  0.1424
   89SAPS   HN2 8547   1.762   3.546  10.693 -0.4154  0.9042 -4.5242
   89SAPS   HN3 8548   1.761   3.704  10.751  4.5515  3.7287 -0.7346
   89SAPS   C12 8549   1.923   3.601  10.818  0.3131 -0.3598 -0.0069
   89SAPS  H12A 8550   1.988   3.687  10.823  2.4710 -1.9534  0.8069
   89SAPS   C13 8551   1.860   3.587  10.958 -0.0510  0.1865 -0.1547
   89SAPS  O13A 8552   1.736   3.575  10.969  0.4816  0.1439 -0.5169
   89SAPS  O13B 8553   1.942   3.559  11.053  0.1242 -0.2995  0.1513
   89SAPS   C11 8554   2.004   3.471  10.785 -0.2564 -0.3660  0.0214
   89SAPS  H11A 8555   1.942   3.378  10.782  1.9729 -1.9232 -0.0788
   89SAPS  H11B 8556   2.079   3.477  10.867 -0.5966  2.5171  0.2216
   89SAPS     P 8557   2.218   3.468  10.627  0.2603 -0.0352 -0.3260
   89SAPS   O13 8558   2.281   3.581  10.691 -0.0143 -0.4960 -0.5433
   89SAPS   O14 8559   2.280   3.335  10.654  0.7008  0.0698 -0.3367
   89SAPS   O12 8560   2.064   3.476  10.656  0.5842  0.7523 -0.3008
   89SAPS   O11 8561   2.226   3.497  10.470 -0.5302  0.0719  0.1196
   89SAPS    C1 8562   2.126   3.445  10.389  0.2941 -0.5103  0.3474
   89SAPS    HA 8563   2.133   3.335  10.389 -0.4208 -0.5827 -1.4645
   89SAPS    HB 8564   2.031   3.481  10.434 -0.0320  1.1368 -1.5047
   89SAPS    C2 8565   2.146   3.494  10.245  0.2976  0.4575 -0.4448
   89SAPS    HS 8566   2.076   3.439  10.178  1.7248 -2.4253  0.2697
   89SAPS   O21 8567   2.277   3.487  10.196  0.5497 -0.2660  0.2670
   89SAPS   C21 8568   2.345   3.376  10.208  0.0394  0.3511  0.1713
   89SAPS   O22 8569   2.305   3.267  10.246  0.0939 -0.1346 -0.4028
   89SAPS   C22 8570   2.494   3.400  10.173 -0.9017  0.1025  0.4005
   89SAPS   H2R 8571   2.543   3.458  10.255 -1.8552 -0.8145  1.6639
   89SAPS   H2S 8572   2.541   3.300  10.172 -1.2341 -0.0483 -0.3430
   89SAPS    C3 8573   2.111   3.646  10.232  0.1759  0.4794 -0.3084
   89SAPS    HX 8574   2.144   3.701  10.323  1.4343 -1.2579  0.3246
   89SAPS    HY 8575   2.000   3.650  10.235  0.1685 -0.2856  0.8757
   89SAPS   O31 8576   2.162   3.705  10.113 -0.2280 -0.3457  0.0810
   89SAPS   C31 8577   2.282   3.762  10.117  0.0096  0.6901 -0.7605
   89SAPS   O32 8578   2.346   3.784  10.220  0.6025 -0.0530  0.5164
   89SAPS   C32 8579   2.315   3.805   9.981 -0.5917 -0.7635  0.3086
   89SAPS   H2X 8580   2.257   3.898   9.963 -0.1847 -0.6454 -0.4676
   89SAPS   H2Y 8581   2.278   3.722   9.916 -1.4032 -1.2294  1.3435
   89SAPS   C23 8582   2.508   3.469  10.037  0.3461  0.3365  0.6380
   89SAPS   H3R 8583   2.462   3.569  10.056 -0.7574  0.4509 -2.1578
   89SAPS   H3S 8584   2.444   3.441   9.950 -0.8809  2.1098  0.9038
   89SAPS   C24 8585   2.653   3.485   9.991 -0.4745 -0.4093  0.0402
   89SAPS   H4R 8586   2.709   3.550  10.062  0.4762 -0.5684 -0.5433
   89SAPS   H4S 8587   2.656   3.535   9.892  0.2146 -1.3652 -0.4362
   89SAPS   C25 8588   2.722   3.356   9.984  0.0107  0.1350  0.5293
   89SAPS   H5R 8589   2.770   3.324  10.078 -1.7686 -1.6142  0.9166
   89SAPS   C26 8590   2.727   3.279   9.874  0.2529 -0.4181  0.0710
   89SAPS   H6R 8591   2.787   3.187   9.881  0.2466 -0.5130 -0.9680
   89SAPS   C27 8592   2.665   3.309   9.744  0.2352  0.1327 -0.5658
   89SAPS   H7R 8593   2.738   3.373   9.690  0.9720  0.2657  0.5337
   89SAPS   H7S 8594   2.573   3.369   9.759 -0.7713 -1.7978  1.6850
   89SAPS   C28 8595   2.635   3.180   9.667  0.0060  0.1567  0.1159
   89SAPS   H8R 8596   2.587   3.097   9.721 -1.0942 -0.4051 -1.6439
   89SAPS   C29 8597   2.637   3.157   9.530 -0.3163 -1.3266 -0.8031
   89SAPS   H9R 8598   2.613   3.055   9.498  1.5175 -2.4517  1.1376
   89SAPS  C210 8599   2.688   3.252   9.427 -0.4441  0.7739  0.0279
   89SAPS  H10R 8600   2.785   3.291   9.465 -1.3056 -0.7686  4.3203
   89SAPS  H10S 8601   2.630   3.347   9.426 -0.4421  0.7861 -1.8536
   89SAPS  C211 8602   2.701   3.208   9.282 -0.3014  0.8121 -0.9481
   89SAPS  H11R 8603   2.801   3.167   9.257  0.9098  1.6423  2.1142
   89SAPS  C212 8604   2.599   3.214   9.193  0.0407 -0.4106 -0.5068
   89SAPS  H12R 8605   2.626   3.188   9.090 -1.1337 -0.6142 -0.7758
   89SAPS  C213 8606   2.460   3.263   9.226  0.1333 -0.4645 -0.1160
   89SAPS  H13R 8607   2.441   3.365   9.186 -1.1237  0.3838  2.4237
   89SAPS  H13S 8608   2.456   3.276   9.336  4.1821 -0.5459  0.2008
   89SAPS  C214 8609   2.349   3.169   9.184 -0.2612 -1.0347 -1.0076
   89SAPS  H14R 8610   2.320   3.104   9.269  0.2109 -0.4490 -0.3875
   89SAPS  C215 8611   2.290   3.164   9.066 -0.4744  0.3847  0.0341
   89SAPS  H15R 8612   2.208   3.092   9.051  0.9572 -1.5838  1.2235
   89SAPS  C216 8613   2.329   3.260   8.954  0.1360 -0.0278  0.6186
   89SAPS  H16R 8614   2.416   3.226   8.894 -0.7002  0.6098 -1.0321
   89SAPS  H16S 8615   2.347   3.367   8.981  0.3924  0.4484 -1.3174
   89SAPS  C217 8616   2.216   3.257   8.850  0.1811 -0.5052 -0.9368
   89SAPS  H17R 8617   2.121   3.297   8.892  0.2193  0.3070 -1.6046
   89SAPS  H17S 8618   2.206   3.153   8.810 -0.6353  0.3845 -3.2043
   89SAPS  C218 8619   2.249   3.351   8.735  0.1769 -0.3679 -0.0087
   89SAPS  H18R 8620   2.321   3.309   8.662 -2.2078  0.3895 -3.0135
   89SAPS  H18S 8621   2.278   3.452   8.771  1.8042 -0.6790 -0.3574
   89SAPS  C219 8622   2.121   3.362   8.635 -0.7638  0.3606 -0.2095
   89SAPS  H19R 8623   2.056   3.424   8.700 -1.8338 -0.2605 -0.6600
   89SAPS  H19S 8624   2.082   3.258   8.623 -0.8774  0.0687  2.1136
   89SAPS  C220 8625   2.148   3.425   8.500 -0.1031 -0.9069  0.9573
   89SAPS  H20R 8626   2.187   3.525   8.526 -1.3359 -0.6268  1.8531
   89SAPS  H20S 8627   2.056   3.433   8.438 -0.1890 -2.8593  0.7563
   89SAPS  H20T 8628   2.221   3.372   8.436 -0.3776  0.9293 -0.9692
   89SAPS   C33 8629   2.463   3.845   9.957 -0.3209  0.0636 -0.1998
   89SAPS   H3X 8630   2.540   3.787  10.013  0.5526  0.5639 -0.8439
   89SAPS   H3Y 8631   2.475   3.948   9.995  0.4007 -0.6047  1.4756
   89SAPS   C34 8632   2.498   3.861   9.805 -0.1584 -0.0915 -0.2428
   89SAPS   H4X 8633   2.606   3.880   9.787 -0.5775  1.3491 -1.3954
   89SAPS   H4Y 8634   2.458   3.957   9.769  2.9271  0.6710 -2.0525
   89SAPS   C35 8635   2.458   3.747   9.705  0.1159  0.4473  0.0394
   89SAPS   H5X 8636   2.348   3.735   9.714  0.1575 -0.3169 -0.3465
   89SAPS   H5Y 8637   2.520   3.660   9.737  1.3322  2.1156  2.5313
   89SAPS   C36 8638   2.484   3.796   9.561  0.8023  0.3527 -0.2132
   89SAPS   H6X 8639   2.594   3.789   9.542  1.0521 -0.5129  1.3532
   89SAPS   H6Y 8640   2.454   3.903   9.554 -1.9320 -0.3694 -0.5812
   89SAPS   C37 8641   2.425   3.714   9.448 -0.2984 -0.1542  0.3578
   89SAPS   H7X 8642   2.320   3.750   9.445  0.5798  2.9608  2.6098
   89SAPS   H7Y 8643   2.430   3.610   9.487  0.0073 -0.2342  0.1126
   89SAPS   C38 8644   2.484   3.719   9.304  0.8235 -0.6358  0.4823
   89SAPS   H8X 8645   2.532   3.818   9.286  0.1137  0.0575  2.2215
   89SAPS   H8Y 8646   2.399   3.710   9.233  1.0283 -0.9344  0.2755
   89SAPS   C39 8647   2.589   3.614   9.273 -0.4790 -0.6645 -0.7452
   89SAPS   H9X 8648   2.558   3.513   9.308 -1.4458 -0.3428 -0.6425
   89SAPS   H9Y 8649   2.676   3.644   9.337 -0.6469 -2.2351  0.2909
   89SAPS  C310 8650   2.630   3.609   9.129  0.6672 -0.3142  0.1323
   89SAPS  H10X 8651   2.546   3.586   9.061  1.1717  0.2183 -0.6933
   89SAPS  H10Y 8652   2.713   3.538   9.109  0.1985 -0.9906  0.5581
   89SAPS  C311 8653   2.683   3.740   9.068  0.0808 -0.4193 -0.6708
   89SAPS  H11X 8654   2.599   3.809   9.088 -0.5694 -1.7708  1.5693
   89SAPS  H11Y 8655   2.682   3.724   8.958 -4.7874 -0.8481 -0.7448
   89SAPS  C312 8656   2.824   3.772   9.118  0.4044 -0.1539 -0.3660
   89SAPS  H12X 8657   2.834   3.723   9.218 -1.4110  0.3045  0.0814
   89SAPS  H12Y 8658   2.829   3.881   9.140  1.9577 -0.0815 -1.0179
   89SAPS  C313 8659   2.947   3.726   9.039 -0.6817 -0.0392  0.4409
   89SAPS  H13X 8660   2.938   3.620   9.010  1.0440 -0.1675  0.2730
   89SAPS  H13Y 8661   3.046   3.735   9.088 -0.0896 -1.8425 -0.3524
   89SAPS  C314 8662   2.964   3.804   8.909  0.2322  0.0493 -0.5471
   89SAPS  H14X 8663   2.973   3.912   8.931 -1.8785  0.7454 -2.7224
   89SAPS  H14Y 8664   2.874   3.797   8.845 -0.3316  1.1194  0.1252
   89SAPS  C315 8665   3.089   3.750   8.830  0.7477 -0.5264  0.5470
   89SAPS  H15X 8666   3.086   3.639   8.831 -0.8162 -0.5051  0.8488
   89SAPS  H15Y 8667   3.172   3.779   8.897  2.8324 -0.0187 -2.1137
   89SAPS  C316 8668   3.110   3.814   8.697 -0.6779 -0.0523  0.0560
   89SAPS  H16X 8669   3.100   3.923   8.716 -0.6473 -0.0809  0.2402
   89SAPS  H16Y 8670   3.029   3.782   8.628  1.6732 -3.4631 -1.4494
   89SAPS  C317 8671   3.245   3.766   8.636  0.0542  0.2079  0.5166
   89SAPS  H17X 8672   3.225   3.744   8.529  1.8605 -0.4142  0.2877
   89SAPS  H17Y 8673   3.276   3.667   8.675 -0.6101  0.0184  0.5868
   89SAPS  C318 8674   3.351   3.867   8.644 -0.1510 -0.1465 -1.0759
   89SAPS  H18X 8675   3.379   3.872   8.751  1.1708  1.5618 -1.4739
   89SAPS  H18Y 8676   3.316   3.968   8.613  0.8930  0.8006  0.6688
   89SAPS  H18Z 8677   3.449   3.840   8.600  1.0752  1.7075  0.4116
   90SAPS     N 8678   5.825   2.985  10.981  0.3320  0.1664 -0.1699
   90SAPS   HN1 8679   5.724   2.976  10.962  0.7409 -3.0564 -1.4474
   90SAPS   HN2 8680   5.875   2.951  10.897  0.4550  0.0529 -0.0528
   90SAPS   HN3 8681   5.860   2.918  11.052  0.5832  0.8087  0.3299
   90SAPS   C12 8682   5.882   3.125  11.011 -0.5886 -0.0489  0.2760
   90SAPS  H12A 8683   5.821   3.157  11.094 -0.3402  2.2170 -0.3620
   90SAPS   C13 8684   6.032   3.114  11.046  0.1419  0.3998  0.3207
   90SAPS  O13A 8685   6.087   3.000  11.045  0.3195 -0.3035  0.9449
   90SAPS  O13B 8686   6.100   3.219  11.063 -0.2072 -0.2505 -0.0932
   90SAPS   C11 8687   5.866   3.221  10.890  0.0396  0.3435  0.3724
   90SAPS  H11A 8688   5.891   3.178  10.791 -2.4419  1.4933 -0.8044
   90SAPS  H11B 8689   5.931   3.308  10.911  1.1137 -0.2194 -0.5211
   90SAPS     P 8690   5.645   3.284  10.763  0.1575 -0.2021  0.0605
   90SAPS   O13 8691   5.512   3.221  10.782 -0.2489 -0.5086  0.0622
   90SAPS   O14 8692   5.649   3.432  10.740 -0.2332  0.2969 -0.6004
   90SAPS   O12 8693   5.721   3.256  10.890 -0.1669 -0.3155 -0.1789
   90SAPS   O11 8694   5.727   3.216  10.652  0.0351 -0.2586 -0.1293
   90SAPS    C1 8695   5.665   3.113  10.575  0.6413 -0.7780  0.5062
   90SAPS    HA 8696   5.657   3.018  10.633  0.5158 -0.6194  0.7499
   90SAPS    HB 8697   5.560   3.134  10.547  0.9933 -0.6900 -0.7743
   90SAPS    C2 8698   5.740   3.087  10.447  0.1563  0.1213 -0.2390
   90SAPS    HS 8699   5.845   3.071  10.479  0.3010  0.2916 -0.6280
   90SAPS   O21 8700   5.722   3.204  10.372 -0.8772  0.2244  0.3498
   90SAPS   C21 8701   5.787   3.216  10.255  0.1308 -0.5780 -0.9458
   90SAPS   O22 8702   5.879   3.148  10.214 -0.3129 -0.1888 -0.6852
   90SAPS   C22 8703   5.716   3.322  10.171  0.3313  0.9490 -0.5783
   90SAPS   H2R 8704   5.618   3.347  10.219 -0.5401  0.9500 -2.2808
   90SAPS   H2S 8705   5.779   3.414  10.173 -0.7107  1.7318  2.5307
   90SAPS    C3 8706   5.698   2.952  10.372  0.5168  0.2777  0.2107
   90SAPS    HX 8707   5.701   2.861  10.436 -0.5690  0.1689  0.1189
   90SAPS    HY 8708   5.756   2.922  10.282 -1.8538 -2.0825 -0.6548
   90SAPS   O31 8709   5.559   2.955  10.335 -0.4509  0.2541  0.0361
   90SAPS   C31 8710   5.499   2.836  10.302  0.1658  0.2317  0.7674
   90SAPS   O32 8711   5.551   2.729  10.313 -0.2044  0.1056  0.4251
   90SAPS   C32 8712   5.351   2.864  10.262 -0.5077 -0.5765  0.1007
   90SAPS   H2X 8713   5.322   2.968  10.287  1.0826  0.0958 -0.7219
   90SAPS   H2Y 8714   5.294   2.801  10.334 -1.9783  0.7255  0.1140
   90SAPS   C23 8715   5.711   3.268  10.030 -0.5448  0.3936 -0.2272
   90SAPS   H3R 8716   5.811   3.231   9.999 -1.3299  0.0237 -2.5416
   90SAPS   H3S 8717   5.687   3.350   9.958 -0.1262  1.3616  0.7037
   90SAPS   C24 8718   5.618   3.152  10.019  1.1752  0.2282 -0.2735
   90SAPS   H4R 8719   5.647   3.062  10.077  0.2217  0.0136 -0.1073
   90SAPS   H4S 8720   5.633   3.113   9.916 -1.7815 -0.9732 -0.3493
   90SAPS   C25 8721   5.467   3.190  10.039 -0.0574  0.6998  0.1340
   90SAPS   H5R 8722   5.446   3.239  10.135  0.5731  0.3909  0.4326
   90SAPS   C26 8723   5.367   3.181   9.952  0.2898  0.4734  0.3764
   90SAPS   H6R 8724   5.263   3.187   9.987 -1.0261 -1.4157 -2.7410
   90SAPS   C27 8725   5.384   3.125   9.812  0.5720 -0.0044 -0.2679
   90SAPS   H7R 8726   5.289   3.080   9.777  0.1990  0.4323  0.1716
   90SAPS   H7S 8727   5.461   3.046   9.827 -1.0799 -1.6876 -0.3388
   90SAPS   C28 8728   5.448   3.200   9.695  0.2677 -0.6126 -0.6170
   90SAPS   H8R 8729   5.520   3.277   9.725 -1.3717  0.3434  1.1057
   90SAPS   C29 8730   5.418   3.179   9.563 -0.3581  0.4666  0.4654
   90SAPS   H9R 8731   5.472   3.233   9.484  0.0723  0.5990  0.8452
   90SAPS  C210 8732   5.317   3.079   9.509 -0.1833 -0.4729  0.2638
   90SAPS  H10R 8733   5.212   3.111   9.521 -0.0314 -0.1424  0.7439
   90SAPS  H10S 8734   5.344   2.988   9.567  0.3716 -0.7440 -0.4012
   90SAPS  C211 8735   5.350   3.057   9.366 -0.2736 -0.0246 -0.3105
   90SAPS  H11R 8736   5.437   2.990   9.364  0.7731  1.0628  2.9042
   90SAPS  C212 8737   5.295   3.116   9.260 -0.1076 -0.5637  0.0131
   90SAPS  H12R 8738   5.326   3.087   9.158 -1.6990 -0.5249 -0.5176
   90SAPS  C213 8739   5.190   3.226   9.264  0.3754 -0.0930  0.1283
   90SAPS  H13R 8740   5.133   3.216   9.359  0.5704  2.0003  0.5038
   90SAPS  H13S 8741   5.118   3.232   9.180 -0.7535 -0.4068  1.0399
   90SAPS  C214 8742   5.257   3.361   9.267  0.2156  0.0880 -0.6827
   90SAPS  H14R 8743   5.328   3.360   9.351  0.4998 -0.3459 -0.9234
   90SAPS  C215 8744   5.259   3.455   9.165  0.0268 -1.1150 -0.0271
   90SAPS  H15R 8745   5.318   3.547   9.180  0.9594 -2.1033  3.1286
   90SAPS  C216 8746   5.182   3.464   9.035  0.0547  0.4486 -0.2408
   90SAPS  H16R 8747   5.085   3.410   9.034 -2.6168  4.7074  0.7986
   90SAPS  H16S 8748   5.232   3.413   8.950 -1.8106 -2.7192  0.3819
   90SAPS  C217 8749   5.138   3.611   9.001  0.1056  0.5169 -0.4188
   90SAPS  H17R 8750   5.235   3.659   8.976  1.0774 -1.0753  0.1143
   90SAPS  H17S 8751   5.100   3.656   9.095 -0.7467 -0.1655 -0.4255
   90SAPS  C218 8752   5.022   3.630   8.900  0.0486 -0.0577 -0.0353
   90SAPS  H18R 8753   4.925   3.624   8.954  0.8500  1.0010  1.5991
   90SAPS  H18S 8754   5.010   3.543   8.831  1.0934  1.5294 -2.3214
   90SAPS  C219 8755   5.037   3.766   8.823  0.0082 -0.5495  0.9375
   90SAPS  H19R 8756   5.116   3.754   8.746 -0.6886  3.3849 -0.6446
   90SAPS  H19S 8757   5.069   3.854   8.884  1.2246  0.5273 -1.1304
   90SAPS  C220 8758   4.910   3.824   8.752 -0.9049  0.8424  0.0189
   90SAPS  H20R 8759   4.935   3.905   8.681 -1.3447  1.2605  0.3325
   90SAPS  H20S 8760   4.852   3.864   8.838  1.7781  2.2966  1.2992
   90SAPS  H20T 8761   4.862   3.741   8.695  1.3370 -0.8811  0.4904
   90SAPS   C33 8762   5.302   2.829  10.117 -0.1220  0.3246  0.3047
   90SAPS   H3X 8763   5.342   2.730  10.088 -0.3402 -0.1749  1.6283
   90SAPS   H3Y 8764   5.353   2.907  10.055  0.7396  0.9956  1.8021
   90SAPS   C34 8765   5.141   2.831  10.101 -0.7436 -0.0459 -0.1844
   90SAPS   H4X 8766   5.106   2.911  10.170  2.8312  0.1060  1.6672
   90SAPS   H4Y 8767   5.103   2.735  10.141  0.5310 -0.8163 -0.7597
   90SAPS   C35 8768   5.085   2.858   9.958  0.0062  0.3635  0.3701
   90SAPS   H5X 8769   5.101   2.966   9.938 -1.9822  0.8252  1.1014
   90SAPS   H5Y 8770   4.975   2.849   9.957  0.0001  0.0124 -2.3907
   90SAPS   C36 8771   5.141   2.777   9.843 -0.0984  0.5633  0.4094
   90SAPS   H6X 8772   5.140   2.666   9.855 -0.3810  0.1719 -2.4195
   90SAPS   H6Y 8773   5.246   2.805   9.820  0.4313 -1.1353  0.6153
   90SAPS   C37 8774   5.073   2.801   9.707 -0.1275 -0.2651  0.8481
   90SAPS   H7X 8775   5.109   2.734   9.626 -0.3931  0.7943 -0.1605
   90SAPS   H7Y 8776   5.081   2.909   9.683 -0.1917 -0.1745  1.2204
   90SAPS   C38 8777   4.917   2.781   9.717  0.3940 -0.3415  0.0053
   90SAPS   H8X 8778   4.868   2.871   9.759 -1.4316 -2.0813  1.8285
   90SAPS   H8Y 8779   4.908   2.704   9.797  1.5734  2.4133  2.9760
   90SAPS   C39 8780   4.845   2.747   9.591 -0.2114 -0.2868  0.7751
   90SAPS   H9X 8781   4.734   2.748   9.601 -0.1221  1.7901  1.9887
   90SAPS   H9Y 8782   4.887   2.652   9.550 -0.1955 -0.4716  1.2145
   90SAPS  C310 8783   4.874   2.854   9.486 -0.8196  0.0358 -0.4694
   90SAPS  H10X 8784   4.974   2.843   9.439 -0.2568  0.7092  0.5270
   90SAPS  H10Y 8785   4.864   2.957   9.527  1.1931  1.3699 -3.0054
   90SAPS  C311 8786   4.778   2.839   9.368  0.6655 -0.2357  0.0584
   90SAPS  H11X 8787   4.782   2.741   9.315 -0.7552 -0.4122  0.2370
   90SAPS  H11Y 8788   4.805   2.914   9.290  1.1476 -2.1267 -1.7057
   90SAPS  C312 8789   4.626   2.868   9.392  0.1986 -0.5843  0.2137
   90SAPS  H12X 8790   4.624   2.974   9.424 -1.0948 -0.0570 -1.4726
   90SAPS  H12Y 8791   4.591   2.811   9.480  0.6247  0.9957  1.4400
   90SAPS  C313 8792   4.540   2.839   9.268  0.6213  0.7110  0.9864
   90SAPS  H13X 8793   4.596   2.854   9.174 -1.6787  1.9535 -0.2773
   90SAPS  H13Y 8794   4.461   2.916   9.261  0.4246  0.4011 -4.6556
   90SAPS  C314 8795   4.491   2.697   9.270  0.2711 -0.2637  0.2248
   90SAPS  H14X 8796   4.403   2.696   9.338 -1.1964 -0.3785 -1.6149
   90SAPS  H14Y 8797   4.569   2.630   9.312  2.2843  1.2343 -0.9551
   90SAPS  C315 8798   4.452   2.649   9.129 -0.0878 -0.7420 -0.7771
   90SAPS  H15X 8799   4.550   2.659   9.078  1.1742  3.0959  1.9119
   90SAPS  H15Y 8800   4.370   2.702   9.076 -3.2926 -2.1727  2.3574
   90SAPS  C316 8801   4.402   2.506   9.137 -0.3447 -0.6163 -1.3784
   90SAPS  H16X 8802   4.295   2.513   9.166 -0.1094  1.6613 -0.9132
   90SAPS  H16Y 8803   4.458   2.456   9.219 -0.7037 -1.1744 -1.4711
   90SAPS  C317 8804   4.416   2.445   9.002  0.0962 -0.0870 -0.8545
   90SAPS  H17X 8805   4.523   2.451   8.973  0.7592  1.1668  1.5508
   90SAPS  H17Y 8806   4.347   2.491   8.929 -0.4382  0.3309 -0.1052
   90SAPS  C318 8807   4.369   2.298   9.007 -0.5354 -0.0854  0.3391
   90SAPS  H18X 8808   4.262   2.278   9.030 -0.7777  0.8491  0.0890
   90SAPS  H18Y 8809   4.436   2.233   9.066 -0.0953  2.0945  2.3754
   90SAPS  H18Z 8810   4.371   2.256   8.904 -1.2801  0.0120  0.2802
   91SAPS     N 8811   3.765   0.582   5.460  0.2799 -0.3493  0.4646
   91SAPS   HN1 8812   3.765   0.523   5.545 -1.1871 -1.4278 -0.2506
   91SAPS   HN2 8813   3.679   0.638   5.476 -0.3662 -1.6836  1.9387
   91SAPS   HN3 8814   3.760   0.523   5.375 -1.6585  0.4793 -0.0578
   91SAPS   C12 8815   3.882   0.677   5.462 -0.0646  0.1105 -1.0477
   91SAPS  H12A 8816   3.960   0.603   5.462  1.3784  1.5987 -1.1828
   91SAPS   C13 8817   3.892   0.777   5.342  0.0266  0.5452 -0.1378
   91SAPS  O13A 8818   3.799   0.784   5.260 -0.1128  0.1497  0.3396
   91SAPS  O13B 8819   3.999   0.849   5.333 -0.0101  0.0998 -0.2481
   91SAPS   C11 8820   3.860   0.753   5.597 -0.2132  0.5277 -0.4379
   91SAPS  H11A 8821   3.768   0.815   5.602 -1.0585 -0.5563 -1.8882
   91SAPS  H11B 8822   3.950   0.818   5.604  0.4008 -0.3750  0.1317
   91SAPS     P 8823   3.859   0.698   5.857 -0.1060  0.0791  0.2098
   91SAPS   O13 8824   3.838   0.578   5.949 -0.4624  0.2023  0.0577
   91SAPS   O14 8825   3.973   0.781   5.883  0.2770 -0.7502 -0.3572
   91SAPS   O12 8826   3.852   0.655   5.704  0.3204  0.2550 -0.1074
   91SAPS   O11 8827   3.729   0.783   5.877 -0.2240  0.3396 -0.3864
   91SAPS    C1 8828   3.703   0.839   6.010  0.3074 -0.2032  0.3025
   91SAPS    HA 8829   3.602   0.884   5.999 -0.7187 -2.2139  1.0050
   91SAPS    HB 8830   3.673   0.759   6.081  0.6484  2.2787  3.5101
   91SAPS    C2 8831   3.795   0.956   6.070 -0.2126 -0.0227 -0.0361
   91SAPS    HS 8832   3.803   1.020   5.980  0.9408 -1.8629 -1.2969
   91SAPS   O21 8833   3.929   0.907   6.104  0.5329  0.6486 -0.0017
   91SAPS   C21 8834   4.028   0.998   6.135  0.9753  0.2165  0.6456
   91SAPS   O22 8835   4.016   1.117   6.114 -0.6773  0.5939 -0.1068
   91SAPS   C22 8836   4.146   0.933   6.190 -0.1022  0.5046  0.1313
   91SAPS   H2R 8837   4.154   0.826   6.163 -0.3797  1.0810 -2.4980
   91SAPS   H2S 8838   4.233   0.972   6.133  0.4271 -0.8571 -0.0257
   91SAPS    C3 8839   3.736   1.017   6.196  0.8223 -0.2174 -0.0939
   91SAPS    HX 8840   3.637   1.055   6.164  0.6837 -1.1024 -0.7298
   91SAPS    HY 8841   3.799   1.103   6.228  2.4749 -1.0035 -1.0938
   91SAPS   O31 8842   3.726   0.914   6.296 -0.8215  0.2994  0.0068
   91SAPS   C31 8843   3.682   0.965   6.411  0.3363  0.1224 -0.5060
   91SAPS   O32 8844   3.664   1.086   6.431 -0.2580 -0.6653  0.1253
   91SAPS   C32 8845   3.676   0.863   6.522  0.3095  0.3161 -0.4135
   91SAPS   H2X 8846   3.779   0.853   6.563  0.5609 -1.2929 -1.3505
   91SAPS   H2Y 8847   3.656   0.776   6.456 -1.5695  1.7112 -1.7801
   91SAPS   C23 8848   4.172   0.954   6.340  0.6898  0.2008  0.2954
   91SAPS   H3R 8849   4.194   1.059   6.366 -1.5939  0.4479  1.5073
   91SAPS   H3S 8850   4.271   0.906   6.357  0.5391  0.1176  0.9789
   91SAPS   C24 8851   4.069   0.892   6.441  0.5706  0.5692  0.2261
   91SAPS   H4R 8852   3.981   0.960   6.435 -0.4468 -0.7238 -0.2809
   91SAPS   H4S 8853   4.087   0.914   6.548 -1.0490 -0.7000  0.8176
   91SAPS   C25 8854   4.007   0.754   6.408  0.2189 -0.9707  0.1361
   91SAPS   H5R 8855   3.958   0.747   6.310 -1.2361 -1.5745  0.8900
   91SAPS   C26 8856   4.005   0.652   6.495  0.1741  0.3698 -0.3978
   91SAPS   H6R 8857   3.983   0.556   6.445  1.1011  0.3656 -0.8322
   91SAPS   C27 8858   4.036   0.638   6.643 -0.5771  0.5336  0.2502
   91SAPS   H7R 8859   4.084   0.730   6.683 -2.3154  1.9433 -0.7355
   91SAPS   H7S 8860   4.113   0.558   6.643 -0.7177  0.3644 -1.6508
   91SAPS   C28 8861   3.914   0.592   6.715  0.0859  0.1282 -0.1817
   91SAPS   H8R 8862   3.819   0.575   6.662 -0.6457 -0.4385  1.2688
   91SAPS   C29 8863   3.914   0.560   6.849 -0.5677 -0.2032  0.1472
   91SAPS   H9R 8864   3.819   0.531   6.897 -0.4908 -0.0523  0.3937
   91SAPS  C210 8865   4.028   0.569   6.945 -0.1016 -0.4855 -0.2982
   91SAPS  H10R 8866   4.125   0.577   6.891 -0.0064  2.3880  0.1268
   91SAPS  H10S 8867   4.029   0.474   7.002 -2.0752 -0.1289  0.4063
   91SAPS  C211 8868   4.026   0.694   7.024  0.1049 -0.5780 -0.6881
   91SAPS  H11R 8869   4.038   0.786   6.964  0.6668  1.6983  2.6166
   91SAPS  C212 8870   4.021   0.702   7.162  0.6303  0.1830 -0.3456
   91SAPS  H12R 8871   4.014   0.800   7.212 -1.5855 -0.4195  0.6703
   91SAPS  C213 8872   4.007   0.589   7.261  0.2611 -0.0003 -0.7456
   91SAPS  H13R 8873   4.091   0.605   7.332 -1.2225  0.3318  1.0164
   91SAPS  H13S 8874   4.022   0.491   7.212 -1.4362 -0.1436 -1.0336
   91SAPS  C214 8875   3.876   0.595   7.345  0.3216 -0.1949  0.9342
   91SAPS  H14R 8876   3.799   0.564   7.272  1.5366  1.7644 -1.3576
   91SAPS  C215 8877   3.850   0.631   7.472 -0.0419  0.2263  0.0681
   91SAPS  H15R 8878   3.742   0.622   7.493  0.1787 -2.1015  0.5543
   91SAPS  C216 8879   3.944   0.674   7.587 -0.6640  0.5638  0.1122
   91SAPS  H16R 8880   3.900   0.753   7.652  0.7450 -0.2165  2.1087
   91SAPS  H16S 8881   4.036   0.716   7.540 -0.8870  0.5878 -0.3093
   91SAPS  C217 8882   3.993   0.561   7.678  0.5243 -0.4123  1.0093
   91SAPS  H17R 8883   4.070   0.604   7.746  1.8004 -0.3379 -0.4272
   91SAPS  H17S 8884   4.041   0.478   7.621  0.0170 -0.6603  0.9361
   91SAPS  C218 8885   3.880   0.493   7.755 -0.2103 -0.3552  0.1158
   91SAPS  H18R 8886   3.811   0.442   7.685 -2.6670 -0.8084  2.6780
   91SAPS  H18S 8887   3.821   0.581   7.786  0.3660 -0.4318  1.4923
   91SAPS  C219 8888   3.928   0.402   7.871  0.6853 -0.2443  0.3051
   91SAPS  H19R 8889   4.032   0.428   7.901  0.9686 -0.5894 -0.3483
   91SAPS  H19S 8890   3.942   0.302   7.823  0.7318  0.8111 -2.0446
   91SAPS  C220 8891   3.844   0.420   7.994  0.7407 -0.6157  0.3824
   91SAPS  H20R 8892   3.738   0.389   7.982 -0.0991  2.5555 -1.7356
   91SAPS  H20S 8893   3.850   0.529   8.015 -3.1660 -0.9955  5.0652
   91SAPS  H20T 8894   3.891   0.367   8.080  1.5330  2.1265  1.7483
   91SAPS   C33 8895   3.567   0.889   6.627 -0.1616 -0.3191  0.2650
   91SAPS   H3X 8896   3.470   0.857   6.583  0.5866 -0.2060 -1.5666
   91SAPS   H3Y 8897   3.565   0.994   6.661  0.9058 -0.5080  0.9461
   91SAPS   C34 8898   3.600   0.809   6.762  0.4065 -0.1012  0.3636
   91SAPS   H4X 8899   3.691   0.859   6.803  1.1010 -2.6785  2.1577
   91SAPS   H4Y 8900   3.627   0.705   6.734  0.9951  0.2921 -0.5906
   91SAPS   C35 8901   3.487   0.819   6.862  0.1432  0.0470 -0.0886
   91SAPS   H5X 8902   3.395   0.780   6.813 -0.2302  1.3178 -0.4407
   91SAPS   H5Y 8903   3.472   0.929   6.865  0.1355  0.0595 -0.4729
   91SAPS   C36 8904   3.525   0.772   6.995  0.3186  0.3187 -0.1871
   91SAPS   H6X 8905   3.598   0.848   7.031 -0.7186  0.7600  1.0794
   91SAPS   H6Y 8906   3.579   0.676   6.993  2.0403  1.2249  0.6603
   91SAPS   C37 8907   3.419   0.759   7.106  0.0879  0.0150 -0.4355
   91SAPS   H7X 8908   3.352   0.678   7.070  0.4890 -0.2503 -0.5932
   91SAPS   H7Y 8909   3.363   0.855   7.116  0.2371 -0.0199  0.8910
   91SAPS   C38 8910   3.485   0.715   7.238 -0.2342 -0.2868 -0.5601
   91SAPS   H8X 8911   3.543   0.801   7.277  1.6209 -1.2801 -1.0307
   91SAPS   H8Y 8912   3.556   0.630   7.236 -1.0287 -1.1949  2.9390
   91SAPS   C39 8913   3.377   0.670   7.339 -0.6352 -0.4436  0.4409
   91SAPS   H9X 8914   3.337   0.570   7.311 -1.0720 -0.4477  1.0558
   91SAPS   H9Y 8915   3.286   0.734   7.347 -0.8813 -0.4226 -1.7887
   91SAPS  C310 8916   3.441   0.651   7.477 -0.3692 -0.3697 -0.0235
   91SAPS  H10X 8917   3.535   0.597   7.453  0.2769  0.0436  1.4718
   91SAPS  H10Y 8918   3.380   0.576   7.533 -1.1469  1.1682  1.2657
   91SAPS  C311 8919   3.466   0.780   7.563  0.2603 -0.5831  0.1566
   91SAPS  H11X 8920   3.368   0.830   7.579  0.1401 -0.5109 -0.7637
   91SAPS  H11Y 8921   3.533   0.848   7.507 -1.1465 -0.9934 -2.1498
   91SAPS  C312 8922   3.536   0.759   7.692 -0.3778  0.3184 -0.1100
   91SAPS  H12X 8923   3.539   0.853   7.751 -0.2654 -0.4683  1.1723
   91SAPS  H12Y 8924   3.644   0.737   7.676 -0.2461  0.9248 -0.0784
   91SAPS  C313 8925   3.470   0.667   7.794  0.5216 -0.3310  0.4407
   91SAPS  H13X 8926   3.460   0.568   7.745  0.4214 -1.7629  3.1930
   91SAPS  H13Y 8927   3.370   0.715   7.805 -0.2424 -1.6927 -0.2603
   91SAPS  C314 8928   3.549   0.651   7.929 -0.1797  0.3234  0.5614
   91SAPS  H14X 8929   3.551   0.753   7.974 -0.5279  0.2376  0.7801
   91SAPS  H14Y 8930   3.652   0.629   7.896 -1.2360 -0.3887 -2.5336
   91SAPS  C315 8931   3.492   0.562   8.035  0.2826  0.0175  0.2957
   91SAPS  H15X 8932   3.567   0.530   8.111 -0.0377 -2.3289 -0.3105
   91SAPS  H15Y 8933   3.460   0.470   7.982  1.1864  0.9070 -1.9238
   91SAPS  C316 8934   3.362   0.625   8.095 -0.3321  0.5105  0.5433
   91SAPS  H16X 8935   3.296   0.642   8.007 -1.9161 -0.3088  1.5188
   91SAPS  H16Y 8936   3.380   0.730   8.126 -0.6283 -0.0915  2.9569
   91SAPS  C317 8937   3.292   0.557   8.213  0.2109 -0.2880  0.3626
   91SAPS  H17X 8938   3.306   0.448   8.195  0.6586  0.2023 -2.7637
   91SAPS  H17Y 8939   3.183   0.568   8.198  0.5323 -0.6953 -2.9476
   91SAPS  C318 8940   3.343   0.600   8.352  0.1150 -0.0361 -0.3832
   91SAPS  H18X 8941   3.315   0.534   8.437  1.9681  1.5084  1.5684
   91SAPS  H18Y 8942   3.330   0.708   8.378  0.4846  0.1479 -0.9472
   91SAPS  H18Z 8943   3.453   0.584   8.354  0.3179  1.2174 -0.3689
   92SAPS     N 8944   2.235   0.165   6.068 -0.3291 -0.1835  1.0703
   92SAPS   HN1 8945   2.240   0.112   5.978 -0.2373  0.5995  0.6017
   92SAPS   HN2 8946   2.292   0.252   6.070 -1.1348  0.3495  2.4987
   92SAPS   HN3 8947   2.284   0.108   6.140  0.5593  1.5277  1.8737
   92SAPS   C12 8948   2.091   0.198   6.092 -0.8241 -0.3924  0.3608
   92SAPS  H12A 8949   2.093   0.239   6.193  0.6292  1.3416 -0.3000
   92SAPS   C13 8950   2.045   0.321   5.997 -0.7228 -0.6822 -0.8909
   92SAPS  O13A 8951   2.112   0.343   5.896 -0.2480 -0.6878 -0.4775
   92SAPS  O13B 8952   1.934   0.367   6.023 -0.0992 -0.2169 -0.1004
   92SAPS   C11 8953   2.005   0.069   6.066 -0.8358  0.1858  0.7508
   92SAPS  H11A 8954   2.028   0.043   5.960 -1.2446  0.8187  0.4987
   92SAPS  H11B 8955   1.894   0.077   6.064 -1.0321 -1.8255  1.5577
   92SAPS     P 8956   1.978  -0.051   6.284 -0.1660  0.0854 -0.3286
   92SAPS   O13 8957   1.830  -0.063   6.276 -0.3199  0.0220  0.8582
   92SAPS   O14 8958   2.051  -0.149   6.364 -0.0863  0.1094 -0.4611
   92SAPS   O12 8959   2.056  -0.040   6.145  0.0502  0.3623 -0.0253
   92SAPS   O11 8960   1.999   0.088   6.351 -0.0448 -0.6200  0.0297
   92SAPS    C1 8961   2.107   0.133   6.432  0.2165 -0.3590 -0.0964
   92SAPS    HA 8962   2.206   0.087   6.407  1.2102  1.3658  0.5120
   92SAPS    HB 8963   2.115   0.243   6.435  0.0746 -0.3215 -0.8815
   92SAPS    C2 8964   2.079   0.095   6.579  0.0824  0.2752  0.2069
   92SAPS    HS 8965   2.072  -0.016   6.577 -0.9489  0.3413 -0.5007
   92SAPS   O21 8966   1.950   0.153   6.619  0.3465 -0.4224 -0.6286
   92SAPS   C21 8967   1.861   0.070   6.671 -0.6590  0.7200  0.1209
   92SAPS   O22 8968   1.875  -0.051   6.688 -0.2400 -0.0238  0.1530
   92SAPS   C22 8969   1.729   0.145   6.699 -0.5780 -1.1301 -0.6095
   92SAPS   H2R 8970   1.701   0.174   6.595 -0.6761 -3.7976 -1.4181
   92SAPS   H2S 8971   1.656   0.072   6.738  0.7696 -2.4952 -0.5414
   92SAPS    C3 8972   2.192   0.135   6.672  0.2098  0.0519 -1.0135
   92SAPS    HX 8973   2.177   0.245   6.683 -0.2216  0.0477 -1.5192
   92SAPS    HY 8974   2.295   0.132   6.631  0.4288 -2.0010 -0.3772
   92SAPS   O31 8975   2.175   0.077   6.805  0.0742  0.5674 -0.7746
   92SAPS   C31 8976   2.263  -0.022   6.841  0.5265 -0.0226 -0.0971
   92SAPS   O32 8977   2.355  -0.061   6.768  0.2611 -0.9866  0.6981
   92SAPS   C32 8978   2.227  -0.068   6.976 -0.3262 -0.0320  0.2511
   92SAPS   H2X 8979   2.117  -0.059   6.992 -0.5406 -2.6619  0.5736
   92SAPS   H2Y 8980   2.278  -0.006   7.053  2.7004 -2.0871  0.0443
   92SAPS   C23 8981   1.740   0.265   6.796 -0.3969 -0.3879  1.3247
   92SAPS   H3R 8982   1.817   0.332   6.752 -1.7876  0.1495 -0.4221
   92SAPS   H3S 8983   1.777   0.228   6.894  0.0559  0.6210  1.5377
   92SAPS   C24 8984   1.606   0.338   6.815  0.1407 -0.6755  0.8171
   92SAPS   H4R 8985   1.581   0.365   6.710  0.7110  1.4834  1.1934
   92SAPS   H4S 8986   1.607   0.436   6.866  0.8944 -0.4423  0.3652
   92SAPS   C25 8987   1.492   0.251   6.873  0.0280  0.6362  0.2915
   92SAPS   H5R 8988   1.440   0.189   6.799 -1.0794  0.9824  0.7654
   92SAPS   C26 8989   1.462   0.236   7.004  0.5568  0.0184 -0.3450
   92SAPS   H6R 8990   1.381   0.168   7.035  0.4336  1.3301  2.5204
   92SAPS   C27 8991   1.522   0.296   7.125 -0.1623 -0.3142 -0.2497
   92SAPS   H7R 8992   1.454   0.358   7.187 -2.4899  0.5046 -3.3941
   92SAPS   H7S 8993   1.588   0.378   7.090 -0.1602  0.0550  0.5927
   92SAPS   C28 8994   1.612   0.219   7.211  0.4136 -0.0294 -0.9362
   92SAPS   H8R 8995   1.711   0.210   7.163  0.8398  3.0057 -0.8240
   92SAPS   C29 8996   1.576   0.177   7.335  0.2142 -0.1821 -0.3201
   92SAPS   H9R 8997   1.650   0.130   7.401 -0.3539 -0.6082  0.0233
   92SAPS  C210 8998   1.438   0.200   7.398  0.7147  0.0907  0.5184
   92SAPS  H10R 8999   1.365   0.240   7.325  2.3068  1.7339 -0.2684
   92SAPS  H10S 9000   1.438   0.279   7.476 -2.4787  0.2515  0.4591
   92SAPS  C211 9001   1.389   0.071   7.456 -0.8732 -0.4474 -0.0242
   92SAPS  H11R 9002   1.384  -0.001   7.374  1.4006  0.5891 -1.1508
   92SAPS  C212 9003   1.342   0.041   7.575  0.6453  0.2458  0.1919
   92SAPS  H12R 9004   1.315  -0.066   7.585 -2.8357  0.8249 -1.4484
   92SAPS  C213 9005   1.326   0.140   7.686 -0.4437 -0.1067 -0.3309
   92SAPS  H13R 9006   1.250   0.215   7.656 -1.0508 -1.5756 -2.7304
   92SAPS  H13S 9007   1.422   0.187   7.715 -0.8369 -0.9132  2.5117
   92SAPS  C214 9008   1.263   0.086   7.810 -0.2174 -0.4725 -0.7011
   92SAPS  H14R 9009   1.154   0.073   7.811 -0.2413 -0.2992 -1.1473
   92SAPS  C215 9010   1.324   0.045   7.922 -0.1012  0.8604 -0.0737
   92SAPS  H15R 9011   1.260   0.004   8.001 -0.6376  1.6356 -0.0952
   92SAPS  C216 9012   1.473   0.042   7.943  0.4138 -0.1166  0.0940
   92SAPS  H16R 9013   1.487   0.049   8.053 -0.9825 -1.1970  0.3711
   92SAPS  H16S 9014   1.519   0.125   7.886 -0.0263  0.1030  0.0562
   92SAPS  C217 9015   1.544  -0.085   7.901 -0.7482  0.1687  0.3416
   92SAPS  H17R 9016   1.647  -0.071   7.940 -0.2643 -0.3459 -0.7100
   92SAPS  H17S 9017   1.550  -0.107   7.792  1.9013  0.1517  0.4221
   92SAPS  C218 9018   1.478  -0.206   7.969 -0.4224 -0.3982 -0.4074
   92SAPS  H18R 9019   1.389  -0.244   7.915  0.9415 -1.8341 -1.7354
   92SAPS  H18S 9020   1.444  -0.171   8.069 -0.3036  0.8660 -0.7866
   92SAPS  C219 9021   1.566  -0.332   7.982 -0.1937 -0.4001  0.0477
   92SAPS  H19R 9022   1.655  -0.306   8.044 -1.6157  0.4597  1.8314
   92SAPS  H19S 9023   1.607  -0.358   7.882 -1.4544 -0.3887 -0.4799
   92SAPS  C220 9024   1.503  -0.449   8.058  0.0266  0.0617  0.3076
   92SAPS  H20R 9025   1.396  -0.463   8.029 -0.3385 -0.6150  1.9040
   92SAPS  H20S 9026   1.500  -0.428   8.167 -1.4023  0.6732  0.1704
   92SAPS  H20T 9027   1.558  -0.544   8.046 -0.2826 -0.0064 -0.6439
   92SAPS   C33 9028   2.275  -0.214   6.999  0.0333 -0.0054  0.0867
   92SAPS   H3X 9029   2.386  -0.222   6.993  0.1369  1.4774 -0.4490
   92SAPS   H3Y 9030   2.229  -0.279   6.922 -0.6096  0.2083  0.2857
   92SAPS   C34 9031   2.220  -0.272   7.130 -0.7676  0.2550 -0.1027
   92SAPS   H4X 9032   2.237  -0.382   7.129 -1.0830  0.2036 -0.1727
   92SAPS   H4Y 9033   2.109  -0.263   7.140 -0.5008  1.4271  2.4274
   92SAPS   C35 9034   2.280  -0.206   7.256  0.5455  0.2495  0.3573
   92SAPS   H5X 9035   2.258  -0.097   7.266 -1.2392  0.0974 -1.3116
   92SAPS   H5Y 9036   2.391  -0.207   7.250  0.5115 -2.1768 -2.7821
   92SAPS   C36 9037   2.236  -0.287   7.376  0.2039  0.3521  0.0949
   92SAPS   H6X 9038   2.263  -0.393   7.359  0.7888  0.6946 -1.2757
   92SAPS   H6Y 9039   2.125  -0.289   7.374  0.2036  0.7108 -0.7962
   92SAPS   C37 9040   2.279  -0.227   7.516 -0.1275  0.2767 -0.1119
   92SAPS   H7X 9041   2.250  -0.120   7.508 -2.1273 -0.2807 -1.0230
   92SAPS   H7Y 9042   2.389  -0.239   7.511 -0.1484  0.1130 -0.1764
   92SAPS   C38 9043   2.220  -0.308   7.639 -0.6448  0.3608 -0.0602
   92SAPS   H8X 9044   2.240  -0.417   7.646  0.5145  0.6435  1.6266
   92SAPS   H8Y 9045   2.112  -0.286   7.655 -0.1525  2.2915  0.9736
   92SAPS   C39 9046   2.288  -0.243   7.762 -0.1341 -0.0296  0.1320
   92SAPS   H9X 9047   2.261  -0.136   7.758 -0.4558 -0.0942  0.4727
   92SAPS   H9Y 9048   2.398  -0.259   7.751  0.1253  1.4108  0.5173
   92SAPS  C310 9049   2.241  -0.293   7.895  0.4518 -0.0873 -0.3532
   92SAPS  H10X 9050   2.208  -0.399   7.889  0.0841 -0.0551  0.8154
   92SAPS  H10Y 9051   2.154  -0.234   7.931  0.8744  0.9555 -0.9712
   92SAPS  C311 9052   2.350  -0.290   7.999  0.4067 -0.2047 -0.0909
   92SAPS  H11X 9053   2.371  -0.187   8.033 -1.8558 -0.5708  2.7652
   92SAPS  H11Y 9054   2.447  -0.330   7.963  0.5684 -0.1723  0.3077
   92SAPS  C312 9055   2.324  -0.387   8.116  0.0512 -0.3103  0.0747
   92SAPS  H12X 9056   2.290  -0.485   8.075  1.1309 -1.1094  1.0563
   92SAPS  H12Y 9057   2.239  -0.365   8.184 -2.0697  0.5468 -2.6617
   92SAPS  C313 9058   2.442  -0.400   8.206  0.9746  0.6664 -0.5654
   92SAPS  H13X 9059   2.446  -0.310   8.272 -1.9671 -0.6209  1.5798
   92SAPS  H13Y 9060   2.524  -0.427   8.136 -0.3239  0.2360 -1.9516
   92SAPS  C314 9061   2.424  -0.519   8.312  0.4523  0.2705  0.0138
   92SAPS  H14X 9062   2.417  -0.615   8.257 -1.7983  0.8525 -0.7978
   92SAPS  H14Y 9063   2.327  -0.505   8.364  1.7712  0.6290  2.5255
   92SAPS  C315 9064   2.545  -0.519   8.410  0.1286 -0.3853 -0.1224
   92SAPS  H15X 9065   2.539  -0.431   8.478 -0.8956 -0.6593  0.1647
   92SAPS  H15Y 9066   2.637  -0.514   8.348 -0.9987 -1.9280 -1.9903
   92SAPS  C316 9067   2.555  -0.647   8.491  0.3565  0.0915 -0.1408
   92SAPS  H16X 9068   2.551  -0.737   8.425 -0.6463  0.7081 -0.9472
   92SAPS  H16Y 9069   2.473  -0.663   8.564  0.6055  0.1204  0.1467
   92SAPS  C317 9070   2.683  -0.662   8.573  0.2868  0.6765 -0.6805
   92SAPS  H17X 9071   2.695  -0.576   8.642 -1.9316 -0.0713  0.7543
   92SAPS  H17Y 9072   2.771  -0.664   8.506 -0.6860  1.1187 -2.0096
   92SAPS  C318 9073   2.674  -0.789   8.660  0.5207  0.4141  0.6438
   92SAPS  H18X 9074   2.576  -0.783   8.712 -0.2632 -0.3399 -0.6799
   92SAPS  H18Y 9075   2.753  -0.794   8.738  0.6792 -0.0787  0.4529
   92SAPS  H18Z 9076   2.668  -0.878   8.594  1.5189  0.5998  0.2914
   93SAPS     N 9077   2.572   0.274   6.344  0.5259  0.6895 -0.7655
   93SAPS   HN1 9078   2.647   0.257   6.413 -1.5110 -1.5645  1.0670
   93SAPS   HN2 9079   2.497   0.332   6.388  0.0211  0.8119 -1.7360
   93SAPS   HN3 9080   2.526   0.182   6.326  1.9583 -0.8689  2.8073
   93SAPS   C12 9081   2.631   0.343   6.229 -0.0049  0.2491 -0.1332
   93SAPS  H12A 9082   2.687   0.260   6.187  0.3902  2.0867 -3.6221
   93SAPS   C13 9083   2.526   0.381   6.117 -0.2174  0.7015  0.6498
   93SAPS  O13A 9084   2.406   0.366   6.133  0.8157  0.4540 -0.0166
   93SAPS  O13B 9085   2.570   0.430   6.012  0.3464 -0.9025 -0.2315
   93SAPS   C11 9086   2.715   0.465   6.264  0.0304  0.5013 -0.1959
   93SAPS  H11A 9087   2.649   0.554   6.263  0.3743  0.7806  0.7814
   93SAPS  H11B 9088   2.793   0.472   6.184 -1.3599  1.0136 -1.5740
   93SAPS     P 9089   2.859   0.568   6.452  0.1116 -0.2500  0.0331
   93SAPS   O13 9090   2.902   0.517   6.579 -0.3621  0.4793 -0.1582
   93SAPS   O14 9091   2.954   0.631   6.355  0.3919  0.3293 -0.4716
   93SAPS   O12 9092   2.781   0.446   6.387 -0.1657  0.0411  0.3255
   93SAPS   O11 9093   2.739   0.666   6.475 -0.0348  0.3141 -0.2982
   93SAPS    C1 9094   2.631   0.610   6.550  0.5741 -0.3392  0.3899
   93SAPS    HA 9095   2.544   0.625   6.483 -0.4301 -0.3225  1.6672
   93SAPS    HB 9096   2.633   0.499   6.558 -2.9262 -0.5752 -0.5606
   93SAPS    C2 9097   2.601   0.676   6.687 -0.0048 -0.2640 -0.5374
   93SAPS    HS 9098   2.505   0.636   6.725  0.5163  0.2612  1.4442
   93SAPS   O21 9099   2.601   0.818   6.676 -0.2474  0.4892  0.3581
   93SAPS   C21 9100   2.506   0.871   6.595  0.5457  0.1564  0.0255
   93SAPS   O22 9101   2.404   0.819   6.563  0.4061  0.1217  0.0426
   93SAPS   C22 9102   2.545   1.006   6.550  0.0778  0.1838  0.3481
   93SAPS   H2R 9103   2.650   1.005   6.511 -0.7748 -0.5229 -2.1184
   93SAPS   H2S 9104   2.484   1.024   6.459 -3.3313  0.1567  2.4558
   93SAPS    C3 9105   2.697   0.629   6.797  0.8771 -0.5287 -0.9029
   93SAPS    HX 9106   2.802   0.658   6.775  1.3183 -1.0131  0.4129
   93SAPS    HY 9107   2.701   0.518   6.799  0.1236 -0.5520 -0.5559
   93SAPS   O31 9108   2.662   0.680   6.937 -0.0838 -0.2992  0.3799
   93SAPS   C31 9109   2.569   0.617   7.006  0.2331 -0.6078 -0.7017
   93SAPS   O32 9110   2.519   0.509   6.987  0.3571  0.3408  0.3727
   93SAPS   C32 9111   2.549   0.703   7.134  1.2547  0.2687 -0.2331
   93SAPS   H2X 9112   2.466   0.775   7.119  0.4452 -0.2940  1.2696
   93SAPS   H2Y 9113   2.649   0.749   7.151  2.0548 -1.2155 -0.8056
   93SAPS   C23 9114   2.541   1.115   6.659 -0.7534  0.2872  0.2643
   93SAPS   H3R 9115   2.576   1.211   6.616 -0.3094  0.7108  1.5294
   93SAPS   H3S 9116   2.600   1.098   6.751 -0.5498  0.6941  0.2123
   93SAPS   C24 9117   2.404   1.148   6.712 -0.0901  0.2394  0.0019
   93SAPS   H4R 9118   2.345   1.187   6.626 -1.7003 -2.0928 -0.0557
   93SAPS   H4S 9119   2.414   1.234   6.781 -0.7844 -0.4766  1.0192
   93SAPS   C25 9120   2.335   1.037   6.788 -0.0012  0.2857 -0.5168
   93SAPS   H5R 9121   2.271   0.968   6.731  1.4501 -0.9769 -0.6593
   93SAPS   C26 9122   2.353   1.017   6.917  0.5418 -0.2738 -0.2779
   93SAPS   H6R 9123   2.291   0.950   6.978 -0.9348  1.1798 -0.1108
   93SAPS   C27 9124   2.442   1.109   7.001  0.3838  0.3716  0.7630
   93SAPS   H7R 9125   2.418   1.217   6.997  2.4739  0.8930  1.1571
   93SAPS   H7S 9126   2.545   1.107   6.959  0.5602  0.3183  1.1944
   93SAPS   C28 9127   2.448   1.071   7.147 -0.3626  0.2085  0.7504
   93SAPS   H8R 9128   2.546   1.036   7.182 -1.0899  0.1736  2.8761
   93SAPS   C29 9129   2.345   1.082   7.236 -0.3999  0.0273 -0.3796
   93SAPS   H9R 9130   2.380   1.087   7.340  2.7248 -1.0934 -1.2571
   93SAPS  C210 9131   2.206   1.129   7.204  0.3877 -0.0385 -0.5359
   93SAPS  H10R 9132   2.195   1.188   7.111 -0.9760 -0.7524 -0.8399
   93SAPS  H10S 9133   2.173   1.203   7.280 -3.2415 -0.5508 -1.4705
   93SAPS  C211 9134   2.112   1.017   7.192 -0.0327 -0.1004  0.2422
   93SAPS  H11R 9135   2.140   0.952   7.107 -2.1525  0.7333 -1.1715
   93SAPS  C212 9136   2.015   0.971   7.275 -0.4715 -0.2856  0.0916
   93SAPS  H12R 9137   1.968   0.875   7.249  1.7075 -2.0317  2.0907
   93SAPS  C213 9138   1.977   1.036   7.403  0.2370 -0.2473  0.2490
   93SAPS  H13R 9139   1.870   1.065   7.392  0.3456 -0.2993 -1.0825
   93SAPS  H13S 9140   2.032   1.130   7.425 -0.0611 -0.3079  1.2996
   93SAPS  C214 9141   1.986   0.936   7.519 -0.2973  0.2999  0.0530
   93SAPS  H14R 9142   1.889   0.886   7.535 -1.2554  1.0447 -2.7237
   93SAPS  C215 9143   2.094   0.915   7.595  0.6813 -0.3579 -0.6236
   93SAPS  H15R 9144   2.094   0.839   7.675  0.9408 -0.3439 -0.6095
   93SAPS  C216 9145   2.224   0.993   7.578 -0.0620 -0.4758 -0.1847
   93SAPS  H16R 9146   2.224   1.075   7.504  0.8030 -0.5244 -0.2486
   93SAPS  H16S 9147   2.318   0.934   7.568 -1.7361 -3.4246  0.1838
   93SAPS  C217 9148   2.223   1.054   7.721  0.3884  0.3273 -0.0461
   93SAPS  H17R 9149   2.238   0.981   7.803  1.3338 -0.0194 -0.5110
   93SAPS  H17S 9150   2.126   1.098   7.752  0.2692  0.2013 -0.2449
   93SAPS  C218 9151   2.336   1.162   7.731 -0.1651 -0.2678  0.0423
   93SAPS  H18R 9152   2.312   1.243   7.659  1.7146  0.1109 -0.2302
   93SAPS  H18S 9153   2.425   1.112   7.688 -0.2939  0.7641 -1.4942
   93SAPS  C219 9154   2.355   1.222   7.866  0.0274 -0.0909 -1.0049
   93SAPS  H19R 9155   2.379   1.147   7.945 -1.1796  0.8474  0.3268
   93SAPS  H19S 9156   2.267   1.273   7.911  0.0508 -0.6754 -0.2600
   93SAPS  C220 9157   2.465   1.323   7.870  0.2750 -0.3334  0.1506
   93SAPS  H20R 9158   2.465   1.380   7.965  2.1239  0.8541 -0.5156
   93SAPS  H20S 9159   2.468   1.400   7.790 -1.2317 -2.6758 -2.3030
   93SAPS  H20T 9160   2.563   1.273   7.857 -0.3281 -1.8727  1.2087
   93SAPS   C33 9161   2.508   0.620   7.260 -0.0674 -0.0695 -1.1459
   93SAPS   H3X 9162   2.598   0.569   7.300  0.3716 -0.3024 -2.3895
   93SAPS   H3Y 9163   2.446   0.529   7.243  0.7848 -0.6846 -1.0263
   93SAPS   C34 9164   2.445   0.713   7.368 -0.3280 -0.4314 -0.1816
   93SAPS   H4X 9165   2.358   0.759   7.316  0.6803  0.9268 -0.7200
   93SAPS   H4Y 9166   2.516   0.794   7.395  2.7656 -2.1343 -2.5687
   93SAPS   C35 9167   2.374   0.631   7.478  0.0777 -0.6863  0.5080
   93SAPS   H5X 9168   2.323   0.549   7.424  0.1918 -0.8619  0.6620
   93SAPS   H5Y 9169   2.292   0.693   7.520 -2.2794 -1.9685 -1.9122
   93SAPS   C36 9170   2.478   0.591   7.581  0.0415  0.5168 -0.1155
   93SAPS   H6X 9171   2.561   0.664   7.591  0.8204 -0.6290  3.3260
   93SAPS   H6Y 9172   2.529   0.500   7.543  1.0035  0.5383  1.0603
   93SAPS   C37 9173   2.430   0.546   7.719  0.0905 -0.7350 -0.4949
   93SAPS   H7X 9174   2.525   0.523   7.771  0.7268  1.9529 -0.3030
   93SAPS   H7Y 9175   2.356   0.463   7.724  0.0305 -0.6059  2.4747
   93SAPS   C38 9176   2.378   0.660   7.820 -0.2307 -0.0355 -0.6569
   93SAPS   H8X 9177   2.289   0.710   7.776 -1.4552 -3.5747 -2.5850
   93SAPS   H8Y 9178   2.451   0.742   7.837 -2.3319  2.2142 -1.8213
   93SAPS   C39 9179   2.342   0.618   7.965  0.5070 -0.1986  0.7246
   93SAPS   H9X 9180   2.433   0.578   8.014  0.1771 -0.2671  1.2908
   93SAPS   H9Y 9181   2.262   0.541   7.967 -0.5995  0.7879  4.8969
   93SAPS  C310 9182   2.292   0.735   8.047  0.0710 -0.8636 -0.4308
   93SAPS  H10X 9183   2.240   0.699   8.138  0.0758 -0.6041 -0.3262
   93SAPS  H10Y 9184   2.229   0.809   7.993  0.2289 -1.0857 -0.9260
   93SAPS  C311 9185   2.404   0.809   8.118  0.0306 -0.3605 -0.1319
   93SAPS  H11X 9186   2.476   0.856   8.048  0.3841  0.5629  0.8250
   93SAPS  H11Y 9187   2.453   0.736   8.185  0.0527 -0.9079 -0.7354
   93SAPS  C312 9188   2.346   0.927   8.199  0.1369 -0.7249 -0.3629
   93SAPS  H12X 9189   2.263   0.894   8.264  0.5977  2.5071  2.1564
   93SAPS  H12Y 9190   2.304   1.003   8.129  0.0305 -1.3075 -0.9424
   93SAPS  C313 9191   2.459   1.000   8.282  0.1847  0.6070 -0.4070
   93SAPS  H13X 9192   2.499   0.920   8.348 -1.9859 -2.4481 -2.5049
   93SAPS  H13Y 9193   2.409   1.069   8.353  1.7485  1.7771 -0.3813
   93SAPS  C314 9194   2.570   1.072   8.206 -0.0422 -0.9640  0.3704
   93SAPS  H14X 9195   2.512   1.141   8.141  1.4297 -1.2314 -1.3194
   93SAPS  H14Y 9196   2.621   1.003   8.136  0.8985 -1.2696  1.3233
   93SAPS  C315 9197   2.680   1.140   8.285 -0.3957 -0.2347  0.2293
   93SAPS  H15X 9198   2.629   1.188   8.372  1.5270  0.5020  1.0140
   93SAPS  H15Y 9199   2.731   1.224   8.233 -0.6258 -0.8174 -0.9576
   93SAPS  C316 9200   2.783   1.037   8.323 -0.4198 -0.6128 -0.0336
   93SAPS  H16X 9201   2.848   1.013   8.236  1.1988  0.2164  0.8901
   93SAPS  H16Y 9202   2.735   0.942   8.353  0.2184 -1.0656 -0.4314
   93SAPS  C317 9203   2.867   1.083   8.446 -0.1249  0.0029  0.2038
   93SAPS  H17X 9204   2.804   1.094   8.537  0.8720  1.8899  0.7123
   93SAPS  H17Y 9205   2.897   1.187   8.425 -2.4387  0.3461 -1.9129
   93SAPS  C318 9206   2.978   0.978   8.477 -0.2022 -0.1836  1.3441
   93SAPS  H18X 9207   3.037   0.963   8.384 -2.3545 -1.2889  0.0879
   93SAPS  H18Y 9208   2.935   0.880   8.504  0.9000 -1.3183 -0.7629
   93SAPS  H18Z 9209   3.049   1.003   8.559 -0.1571  0.6555  1.0637
   94SAPS     N 9210   4.123   1.537   5.961  0.4899 -0.4858 -0.3550
   94SAPS   HN1 9211   4.083   1.517   6.055  1.1553 -2.4915 -0.4382
   94SAPS   HN2 9212   4.106   1.447   5.911 -1.2771 -0.3728 -0.0201
   94SAPS   HN3 9213   4.222   1.554   5.989  0.5622  2.3464 -1.9453
   94SAPS   C12 9214   4.060   1.654   5.897 -1.0735 -0.0513  0.4786
   94SAPS  H12A 9215   4.079   1.738   5.963  0.7915 -0.7221  0.8725
   94SAPS   C13 9216   4.124   1.690   5.765 -0.5237 -0.3478 -0.0048
   94SAPS  O13A 9217   4.225   1.635   5.716  0.1879 -0.1041  0.4620
   94SAPS  O13B 9218   4.076   1.796   5.712 -0.2116 -0.1381 -0.3043
   94SAPS   C11 9219   3.903   1.624   5.880 -0.4384  0.5895 -0.7632
   94SAPS  H11A 9220   3.879   1.537   5.815 -1.3258 -0.5992  1.0751
   94SAPS  H11B 9221   3.859   1.713   5.831  1.0523  1.4677 -0.5673
   94SAPS     P 9222   3.693   1.626   6.043 -0.0849 -0.2622 -0.8345
   94SAPS   O13 9223   3.619   1.714   5.946 -0.1785  0.1514  0.1604
   94SAPS   O14 9224   3.632   1.492   6.069  0.0263 -0.0640 -0.2831
   94SAPS   O12 9225   3.844   1.605   6.007 -0.1663  0.0537 -0.3864
   94SAPS   O11 9226   3.711   1.701   6.180  0.9053  0.4837 -0.7371
   94SAPS    C1 9227   3.812   1.796   6.203 -0.6422  0.7343  0.5284
   94SAPS    HA 9228   3.848   1.842   6.109 -1.2538 -0.0736 -0.1164
   94SAPS    HB 9229   3.773   1.881   6.263 -1.1652  0.8473  0.0392
   94SAPS    C2 9230   3.939   1.736   6.274 -0.0919  0.9637  0.2133
   94SAPS    HS 9231   4.020   1.725   6.199 -0.3228  1.6217 -0.1346
   94SAPS   O21 9232   3.895   1.619   6.339  0.3117 -0.9393 -1.0050
   94SAPS   C21 9233   3.931   1.510   6.285  0.0225  1.4995 -0.4717
   94SAPS   O22 9234   4.019   1.491   6.201 -0.2879  0.4719 -0.4460
   94SAPS   C22 9235   3.849   1.394   6.355 -0.3692 -0.1928  0.2941
   94SAPS   H2R 9236   3.766   1.441   6.411  0.0071  0.8552 -0.0050
   94SAPS   H2S 9237   3.811   1.327   6.274  0.0811 -0.0511 -0.0370
   94SAPS    C3 9238   3.985   1.840   6.377 -0.2032  0.1261  0.1137
   94SAPS    HX 9239   4.021   1.934   6.329  2.7301  0.0370  1.8348
   94SAPS    HY 9240   4.071   1.793   6.430  1.0605  0.8665 -1.2113
   94SAPS   O31 9241   3.875   1.867   6.470  0.3832  0.0455  0.2017
   94SAPS   C31 9242   3.874   1.967   6.557  0.4289 -0.0741 -0.3173
   94SAPS   O32 9243   3.968   2.043   6.573 -0.0825  0.0940  0.1408
   94SAPS   C32 9244   3.738   1.978   6.625 -0.5221  0.3089 -0.7355
   94SAPS   H2X 9245   3.719   1.875   6.663  1.3379 -0.2889 -1.3199
   94SAPS   H2Y 9246   3.664   2.015   6.550 -0.4210  0.0473 -0.9697
   94SAPS   C23 9247   3.951   1.304   6.441  0.1916 -0.6416  0.8188
   94SAPS   H3R 9248   4.021   1.266   6.364  0.1510  0.3801  0.2526
   94SAPS   H3S 9249   3.886   1.221   6.474 -1.2944  0.7044  1.4236
   94SAPS   C24 9250   4.012   1.378   6.560 -0.1793  0.8417 -0.5207
   94SAPS   H4R 9251   3.932   1.421   6.623 -0.1533  1.8991 -1.1894
   94SAPS   H4S 9252   4.070   1.467   6.527  0.0197  0.7729 -0.3556
   94SAPS   C25 9253   4.106   1.286   6.642  0.7086  0.4725 -0.0869
   94SAPS   H5R 9254   4.210   1.299   6.609 -0.0022 -0.4350 -3.0500
   94SAPS   C26 9255   4.069   1.212   6.748 -0.2411  0.3063 -0.4775
   94SAPS   H6R 9256   4.146   1.149   6.794 -1.7256 -0.7707  0.6096
   94SAPS   C27 9257   3.930   1.195   6.802  0.0105  0.0872  0.3133
   94SAPS   H7R 9258   3.865   1.171   6.715  0.8824  0.2676 -0.4050
   94SAPS   H7S 9259   3.895   1.291   6.844 -1.1522  0.1371 -0.7021
   94SAPS   C28 9260   3.932   1.076   6.901  0.3212 -0.7307  0.3216
   94SAPS   H8R 9261   3.907   0.980   6.852  1.9326  0.7667 -3.8729
   94SAPS   C29 9262   3.980   1.085   7.029 -0.1531 -0.4108  0.3834
   94SAPS   H9R 9263   3.978   0.989   7.083  0.0917 -1.4561 -1.3866
   94SAPS  C210 9264   4.034   1.206   7.104  0.3557 -0.2889 -0.1550
   94SAPS  H10R 9265   3.966   1.232   7.187 -1.7406 -1.1172 -1.5293
   94SAPS  H10S 9266   4.023   1.288   7.029 -0.0660 -0.0044  0.2171
   94SAPS  C211 9267   4.179   1.195   7.151  0.5737  0.4421 -0.9555
   94SAPS  H11R 9268   4.247   1.206   7.065  1.6279 -0.2745 -0.2331
   94SAPS  C212 9269   4.223   1.157   7.273  0.1516 -0.0205 -0.4734
   94SAPS  H12R 9270   4.330   1.179   7.286  0.1313 -0.2587  0.1373
   94SAPS  C213 9271   4.152   1.124   7.397  0.5599 -0.7080 -0.2462
   94SAPS  H13R 9272   4.045   1.103   7.375  0.2949  0.4803 -0.1707
   94SAPS  H13S 9273   4.172   1.216   7.456  2.8355 -0.3963 -1.4048
   94SAPS  C214 9274   4.207   0.999   7.460 -0.0780  0.1487  0.6006
   94SAPS  H14R 9275   4.279   0.941   7.400  0.8452  1.5375  0.2955
   94SAPS  C215 9276   4.174   0.965   7.585 -0.9867  0.1829  0.6126
   94SAPS  H15R 9277   4.217   0.876   7.635  0.0371 -1.1248 -2.3651
   94SAPS  C216 9278   4.086   1.043   7.670  0.3540 -0.0720 -0.3884
   94SAPS  H16R 9279   4.017   0.974   7.722 -0.5737  1.8163  1.0071
   94SAPS  H16S 9280   4.026   1.125   7.624  1.6904  1.1739 -0.0049
   94SAPS  C217 9281   4.180   1.114   7.770  0.9213  0.0144  0.5299
   94SAPS  H17R 9282   4.119   1.186   7.830 -0.2118  1.1288 -1.8343
   94SAPS  H17S 9283   4.248   1.178   7.710  0.0113  1.2567  0.7896
   94SAPS  C218 9284   4.260   1.023   7.868 -0.3026  0.2017 -0.6834
   94SAPS  H18R 9285   4.355   0.992   7.819  0.8533 -0.3728  1.7902
   94SAPS  H18S 9286   4.215   0.925   7.894 -0.7339  0.2272 -1.3217
   94SAPS  C219 9287   4.292   1.090   7.999 -0.2967  0.5592  0.1326
   94SAPS  H19R 9288   4.195   1.122   8.044 -0.5292 -0.6160  0.5079
   94SAPS  H19S 9289   4.350   1.183   7.983 -0.9404  0.7502 -1.2006
   94SAPS  C220 9290   4.379   0.997   8.093  0.4314 -0.6565  0.2812
   94SAPS  H20R 9291   4.411   1.059   8.179 -4.3992  1.4799  0.8360
   94SAPS  H20S 9292   4.464   0.956   8.035  0.3193  0.5023 -0.7366
   94SAPS  H20T 9293   4.326   0.908   8.134  0.8256 -1.8995 -1.8079
   94SAPS   C33 9294   3.744   2.077   6.746 -0.3654 -0.6469  0.5420
   94SAPS   H3X 9295   3.760   2.172   6.690 -1.5042 -0.4899  0.4424
   94SAPS   H3Y 9296   3.834   2.058   6.807 -0.5750 -0.9353  0.7649
   94SAPS   C34 9297   3.623   2.089   6.828 -0.3117 -0.8284  0.4644
   94SAPS   H4X 9298   3.595   1.993   6.876  0.7612 -2.5249 -2.0588
   94SAPS   H4Y 9299   3.539   2.120   6.762 -0.9691 -2.6166  0.4027
   94SAPS   C35 9300   3.636   2.186   6.944  1.0085  0.3072 -0.4473
   94SAPS   H5X 9301   3.689   2.280   6.916  1.7224  0.8458  2.4719
   94SAPS   H5Y 9302   3.702   2.136   7.017  1.4606  0.6363 -0.6259
   94SAPS   C36 9303   3.505   2.215   7.013  0.0883 -0.3673 -0.9107
   94SAPS   H6X 9304   3.472   2.135   7.084 -1.4357  1.2649  0.3220
   94SAPS   H6Y 9305   3.426   2.240   6.939  0.5117 -0.1793 -1.3012
   94SAPS   C37 9306   3.513   2.333   7.112  0.2468  0.1260  0.0026
   94SAPS   H7X 9307   3.416   2.379   7.142  0.8001  2.3962 -1.4540
   94SAPS   H7Y 9308   3.568   2.415   7.062  0.8495 -1.9302 -2.9472
   94SAPS   C38 9309   3.585   2.297   7.248  0.1784 -0.6619  0.0805
   94SAPS   H8X 9310   3.693   2.288   7.225  0.3069  0.5012  0.1242
   94SAPS   H8Y 9311   3.547   2.198   7.282 -2.4367  0.3554  0.3591
   94SAPS   C39 9312   3.567   2.396   7.365  0.6479 -0.1059  0.1880
   94SAPS   H9X 9313   3.460   2.410   7.390  0.9294  1.5822  0.5732
   94SAPS   H9Y 9314   3.605   2.495   7.330 -2.3440  0.9856 -0.2059
   94SAPS  C310 9315   3.643   2.359   7.494 -0.3380 -0.0503 -0.3481
   94SAPS  H10X 9316   3.751   2.367   7.470  0.0300 -0.3620  1.0957
   94SAPS  H10Y 9317   3.607   2.268   7.547 -2.4626  0.3600 -0.9969
   94SAPS  C311 9318   3.637   2.474   7.597  0.2153  0.1968  0.8426
   94SAPS  H11X 9319   3.529   2.496   7.606  0.3115  0.9525  0.2727
   94SAPS  H11Y 9320   3.679   2.569   7.558 -1.0402  0.8266  0.9906
   94SAPS  C312 9321   3.686   2.435   7.741  0.2942 -0.2610 -0.1081
   94SAPS  H12X 9322   3.620   2.352   7.770 -0.3453 -1.3640 -4.1403
   94SAPS  H12Y 9323   3.677   2.530   7.799 -0.6581 -0.9589  0.9098
   94SAPS  C313 9324   3.829   2.391   7.744 -0.3146  0.5416  0.0477
   94SAPS  H13X 9325   3.896   2.461   7.691 -0.1683 -1.0623 -2.0153
   94SAPS  H13Y 9326   3.842   2.289   7.703  1.4476  0.8054 -0.0993
   94SAPS  C314 9327   3.883   2.373   7.889  0.7069  1.0162 -0.3775
   94SAPS  H14X 9328   3.804   2.331   7.955  1.7954 -0.2856  0.1230
   94SAPS  H14Y 9329   3.898   2.474   7.934 -1.5798  0.6907  1.3120
   94SAPS  C315 9330   4.002   2.282   7.894 -0.4818  0.5122  0.3406
   94SAPS  H15X 9331   4.095   2.328   7.855  0.0528 -0.2481  0.7164
   94SAPS  H15Y 9332   3.981   2.197   7.826  2.5425 -0.6517  0.7418
   94SAPS  C316 9333   4.023   2.216   8.025 -0.8548  0.2958  0.2724
   94SAPS  H16X 9334   4.105   2.142   8.014 -2.0641 -1.0600  0.0607
   94SAPS  H16Y 9335   3.937   2.157   8.061 -0.0531  0.2767  2.2713
   94SAPS  C317 9336   4.070   2.308   8.136  0.1522 -1.0194  0.3269
   94SAPS  H17X 9337   4.078   2.267   8.239  1.6409  0.9109  1.0530
   94SAPS  H17Y 9338   3.991   2.387   8.138  0.3533 -0.7541 -1.1073
   94SAPS  C318 9339   4.198   2.391   8.109 -0.7670 -0.1763 -0.1858
   94SAPS  H18X 9340   4.281   2.329   8.067  1.2545  2.7278 -0.7216
   94SAPS  H18Y 9341   4.233   2.442   8.201 -0.4837  1.1978 -1.0390
   94SAPS  H18Z 9342   4.175   2.476   8.041  1.0274  1.8483  1.6261
   95SAPS     N 9343   5.982   6.177   6.185  0.2114 -0.1609 -0.5128
   95SAPS   HN1 9344   6.011   6.079   6.162 -0.4587 -0.6159  0.5246
   95SAPS   HN2 9345   6.065   6.234   6.158  0.6187 -1.0607 -1.2431
   95SAPS   HN3 9346   5.983   6.178   6.289 -1.1659 -1.4060 -0.4465
   95SAPS   C12 9347   5.852   6.220   6.135 -0.2754 -0.1692  0.1561
   95SAPS  H12A 9348   5.820   6.290   6.211  1.4170 -1.5471  2.2713
   95SAPS   C13 9349   5.850   6.284   5.992  0.2227 -0.1160  0.4421
   95SAPS  O13A 9350   5.955   6.292   5.925 -0.1284 -0.0182  0.3197
   95SAPS  O13B 9351   5.733   6.305   5.940 -0.5044  0.1363 -0.1614
   95SAPS   C11 9352   5.756   6.095   6.143 -0.0959 -0.1296 -0.7064
   95SAPS  H11A 9353   5.797   6.026   6.066 -0.8125 -0.2586 -0.9867
   95SAPS  H11B 9354   5.649   6.116   6.121 -0.5630 -2.0081 -0.3357
   95SAPS     P 9355   5.653   5.937   6.329 -0.0464 -0.0803 -0.0607
   95SAPS   O13 9356   5.529   5.965   6.251  0.3142  0.1630 -0.0303
   95SAPS   O14 9357   5.716   5.803   6.329  0.7835  0.3851 -0.0013
   95SAPS   O12 9358   5.771   6.036   6.273  0.0315 -0.8659 -0.0228
   95SAPS   O11 9359   5.638   5.982   6.477 -0.4037 -0.3818 -0.7184
   95SAPS    C1 9360   5.586   6.115   6.501 -0.3732 -0.3092  0.0550
   95SAPS    HA 9361   5.660   6.167   6.566  0.7479  1.1166 -2.2336
   95SAPS    HB 9362   5.570   6.178   6.410 -1.5718  0.3334  0.6825
   95SAPS    C2 9363   5.443   6.120   6.570 -0.3608 -0.1243  0.0744
   95SAPS    HS 9364   5.426   6.230   6.578  0.9777  0.1788 -1.0320
   95SAPS   O21 9365   5.444   6.064   6.703  0.2918  0.1550  0.1089
   95SAPS   C21 9366   5.511   6.121   6.795 -0.0466 -0.4407  0.3393
   95SAPS   O22 9367   5.592   6.210   6.785 -0.3573 -0.4354 -0.1690
   95SAPS   C22 9368   5.483   6.054   6.931 -0.1147 -0.6494  0.4918
   95SAPS   H2R 9369   5.431   5.957   6.915  3.2970 -2.8369  1.5539
   95SAPS   H2S 9370   5.579   6.017   6.971 -1.2171 -2.0892  1.9539
   95SAPS    C3 9371   5.334   6.057   6.477 -0.3614 -0.6418  0.2045
   95SAPS    HX 9372   5.342   5.947   6.468 -0.8210 -0.6148 -0.6402
   95SAPS    HY 9373   5.360   6.107   6.381  2.1996  0.4956  1.3895
   95SAPS   O31 9374   5.200   6.081   6.526 -0.3848  0.2550 -0.4297
   95SAPS   C31 9375   5.112   6.135   6.446  0.3986  0.4584 -0.0650
   95SAPS   O32 9376   5.126   6.172   6.332 -0.0791  0.0752 -0.2150
   95SAPS   C32 9377   4.974   6.150   6.517  0.6194 -0.0483  0.5129
   95SAPS   H2X 9378   4.930   6.049   6.531 -0.8782  0.6137  0.7258
   95SAPS   H2Y 9379   4.912   6.203   6.442  0.2103 -1.9066 -0.5138
   95SAPS   C23 9380   5.417   6.137   7.041  0.0710  0.0197 -0.3753
   95SAPS   H3R 9381   5.306   6.141   7.044  0.0848  1.0448 -0.8417
   95SAPS   H3S 9382   5.452   6.239   7.013  1.0183 -0.6134 -1.5711
   95SAPS   C24 9383   5.473   6.105   7.185 -0.4040  0.0563 -0.0078
   95SAPS   H4R 9384   5.474   5.999   7.216  0.4893  0.2653  0.7385
   95SAPS   H4S 9385   5.402   6.148   7.258 -0.2378 -1.4282  1.0797
   95SAPS   C25 9386   5.615   6.163   7.210  0.1587 -0.2080 -0.1239
   95SAPS   H5R 9387   5.659   6.224   7.130  0.3447 -0.2124 -0.0253
   95SAPS   C26 9388   5.676   6.146   7.328 -0.5078 -0.0463  0.2011
   95SAPS   H6R 9389   5.770   6.201   7.343  1.1253 -2.4436 -0.7821
   95SAPS   C27 9390   5.623   6.060   7.443 -0.0038  0.1453 -0.5454
   95SAPS   H7R 9391   5.687   5.969   7.446 -1.0425 -0.6150  3.0904
   95SAPS   H7S 9392   5.520   6.019   7.430 -0.7197  1.3989  0.8495
   95SAPS   C28 9393   5.623   6.127   7.577  0.2975  0.2399 -0.3955
   95SAPS   H8R 9394   5.567   6.221   7.564 -2.5293 -1.1816  0.6566
   95SAPS   C29 9395   5.662   6.090   7.702 -0.4274 -0.6169 -0.0583
   95SAPS   H9R 9396   5.656   6.156   7.790  0.1565 -1.2906  0.4998
   95SAPS  C210 9397   5.723   5.966   7.747  0.5211 -0.5278  0.5997
   95SAPS  H10R 9398   5.658   5.881   7.717 -1.9701  1.8914 -1.4868
   95SAPS  H10S 9399   5.726   5.962   7.858  1.4823 -2.6185  0.5454
   95SAPS  C211 9400   5.863   5.950   7.702 -0.2556  0.1065  0.9087
   95SAPS  H11R 9401   5.904   6.019   7.626 -1.0060  0.3217  0.6873
   95SAPS  C212 9402   5.937   5.844   7.733 -0.7560  0.3909 -0.1002
   95SAPS  H12R 9403   6.041   5.847   7.695 -0.9027 -0.0546 -0.5545
   95SAPS  C213 9404   5.904   5.729   7.825  0.1077 -0.0194 -0.0074
   95SAPS  H13R 9405   5.828   5.666   7.775 -1.0902  1.8326 -0.6022
   95SAPS  H13S 9406   5.871   5.761   7.926  0.9207 -1.2177  0.6708
   95SAPS  C214 9407   6.028   5.651   7.865 -0.5821  0.3529 -0.1722
   95SAPS  H14R 9408   6.125   5.701   7.876 -1.3024  1.3135  2.3072
   95SAPS  C215 9409   6.023   5.522   7.910  0.3845  1.1242 -0.8734
   95SAPS  H15R 9410   6.118   5.486   7.952  0.3609  1.2441 -0.7153
   95SAPS  C216 9411   5.895   5.439   7.928  0.6659 -0.2301 -0.7604
   95SAPS  H16R 9412   5.916   5.334   7.899  0.8331 -0.2569 -0.5512
   95SAPS  H16S 9413   5.817   5.475   7.858  1.8943  0.4072 -1.8540
   95SAPS  C217 9414   5.831   5.446   8.063  0.1716  0.1249 -0.0549
   95SAPS  H17R 9415   5.777   5.540   8.085 -0.1127 -0.2254  0.7816
   95SAPS  H17S 9416   5.898   5.424   8.149 -1.5196 -0.6290  1.1233
   95SAPS  C218 9417   5.713   5.341   8.086 -0.5303 -0.4300 -0.2513
   95SAPS  H18R 9418   5.753   5.238   8.075 -0.7028 -0.6529  1.0172
   95SAPS  H18S 9419   5.651   5.364   7.997  1.0026 -0.2845 -1.3142
   95SAPS  C219 9420   5.630   5.350   8.218  0.2337 -0.4908 -0.1723
   95SAPS  H19R 9421   5.615   5.459   8.230 -0.4975 -0.6623  0.5628
   95SAPS  H19S 9422   5.668   5.311   8.316 -1.1509  0.8582  0.9423
   95SAPS  C220 9423   5.495   5.277   8.210  0.3816  0.4341 -0.1366
   95SAPS  H20R 9424   5.446   5.321   8.121  1.4197  3.2702  0.5790
   95SAPS  H20S 9425   5.425   5.290   8.295 -2.5361  0.5496 -2.4394
   95SAPS  H20T 9426   5.513   5.169   8.189  0.9329  0.1990  1.3738
   95SAPS   C33 9427   4.988   6.221   6.649  0.5409 -0.1614  0.0821
   95SAPS   H3X 9428   5.040   6.149   6.716  0.5907  0.7377  1.0465
   95SAPS   H3Y 9429   4.885   6.236   6.689 -0.0346 -0.2146 -1.3256
   95SAPS   C34 9430   5.073   6.347   6.641 -0.2090  0.2866  0.0357
   95SAPS   H4X 9431   5.027   6.409   6.562  2.0059  1.5178 -0.3595
   95SAPS   H4Y 9432   5.182   6.330   6.628  0.0140 -1.8247  3.4471
   95SAPS   C35 9433   5.050   6.439   6.762  0.4467 -0.5320 -0.0151
   95SAPS   H5X 9434   4.945   6.474   6.772 -0.0988 -2.3863  1.3613
   95SAPS   H5Y 9435   5.104   6.535   6.749  1.8753 -1.3390 -0.3766
   95SAPS   C36 9436   5.104   6.378   6.895  0.6462 -0.6674 -0.4080
   95SAPS   H6X 9437   5.214   6.379   6.878  1.5091  0.5646  3.9858
   95SAPS   H6Y 9438   5.073   6.272   6.913  1.8866 -0.8406  0.9000
   95SAPS   C37 9439   5.081   6.467   7.016 -0.4234  0.3902 -0.2742
   95SAPS   H7X 9440   4.976   6.502   7.030 -0.8678 -1.7256  2.4225
   95SAPS   H7Y 9441   5.151   6.553   7.008 -0.9758  0.8430 -0.3639
   95SAPS   C38 9442   5.106   6.392   7.148 -0.3182  0.5295  0.5050
   95SAPS   H8X 9443   5.213   6.364   7.158 -0.8083 -1.6688  0.0641
   95SAPS   H8Y 9444   5.055   6.294   7.147  1.0150 -0.1965 -0.7290
   95SAPS   C39 9445   5.069   6.470   7.278  0.3197  0.1023  0.0242
   95SAPS   H9X 9446   4.960   6.492   7.282  0.2168 -0.3988  0.0343
   95SAPS   H9Y 9447   5.138   6.557   7.284 -0.1826  0.4909  0.2466
   95SAPS  C310 9448   5.126   6.389   7.399  0.3336 -0.4049 -0.3610
   95SAPS  H10X 9449   5.103   6.451   7.489  1.6178  0.9153 -0.9119
   95SAPS  H10Y 9450   5.236   6.393   7.389  0.3043  1.9618 -0.2510
   95SAPS  C311 9451   5.104   6.240   7.429 -0.8685 -0.5332 -0.3250
   95SAPS  H11X 9452   5.128   6.181   7.338  1.8600  0.7065 -0.5220
   95SAPS  H11Y 9453   4.998   6.224   7.457 -0.0598 -2.8961  1.7378
   95SAPS  C312 9454   5.186   6.184   7.547 -0.1860  0.2591  0.3925
   95SAPS  H12X 9455   5.293   6.204   7.526  0.1111 -1.8137 -0.2636
   95SAPS  H12Y 9456   5.193   6.073   7.543 -0.3124  0.2149  1.3108
   95SAPS  C313 9457   5.140   6.230   7.681  0.1182  0.1100 -0.4740
   95SAPS  H13X 9458   5.051   6.173   7.714  1.0665  0.1437  2.4416
   95SAPS  H13Y 9459   5.107   6.336   7.671 -2.5267 -0.5237  0.7200
   95SAPS  C314 9460   5.245   6.221   7.790 -0.0956 -0.1647 -0.3550
   95SAPS  H14X 9461   5.316   6.307   7.782 -0.5174  0.4534  1.7138
   95SAPS  H14Y 9462   5.311   6.134   7.772  0.3132  0.0231  0.1733
   95SAPS  C315 9463   5.178   6.220   7.931 -0.1125  0.7146  0.3159
   95SAPS  H15X 9464   5.152   6.113   7.949 -2.3192  1.4576  1.9194
   95SAPS  H15Y 9465   5.090   6.286   7.919  0.0599  0.7184 -1.0225
   95SAPS  C316 9466   5.273   6.274   8.043  1.2709 -0.3300  0.3949
   95SAPS  H16X 9467   5.203   6.293   8.128 -0.1418 -0.3641 -0.7230
   95SAPS  H16Y 9468   5.318   6.367   8.003  3.3844 -2.3924 -2.4578
   95SAPS  C317 9469   5.371   6.172   8.100 -0.2588  0.2418  0.2378
   95SAPS  H17X 9470   5.469   6.187   8.049 -1.1923  0.3529 -1.6407
   95SAPS  H17Y 9471   5.345   6.069   8.069 -1.1688  0.9371 -1.4436
   95SAPS  C318 9472   5.400   6.180   8.247  0.7862 -0.0721  0.0252
   95SAPS  H18X 9473   5.349   6.090   8.286 -0.4220 -0.1791 -1.6831
   95SAPS  H18Y 9474   5.357   6.275   8.286 -1.2795 -0.2082 -1.6905
   95SAPS  H18Z 9475   5.509   6.164   8.260  0.6101 -4.7625 -2.4442
   96SAPS     N 9476   0.890   0.949   6.226  0.1153 -0.3289  0.1453
   96SAPS   HN1 9477   0.994   0.946   6.237  0.0129 -2.9259  1.1191
   96SAPS   HN2 9478   0.859   1.047   6.212  1.2420  0.0352  0.0657
   96SAPS   HN3 9479   0.855   0.916   6.318  0.8829 -0.3078  0.4553
   96SAPS   C12 9480   0.852   0.851   6.123  0.4214  0.2248 -0.3097
   96SAPS  H12A 9481   0.744   0.857   6.124  0.3891 -0.1773 -0.9255
   96SAPS   C13 9482   0.897   0.874   5.981  0.0333  0.2572  0.6178
   96SAPS  O13A 9483   0.978   0.964   5.959 -0.2498  0.9325 -0.4302
   96SAPS  O13B 9484   0.884   0.775   5.903 -0.3912  0.6223  0.3654
   96SAPS   C11 9485   0.909   0.714   6.162  0.0305  0.0807  0.4190
   96SAPS  H11A 9486   1.020   0.712   6.168  0.2384  0.5917 -1.9823
   96SAPS  H11B 9487   0.877   0.642   6.083 -2.3633 -0.1402  1.5233
   96SAPS     P 9488   0.923   0.587   6.386 -0.0320  0.4425 -0.3307
   96SAPS   O13 9489   0.831   0.554   6.501 -0.1567 -0.6540 -0.5102
   96SAPS   O14 9490   0.962   0.461   6.315 -0.3136  0.1710  0.2096
   96SAPS   O12 9491   0.849   0.680   6.288 -0.2919 -0.0901  0.1063
   96SAPS   O11 9492   1.056   0.658   6.438  0.0113 -0.2948 -0.8337
   96SAPS    C1 9493   1.047   0.788   6.502  0.4591 -0.1043  0.3609
   96SAPS    HA 9494   1.087   0.864   6.432  0.1358 -0.0422  0.2451
   96SAPS    HB 9495   0.947   0.824   6.535  0.9855  1.6957  0.1328
   96SAPS    C2 9496   1.140   0.801   6.627 -0.4379 -0.0648 -0.6220
   96SAPS    HS 9497   1.243   0.767   6.603 -0.4866 -0.3890 -0.3711
   96SAPS   O21 9498   1.070   0.731   6.734 -0.4164  0.0023 -0.2491
   96SAPS   C21 9499   1.086   0.600   6.745  0.5565  0.9527  0.1791
   96SAPS   O22 9500   1.158   0.528   6.674 -0.2773  0.1166  0.2722
   96SAPS   C22 9501   1.013   0.547   6.864  0.1051  0.0828  0.3967
   96SAPS   H2R 9502   1.005   0.630   6.938 -3.4304 -1.1802  1.6879
   96SAPS   H2S 9503   0.911   0.517   6.832  0.2216  0.6029 -0.4755
   96SAPS    C3 9504   1.152   0.953   6.661 -0.5548  0.3270  0.2801
   96SAPS    HX 9505   1.050   0.996   6.653 -0.6063  0.0961 -0.3716
   96SAPS    HY 9506   1.222   0.997   6.587 -0.8308  0.6571  0.2160
   96SAPS   O31 9507   1.206   0.963   6.794  0.8132 -0.4204  0.2727
   96SAPS   C31 9508   1.199   1.085   6.841  0.3577  0.0885  0.3296
   96SAPS   O32 9509   1.151   1.181   6.784 -0.5948 -0.0674  0.1196
   96SAPS   C32 9510   1.256   1.085   6.988 -0.0390 -1.2747  0.3777
   96SAPS   H2X 9511   1.362   1.120   6.990  0.1294 -1.3260  5.7838
   96SAPS   H2Y 9512   1.267   0.976   7.006 -1.7049 -1.2090  2.1067
   96SAPS   C23 9513   1.088   0.436   6.933 -0.2879 -0.1640 -0.2032
   96SAPS   H3R 9514   1.192   0.470   6.951 -0.1115 -0.8144  0.0212
   96SAPS   H3S 9515   1.091   0.346   6.868  1.5010 -0.8444  0.7477
   96SAPS   C24 9516   1.021   0.386   7.063 -0.8130  0.1504 -0.1927
   96SAPS   H4R 9517   0.926   0.345   7.022 -1.6850  0.7815  1.1253
   96SAPS   H4S 9518   0.997   0.473   7.128 -0.3369 -0.1133  0.3383
   96SAPS   C25 9519   1.091   0.273   7.134 -0.1100 -0.0255 -0.1874
   96SAPS   H5R 9520   1.148   0.200   7.075 -0.1458 -1.6529  1.6960
   96SAPS   C26 9521   1.086   0.246   7.266 -0.6279 -0.6511 -0.2460
   96SAPS   H6R 9522   1.157   0.167   7.294  1.1797  0.5419 -1.3053
   96SAPS   C27 9523   1.025   0.314   7.382  0.1739 -0.1117  0.1900
   96SAPS   H7R 9524   0.975   0.407   7.347 -1.1511 -1.4337 -1.6297
   96SAPS   H7S 9525   1.101   0.343   7.458  0.1105  0.5282  0.0139
   96SAPS   C28 9526   0.916   0.224   7.434 -0.4182  0.3090  0.2802
   96SAPS   H8R 9527   0.884   0.142   7.368 -1.2565  1.5296 -0.8723
   96SAPS   C29 9528   0.869   0.224   7.567 -1.0960 -0.1049 -0.0818
   96SAPS   H9R 9529   0.806   0.142   7.604  0.2774  0.1104  2.9718
   96SAPS  C210 9530   0.923   0.315   7.670  0.3472  0.2689  0.4284
   96SAPS  H10R 9531   0.934   0.418   7.632  1.7737  0.7161  1.9263
   96SAPS  H10S 9532   1.019   0.262   7.688 -1.3396 -3.7045 -0.9544
   96SAPS  C211 9533   0.831   0.333   7.791  0.0329 -0.7319  0.3608
   96SAPS  H11R 9534   0.731   0.295   7.769  0.2746 -1.4619  0.5001
   96SAPS  C212 9535   0.856   0.372   7.919 -0.2782  0.4690 -0.4402
   96SAPS  H12R 9536   0.777   0.386   7.994  1.4464 -0.8996  1.7592
   96SAPS  C213 9537   0.991   0.399   7.979  0.7055  0.1329 -0.2283
   96SAPS  H13R 9538   1.075   0.386   7.906  1.9043 -0.1216  1.1499
   96SAPS  H13S 9539   1.017   0.317   8.049 -0.6253  0.1440  0.2941
   96SAPS  C214 9540   0.986   0.539   8.041 -0.5669  0.7229 -0.2208
   96SAPS  H14R 9541   0.886   0.585   8.044  0.2042  2.4843  0.0137
   96SAPS  C215 9542   1.092   0.606   8.099  0.4945  0.1440  0.2331
   96SAPS  H15R 9543   1.075   0.707   8.140  3.0074 -0.4556  3.0830
   96SAPS  C216 9544   1.232   0.541   8.113  0.4676 -0.0177  0.5733
   96SAPS  H16R 9545   1.311   0.619   8.119  2.4159 -1.5814 -2.2886
   96SAPS  H16S 9546   1.254   0.505   8.011 -0.8318 -1.6941  0.8525
   96SAPS  C217 9547   1.252   0.420   8.209 -0.1558 -0.2607 -0.4931
   96SAPS  H17R 9548   1.170   0.345   8.200 -0.0030 -0.8725  2.2134
   96SAPS  H17S 9549   1.242   0.461   8.312  1.0348  1.8387 -1.1599
   96SAPS  C218 9550   1.377   0.325   8.196 -0.1582  0.2998 -0.1651
   96SAPS  H18R 9551   1.401   0.289   8.094 -0.1984  1.0864 -0.4669
   96SAPS  H18S 9552   1.351   0.234   8.253 -0.9262  0.4922 -0.1936
   96SAPS  C219 9553   1.501   0.390   8.255 -0.2635 -0.3069 -0.0636
   96SAPS  H19R 9554   1.478   0.418   8.359  1.2968  0.0606  0.2000
   96SAPS  H19S 9555   1.537   0.481   8.203  1.5929 -1.2190 -0.4745
   96SAPS  C220 9556   1.618   0.293   8.267  0.0283  0.1525  0.9925
   96SAPS  H20R 9557   1.713   0.342   8.299  1.8947 -1.5766 -1.5042
   96SAPS  H20S 9558   1.635   0.252   8.165  1.0413  0.3179  1.0794
   96SAPS  H20T 9559   1.590   0.216   8.343  0.4615  0.2324  1.2400
   96SAPS   C33 9560   1.159   1.145   7.093 -0.6471 -0.5566 -0.7630
   96SAPS   H3X 9561   1.073   1.078   7.117  0.5601 -1.5350  1.1431
   96SAPS   H3Y 9562   1.123   1.246   7.067  0.5758  1.5843  4.5898
   96SAPS   C34 9563   1.235   1.166   7.231  0.4735  0.7328 -0.3542
   96SAPS   H4X 9564   1.336   1.212   7.224  1.3449 -0.4915  2.5340
   96SAPS   H4Y 9565   1.235   1.060   7.263 -0.2075  0.8051 -0.0824
   96SAPS   C35 9566   1.146   1.249   7.320 -0.1330 -0.4053 -0.6541
   96SAPS   H5X 9567   1.149   1.210   7.424  0.3486  0.3476 -0.3741
   96SAPS   H5Y 9568   1.042   1.244   7.281 -0.1281 -0.5026 -0.6553
   96SAPS   C36 9569   1.185   1.399   7.335 -0.6426  0.0826  0.3733
   96SAPS   H6X 9570   1.155   1.448   7.240  0.6584  1.2284  0.5170
   96SAPS   H6Y 9571   1.296   1.404   7.341 -0.6040 -1.2014  0.9954
   96SAPS   C37 9572   1.105   1.464   7.445  0.4371 -0.1225  0.0866
   96SAPS   H7X 9573   1.003   1.420   7.455  1.0139 -1.4228  0.5124
   96SAPS   H7Y 9574   1.095   1.570   7.414  0.3253 -0.7651 -2.2048
   96SAPS   C38 9575   1.180   1.457   7.581  0.2870 -0.3290 -0.4327
   96SAPS   H8X 9576   1.268   1.522   7.563  1.8081 -1.8654  1.0291
   96SAPS   H8Y 9577   1.211   1.351   7.596 -2.2131 -1.3225 -1.7237
   96SAPS   C39 9578   1.109   1.504   7.710  0.1704  0.5071  0.4128
   96SAPS   H9X 9579   1.015   1.447   7.729  0.0562 -1.4654 -4.5323
   96SAPS   H9Y 9580   1.086   1.612   7.695  1.5970  0.8410  0.4782
   96SAPS  C310 9581   1.205   1.502   7.828 -0.1556 -0.3772 -0.1977
   96SAPS  H10X 9582   1.287   1.574   7.805 -0.1054  0.7016  2.8731
   96SAPS  H10Y 9583   1.248   1.400   7.838 -1.9217 -1.0799  0.6886
   96SAPS  C311 9584   1.137   1.560   7.953  0.8064 -0.2398 -0.2851
   96SAPS  H11X 9585   1.048   1.499   7.980 -0.0173  0.1791 -1.8932
   96SAPS  H11Y 9586   1.097   1.659   7.921 -1.2645 -1.8448 -3.0952
   96SAPS  C312 9587   1.227   1.576   8.072 -0.0738 -0.2871 -0.0084
   96SAPS  H12X 9588   1.324   1.625   8.050 -0.4538 -0.0141 -1.0948
   96SAPS  H12Y 9589   1.247   1.475   8.114 -0.9980 -1.2442 -1.7807
   96SAPS  C313 9590   1.164   1.661   8.179  0.2862 -0.6823  1.0829
   96SAPS  H13X 9591   1.071   1.610   8.213 -0.6653  0.6742  0.5989
   96SAPS  H13Y 9592   1.128   1.756   8.134 -0.2789 -0.4539  2.0081
   96SAPS  C314 9593   1.250   1.704   8.294 -0.7213  0.1903 -0.1783
   96SAPS  H14X 9594   1.189   1.782   8.346 -1.9491  0.2054 -1.5965
   96SAPS  H14Y 9595   1.334   1.764   8.253 -0.2415  0.7684  1.5415
   96SAPS  C315 9596   1.316   1.604   8.392  0.0711  0.4667  0.3095
   96SAPS  H15X 9597   1.400   1.662   8.436  1.1158 -0.3220 -0.6120
   96SAPS  H15Y 9598   1.366   1.534   8.322  2.0961  3.8283 -1.9036
   96SAPS  C316 9599   1.219   1.551   8.501 -0.8494  0.1609  0.4785
   96SAPS  H16X 9600   1.135   1.496   8.452 -0.5710  1.0293 -1.0522
   96SAPS  H16Y 9601   1.167   1.635   8.551 -0.9074  0.7500 -0.5341
   96SAPS  C317 9602   1.280   1.456   8.614 -0.4151  0.3501  0.4730
   96SAPS  H17X 9603   1.303   1.361   8.560  2.3388 -0.3278  2.6108
   96SAPS  H17Y 9604   1.207   1.430   8.694 -0.6866  1.1682  0.4920
   96SAPS  C318 9605   1.416   1.499   8.681 -0.6946  0.4694 -0.1834
   96SAPS  H18X 9606   1.489   1.417   8.700  0.3101  1.7883  2.0802
   96SAPS  H18Y 9607   1.390   1.555   8.773 -0.6346 -0.8191  0.6529
   96SAPS  H18Z 9608   1.468   1.568   8.612 -0.4013 -1.6343 -2.1730
   97SAPS     N 9609   0.932   0.328   6.093 -0.2304  0.3815  0.3221
   97SAPS   HN1 9610   0.921   0.389   6.177 -1.4794  1.2591 -0.4399
   97SAPS   HN2 9611   0.947   0.396   6.016  0.6110 -0.5032 -0.3191
   97SAPS   HN3 9612   0.845   0.276   6.070  1.0478 -1.5030 -0.4787
   97SAPS   C12 9613   1.047   0.232   6.097 -0.9048 -0.3603 -0.1834
   97SAPS  H12A 9614   1.035   0.171   6.009 -0.3022  0.2443 -0.6980
   97SAPS   C13 9615   1.187   0.298   6.080 -0.3463  0.2660 -0.6108
   97SAPS  O13A 9616   1.203   0.426   6.078 -0.1159 -0.1918  0.3570
   97SAPS  O13B 9617   1.286   0.215   6.080  0.1862 -0.0798 -0.4602
   97SAPS   C11 9618   1.034   0.141   6.223  0.2313  0.0637  0.9043
   97SAPS  H11A 9619   1.019   0.210   6.309  0.9426 -0.8921  1.8274
   97SAPS  H11B 9620   1.132   0.089   6.236  1.1036  1.8320  1.7958
   97SAPS     P 9621   0.911  -0.090   6.252  0.0656 -0.2465 -0.3090
   97SAPS   O13 9622   0.769  -0.133   6.264 -0.3904 -0.2385  0.2484
   97SAPS   O14 9623   0.995  -0.169   6.159  0.3870  0.2030 -0.4679
   97SAPS   O12 9624   0.916   0.059   6.208 -0.0031  0.1007 -0.1087
   97SAPS   O11 9625   0.980  -0.081   6.396  0.1165 -0.0734  0.3580
   97SAPS    C1 9626   0.946   0.006   6.500  0.1533  0.0529 -0.2274
   97SAPS    HA 9627   1.039   0.065   6.520 -0.4223  0.5015  1.3447
   97SAPS    HB 9628   0.871   0.085   6.479 -0.1255  0.8242  3.0303
   97SAPS    C2 9629   0.927  -0.061   6.636 -0.2049 -1.0035 -0.5967
   97SAPS    HS 9630   1.024  -0.113   6.651  1.1743  1.8088  1.1763
   97SAPS   O21 9631   0.812  -0.147   6.631  0.1376  0.4092  0.0178
   97SAPS   C21 9632   0.831  -0.269   6.668  0.5092 -0.0546 -1.0398
   97SAPS   O22 9633   0.934  -0.317   6.708  0.0451  0.6390  0.5664
   97SAPS   C22 9634   0.694  -0.335   6.684 -0.0621  0.9187  0.5211
   97SAPS   H2R 9635   0.626  -0.309   6.601 -1.6256  0.6799  1.6877
   97SAPS   H2S 9636   0.700  -0.446   6.677  0.4867  0.9413  0.5760
   97SAPS    C3 9637   0.897   0.039   6.747  0.1083  0.1474 -0.4926
   97SAPS    HX 9638   0.803   0.092   6.723 -1.8047 -2.6305  0.3939
   97SAPS    HY 9639   0.975   0.119   6.752 -1.1597  1.6232 -2.7115
   97SAPS   O31 9640   0.868  -0.018   6.876  0.1192 -0.4471 -0.6146
   97SAPS   C31 9641   0.971  -0.031   6.961 -0.6973  0.2792 -0.2891
   97SAPS   O32 9642   1.086   0.005   6.932  0.0174 -0.1585 -0.0855
   97SAPS   C32 9643   0.936  -0.083   7.096 -0.1661  0.5448  0.1093
   97SAPS   H2X 9644   1.018  -0.053   7.165 -0.3286  2.2861 -0.3911
   97SAPS   H2Y 9645   0.936  -0.194   7.101 -1.5948  0.5776  1.4831
   97SAPS   C23 9646   0.617  -0.305   6.816 -0.0640 -0.2562 -0.4841
   97SAPS   H3R 9647   0.524  -0.366   6.808  0.3453 -0.9291 -0.1737
   97SAPS   H3S 9648   0.593  -0.196   6.813  0.3921 -0.1486 -0.2759
   97SAPS   C24 9649   0.697  -0.355   6.934  0.4037 -0.8545  0.3165
   97SAPS   H4R 9650   0.662  -0.304   7.026 -0.3493  0.5309 -0.7012
   97SAPS   H4S 9651   0.798  -0.311   6.929  0.2186 -0.4880 -0.2477
   97SAPS   C25 9652   0.704  -0.506   6.956  0.1188  0.0125  0.3791
   97SAPS   H5R 9653   0.740  -0.568   6.873 -2.0023 -0.2631 -0.3977
   97SAPS   C26 9654   0.696  -0.573   7.076 -0.7974 -0.7458  0.0146
   97SAPS   H6R 9655   0.703  -0.683   7.081  1.4470 -0.5996  1.7269
   97SAPS   C27 9656   0.673  -0.513   7.212  0.2584  0.2554  0.5088
   97SAPS   H7R 9657   0.604  -0.577   7.272  0.9902 -1.3055 -0.2425
   97SAPS   H7S 9658   0.621  -0.415   7.205 -1.6179 -0.6616  0.9819
   97SAPS   C28 9659   0.793  -0.489   7.300 -0.4077 -0.1887 -0.2179
   97SAPS   H8R 9660   0.865  -0.420   7.253 -1.4319  0.8127 -0.3643
   97SAPS   C29 9661   0.808  -0.545   7.425 -0.6137  0.0166 -0.6307
   97SAPS   H9R 9662   0.889  -0.500   7.485 -1.3304  0.1411  0.2624
   97SAPS  C210 9663   0.718  -0.642   7.495  0.0376 -0.7050 -0.3806
   97SAPS  H10R 9664   0.748  -0.742   7.458  2.4744 -0.0537 -0.3356
   97SAPS  H10S 9665   0.613  -0.611   7.479 -0.2868 -0.8271  1.3612
   97SAPS  C211 9666   0.741  -0.649   7.644  0.3778 -0.5354  0.2449
   97SAPS  H11R 9667   0.803  -0.734   7.675 -1.0695 -1.7475 -0.1089
   97SAPS  C212 9668   0.686  -0.577   7.744 -0.7438  0.2105  0.3437
   97SAPS  H12R 9669   0.717  -0.606   7.845  0.9507  0.4435 -0.0701
   97SAPS  C213 9670   0.587  -0.469   7.724 -0.7275  0.2304  0.2737
   97SAPS  H13R 9671   0.486  -0.514   7.718 -0.8715  0.3064  1.8940
   97SAPS  H13S 9672   0.618  -0.415   7.631 -2.1155 -1.4491 -1.2321
   97SAPS  C214 9673   0.581  -0.385   7.853 -0.4326 -0.4137  0.4747
   97SAPS  H14R 9674   0.498  -0.408   7.922 -0.6858  2.0310  1.0819
   97SAPS  C215 9675   0.649  -0.274   7.886  0.6043  0.2168 -0.4917
   97SAPS  H15R 9676   0.627  -0.231   7.985 -1.2840 -1.5765 -0.0789
   97SAPS  C216 9677   0.753  -0.215   7.795  0.2460  0.9456  0.4603
   97SAPS  H16R 9678   0.742  -0.105   7.786  0.0852  0.8827 -0.1398
   97SAPS  H16S 9679   0.774  -0.268   7.700 -0.3603  0.3857  0.6355
   97SAPS  C217 9680   0.897  -0.227   7.855  0.0125  0.7309 -1.1063
   97SAPS  H17R 9681   0.977  -0.185   7.791  0.7118  1.7472  0.3695
   97SAPS  H17S 9682   0.926  -0.334   7.867 -1.2451  0.4470 -0.3479
   97SAPS  C218 9683   0.913  -0.174   8.005  0.1085 -0.2676  0.3975
   97SAPS  H18R 9684   1.015  -0.197   8.044  0.9588  0.0335 -1.5056
   97SAPS  H18S 9685   0.844  -0.235   8.067  1.9464 -2.0930  0.7781
   97SAPS  C219 9686   0.868  -0.028   8.018  0.5388 -0.2387 -0.7326
   97SAPS  H19R 9687   0.784  -0.001   7.950 -0.9093 -0.2959  0.9657
   97SAPS  H19S 9688   0.955   0.038   7.999  0.9707  0.5377  3.0506
   97SAPS  C220 9689   0.819   0.010   8.161  0.1571 -0.1964  0.1407
   97SAPS  H20R 9690   0.902   0.013   8.235  0.4325  1.6532 -0.1908
   97SAPS  H20S 9691   0.732  -0.047   8.201 -0.2597  1.0061  1.0447
   97SAPS  H20T 9692   0.797   0.119   8.169 -0.0829 -0.2361  0.0502
   97SAPS   C33 9693   0.796  -0.041   7.150 -0.6043 -0.7354  0.9189
   97SAPS   H3X 9694   0.717  -0.070   7.078  0.0924 -1.6723  0.5190
   97SAPS   H3Y 9695   0.791   0.069   7.164  1.4754 -0.3676 -0.7918
   97SAPS   C34 9696   0.759  -0.088   7.290 -0.5424 -0.0313  0.0625
   97SAPS   H4X 9697   0.844  -0.078   7.360  0.9931 -2.3548 -1.3087
   97SAPS   H4Y 9698   0.719  -0.192   7.284  0.3940 -0.4928  1.4296
   97SAPS   C35 9699   0.641  -0.003   7.342 -0.5421  0.2572 -0.8761
   97SAPS   H5X 9700   0.567  -0.003   7.259 -0.2576 -0.0969 -1.1385
   97SAPS   H5Y 9701   0.652   0.105   7.364 -0.7462  1.0493 -4.0680
   97SAPS   C36 9702   0.586  -0.081   7.468  0.4139 -0.0697  0.1517
   97SAPS   H6X 9703   0.655  -0.071   7.554  0.6777 -0.5347 -0.0031
   97SAPS   H6Y 9704   0.580  -0.190   7.444  3.0442 -0.1536 -0.3815
   97SAPS   C37 9705   0.454  -0.021   7.515  0.8159 -0.1502  0.2571
   97SAPS   H7X 9706   0.392  -0.093   7.573  1.0785  0.4743  1.3538
   97SAPS   H7Y 9707   0.400   0.005   7.422 -0.8171 -2.4043  0.4967
   97SAPS   C38 9708   0.458   0.099   7.615  0.2043  0.6265  0.5613
   97SAPS   H8X 9709   0.358   0.145   7.607 -0.3832  0.5205  4.8055
   97SAPS   H8Y 9710   0.537   0.169   7.580  0.8482 -0.2610  0.1929
   97SAPS   C39 9711   0.485   0.068   7.765  0.0468  0.5747 -1.0245
   97SAPS   H9X 9712   0.482   0.172   7.805  0.4731  0.6750 -1.2456
   97SAPS   H9Y 9713   0.588   0.027   7.761  0.2783  0.7762  1.5495
   97SAPS  C310 9714   0.379  -0.018   7.839  0.2339  0.0103  0.0021
   97SAPS  H10X 9715   0.370  -0.116   7.788  0.3204 -1.3131  2.3687
   97SAPS  H10Y 9716   0.287   0.043   7.830 -0.1398 -0.4224  0.7224
   97SAPS  C311 9717   0.398  -0.044   7.982 -0.0339 -0.3220 -0.0228
   97SAPS  H11X 9718   0.389   0.049   8.043 -1.5227  1.4021 -2.6605
   97SAPS  H11Y 9719   0.501  -0.076   8.009  0.4643  2.6086  1.9907
   97SAPS  C312 9720   0.294  -0.137   8.044  0.2280  0.6732 -0.2434
   97SAPS  H12X 9721   0.301  -0.241   8.007 -1.5035  0.3941  0.1578
   97SAPS  H12Y 9722   0.192  -0.107   8.013 -0.4859 -0.3330  1.0466
   97SAPS  C313 9723   0.309  -0.142   8.195 -0.0787  0.2760 -0.4274
   97SAPS  H13X 9724   0.206  -0.144   8.237  0.6040 -1.9391  1.3601
   97SAPS  H13Y 9725   0.366  -0.056   8.236  1.1131 -0.2627 -0.9086
   97SAPS  C314 9726   0.387  -0.267   8.240  0.2565 -0.4807 -0.2075
   97SAPS  H14X 9727   0.491  -0.260   8.200  0.6154 -0.0166  0.7867
   97SAPS  H14Y 9728   0.328  -0.354   8.204  0.8415  0.0940 -2.7580
   97SAPS  C315 9729   0.402  -0.275   8.397 -0.7322 -0.2637 -0.6415
   97SAPS  H15X 9730   0.298  -0.260   8.434  0.3238  0.6879  2.2176
   97SAPS  H15Y 9731   0.458  -0.188   8.436 -0.7625 -0.7069  0.4362
   97SAPS  C316 9732   0.453  -0.406   8.455 -0.0608 -0.0399  0.0571
   97SAPS  H16X 9733   0.387  -0.491   8.429 -0.3476 -0.2454  1.3656
   97SAPS  H16Y 9734   0.456  -0.393   8.565  1.8620  1.0436 -0.0626
   97SAPS  C317 9735   0.588  -0.445   8.401 -0.2903  0.4115 -0.1792
   97SAPS  H17X 9736   0.645  -0.507   8.474  1.0620 -1.0572 -2.3566
   97SAPS  H17Y 9737   0.654  -0.357   8.389  3.1001 -2.0334 -0.7335
   97SAPS  C318 9738   0.580  -0.525   8.272  0.5752  0.1271  0.6870
   97SAPS  H18X 9739   0.591  -0.634   8.289  2.6151 -0.3053 -2.5371
   97SAPS  H18Y 9740   0.666  -0.494   8.210  0.4549  1.4015  1.1283
   97SAPS  H18Z 9741   0.492  -0.515   8.205  0.5557  0.9653  0.8264
   98SAPS     N 9742   5.297   5.836   5.885 -0.2641 -1.0327 -0.6188
   98SAPS   HN1 9743   5.353   5.901   5.826  0.7643  1.6714  2.9611
   98SAPS   HN2 9744   5.278   5.862   5.984 -2.1694 -1.9223 -0.7037
   98SAPS   HN3 9745   5.339   5.741   5.882  1.3720 -0.3564 -0.3661
   98SAPS   C12 9746   5.155   5.826   5.828 -0.4509 -0.5380  0.5703
   98SAPS  H12A 9747   5.122   5.925   5.804  0.0599 -0.9669 -2.1942
   98SAPS   C13 9748   5.145   5.752   5.696  0.2322 -0.2235 -0.2286
   98SAPS  O13A 9749   5.247   5.709   5.632 -0.5614 -0.3435  0.1803
   98SAPS  O13B 9750   5.032   5.748   5.649 -0.0427  0.1781  0.3785
   98SAPS   C11 9751   5.059   5.776   5.944  0.5069 -0.4750  0.0712
   98SAPS  H11A 9752   5.079   5.667   5.953  1.9849 -0.1015  1.7321
   98SAPS  H11B 9753   4.955   5.786   5.906  0.4680  0.4449  0.3879
   98SAPS     P 9754   5.006   5.795   6.201 -0.3698 -0.5100  0.5588
   98SAPS   O13 9755   4.889   5.882   6.237  0.0221 -0.4044  0.0748
   98SAPS   O14 9756   4.981   5.651   6.182  0.3164  0.4954 -0.2654
   98SAPS   O12 9757   5.063   5.857   6.067 -0.2296 -0.6468 -0.3499
   98SAPS   O11 9758   5.128   5.822   6.301 -0.2858 -0.3632  0.3366
   98SAPS    C1 9759   5.252   5.750   6.299  0.9223  0.3003 -0.0801
   98SAPS    HA 9760   5.271   5.688   6.209 -0.5536 -0.4497  0.0866
   98SAPS    HB 9761   5.328   5.830   6.305  0.6270  0.5041  1.5141
   98SAPS    C2 9762   5.269   5.658   6.422  0.0807 -0.7900 -0.4027
   98SAPS    HS 9763   5.176   5.597   6.422 -0.5679  0.1652  0.3775
   98SAPS   O21 9764   5.262   5.737   6.544 -0.5885  1.2202  0.1709
   98SAPS   C21 9765   5.180   5.695   6.640  0.9492 -0.1300 -0.1662
   98SAPS   O22 9766   5.102   5.603   6.640 -0.2576  0.3870 -0.4493
   98SAPS   C22 9767   5.224   5.775   6.767 -0.1223 -0.2421 -0.1601
   98SAPS   H2R 9768   5.328   5.753   6.799  0.2320  0.1982 -0.9811
   98SAPS   H2S 9769   5.215   5.883   6.742  1.3716 -0.5907 -2.5601
   98SAPS    C3 9770   5.397   5.574   6.419 -0.6366  0.3609 -0.3739
   98SAPS    HX 9771   5.486   5.640   6.413  0.6913 -1.0063  2.4539
   98SAPS    HY 9772   5.392   5.522   6.321 -2.2881 -0.4437  0.1037
   98SAPS   O31 9773   5.405   5.465   6.515 -0.3105 -0.2544 -0.5359
   98SAPS   C31 9774   5.482   5.488   6.616  0.1656 -0.5084 -0.1552
   98SAPS   O32 9775   5.559   5.579   6.630  0.1666 -0.4296  0.4574
   98SAPS   C32 9776   5.440   5.397   6.729 -0.8878  0.5727  0.2653
   98SAPS   H2X 9777   5.477   5.294   6.712 -0.4079  0.5842  1.1687
   98SAPS   H2Y 9778   5.330   5.385   6.735 -1.1877  2.2874 -0.9806
   98SAPS   C23 9779   5.138   5.756   6.893 -0.6781 -0.5095 -0.0418
   98SAPS   H3R 9780   5.152   5.651   6.924 -1.5587 -0.5148  0.3653
   98SAPS   H3S 9781   5.029   5.773   6.877 -0.1000  1.1429 -3.2277
   98SAPS   C24 9782   5.197   5.847   7.005 -0.3391  0.2275  0.3051
   98SAPS   H4R 9783   5.195   5.950   6.963  1.3092 -0.0245 -0.4626
   98SAPS   H4S 9784   5.305   5.824   7.014  0.1300  1.3716 -1.7424
   98SAPS   C25 9785   5.117   5.832   7.129  0.4923 -0.3192 -0.7946
   98SAPS   H5R 9786   5.008   5.834   7.114  0.4123  0.1640 -0.1775
   98SAPS   C26 9787   5.166   5.814   7.258  0.4890  0.3015  0.8297
   98SAPS   H6R 9788   5.087   5.784   7.329  0.2758 -1.2330 -0.0134
   98SAPS   C27 9789   5.310   5.795   7.303 -0.6406  0.3547  0.5777
   98SAPS   H7R 9790   5.341   5.888   7.356 -1.4774 -0.1623  2.0394
   98SAPS   H7S 9791   5.383   5.777   7.221 -0.3253 -1.9138  1.2910
   98SAPS   C28 9792   5.318   5.681   7.400  0.0896  0.0190  1.1718
   98SAPS   H8R 9793   5.312   5.585   7.347 -1.8492  0.1675  1.0640
   98SAPS   C29 9794   5.337   5.680   7.535  0.3717 -0.1924  0.2120
   98SAPS   H9R 9795   5.342   5.583   7.588 -0.9495 -0.7755 -0.6857
   98SAPS  C210 9796   5.344   5.799   7.634 -0.2906  0.4943 -0.7904
   98SAPS  H10R 9797   5.381   5.893   7.588  0.4624  0.0642 -1.0835
   98SAPS  H10S 9798   5.416   5.776   7.716 -2.4288 -0.2124  0.9724
   98SAPS  C211 9799   5.204   5.814   7.685  0.9045  0.3075 -0.2632
   98SAPS  H11R 9800   5.126   5.816   7.608 -0.1470  0.5948  0.7717
   98SAPS  C212 9801   5.172   5.809   7.817  0.6357 -0.2462 -0.0650
   98SAPS  H12R 9802   5.066   5.813   7.846  0.6638  1.2640 -0.1119
   98SAPS  C213 9803   5.266   5.798   7.939 -1.0588  0.4251  0.0198
   98SAPS  H13R 9804   5.221   5.859   8.020  0.6131  0.8003  0.7061
   98SAPS  H13S 9805   5.361   5.850   7.913  0.1498 -1.1240  1.1447
   98SAPS  C214 9806   5.301   5.657   7.991  0.2322 -0.6496  0.6166
   98SAPS  H14R 9807   5.237   5.571   7.968  0.3267 -0.5285 -0.1136
   98SAPS  C215 9808   5.409   5.628   8.062  0.4736  0.2096 -0.3158
   98SAPS  H15R 9809   5.407   5.526   8.104 -1.3093  0.4462  0.2299
   98SAPS  C216 9810   5.528   5.721   8.098  0.7932  0.1983 -0.3250
   98SAPS  H16R 9811   5.536   5.807   8.029  1.0861  0.0466 -0.4808
   98SAPS  H16S 9812   5.622   5.661   8.095  0.1361 -0.8718 -0.2435
   98SAPS  C217 9813   5.529   5.771   8.239 -0.4249  1.0892  0.2804
   98SAPS  H17R 9814   5.558   5.689   8.309 -0.8440 -0.8988 -1.7582
   98SAPS  H17S 9815   5.433   5.823   8.261 -1.5350 -0.2566 -1.1873
   98SAPS  C218 9816   5.629   5.889   8.251 -0.1108  0.5369  0.6246
   98SAPS  H18R 9817   5.590   5.974   8.191 -2.6721 -0.4869  0.7167
   98SAPS  H18S 9818   5.726   5.858   8.206 -0.8452  0.1144 -0.7190
   98SAPS  C219 9819   5.650   5.938   8.394  0.6589  0.7202  0.9242
   98SAPS  H19R 9820   5.647   5.851   8.463 -0.3093 -1.7488 -2.0054
   98SAPS  H19S 9821   5.566   6.004   8.427 -0.2549 -0.4044  0.8996
   98SAPS  C220 9822   5.782   6.012   8.410  0.1282 -0.1714 -0.5604
   98SAPS  H20R 9823   5.814   6.072   8.322  1.3548  3.0968  1.9195
   98SAPS  H20S 9824   5.855   5.928   8.410 -0.0839 -0.3585 -0.3039
   98SAPS  H20T 9825   5.791   6.072   8.503  0.6825  0.7593 -1.2075
   98SAPS   C33 9826   5.490   5.447   6.862  0.2133 -0.1543 -0.5984
   98SAPS   H3X 9827   5.466   5.555   6.873 -1.9280 -0.7005  0.4355
   98SAPS   H3Y 9828   5.597   5.417   6.873 -0.6305 -4.2103 -1.8938
   98SAPS   C34 9829   5.415   5.382   6.976 -0.2518  0.3782 -0.3616
   98SAPS   H4X 9830   5.421   5.271   6.967 -1.6628  0.1063  1.3822
   98SAPS   H4Y 9831   5.308   5.410   6.967 -0.7507 -0.5779  1.9061
   98SAPS   C35 9832   5.458   5.422   7.121  0.5718  0.9399  0.8814
   98SAPS   H5X 9833   5.414   5.522   7.140 -1.1479  0.2082  0.9419
   98SAPS   H5Y 9834   5.569   5.424   7.121  0.6551 -0.8158 -0.7060
   98SAPS   C36 9835   5.406   5.322   7.225  0.4665  0.7411  0.0418
   98SAPS   H6X 9836   5.412   5.221   7.180  0.1331  0.7860 -0.1007
   98SAPS   H6Y 9837   5.300   5.340   7.251 -0.2277 -3.6343  1.0194
   98SAPS   C37 9838   5.484   5.322   7.356 -0.9847  0.1222  0.3116
   98SAPS   H7X 9839   5.492   5.427   7.391 -0.0477 -0.1662  1.0013
   98SAPS   H7Y 9840   5.586   5.282   7.336 -0.1421  1.4556  1.7046
   98SAPS   C38 9841   5.418   5.242   7.470  0.2966 -0.0047  0.3535
   98SAPS   H8X 9842   5.383   5.143   7.436 -0.6715  0.3320  0.3364
   98SAPS   H8Y 9843   5.326   5.294   7.505 -0.0959 -0.6225  0.2628
   98SAPS   C39 9844   5.512   5.220   7.581 -0.2839  0.3058 -0.2914
   98SAPS   H9X 9845   5.556   5.318   7.609 -1.5642  1.4738 -2.1412
   98SAPS   H9Y 9846   5.590   5.144   7.560 -1.3116 -1.1322  0.8517
   98SAPS  C310 9847   5.432   5.177   7.710  0.0324  0.0856 -0.0996
   98SAPS  H10X 9848   5.362   5.096   7.683  1.5717 -1.2165 -0.3364
   98SAPS  H10Y 9849   5.366   5.257   7.752 -0.6274 -0.4482 -0.1078
   98SAPS  C311 9850   5.529   5.117   7.820  0.3156  1.0163 -0.5794
   98SAPS  H11X 9851   5.593   5.190   7.874 -1.0597  1.7526  0.1266
   98SAPS  H11Y 9852   5.598   5.057   7.757  0.2187 -0.6557  0.8227
   98SAPS  C312 9853   5.468   5.018   7.923 -0.1933 -0.3701  0.0320
   98SAPS  H12X 9854   5.390   4.954   7.876  0.7770 -2.0705  0.6561
   98SAPS  H12Y 9855   5.423   5.088   7.997  0.6659  2.7241 -2.1729
   98SAPS  C313 9856   5.575   4.940   7.997 -0.3188 -0.6848  0.1149
   98SAPS  H13X 9857   5.624   4.997   8.079  0.6467 -1.4090  0.0640
   98SAPS  H13Y 9858   5.650   4.903   7.923 -1.1664 -1.8418 -0.1950
   98SAPS  C314 9859   5.516   4.812   8.056 -0.4554 -0.4522 -0.8180
   98SAPS  H14X 9860   5.476   4.747   7.975  0.8528 -4.0521  1.2157
   98SAPS  H14Y 9861   5.437   4.842   8.129  1.6477  0.8119  1.0506
   98SAPS  C315 9862   5.624   4.726   8.125 -0.7325 -0.4859 -0.2515
   98SAPS  H15X 9863   5.704   4.708   8.050  0.5851  2.6946  0.2594
   98SAPS  H15Y 9864   5.590   4.625   8.159  2.7231 -1.8603 -0.4415
   98SAPS  C316 9865   5.686   4.800   8.246  0.4197  0.0768  0.0726
   98SAPS  H16X 9866   5.627   4.884   8.288 -1.0829  0.2179 -2.1517
   98SAPS  H16Y 9867   5.776   4.848   8.201  0.4873  0.3164  0.4541
   98SAPS  C317 9868   5.730   4.709   8.362  0.5316  0.3925 -0.0329
   98SAPS  H17X 9869   5.648   4.635   8.374 -0.5024  1.1101 -2.0745
   98SAPS  H17Y 9870   5.724   4.767   8.457  0.4518  0.7888 -0.2767
   98SAPS  C318 9871   5.870   4.654   8.346 -0.4320  0.2864 -0.6487
   98SAPS  H18X 9872   5.950   4.730   8.357 -0.8110  0.5108  0.7365
   98SAPS  H18Y 9873   5.892   4.603   8.250  1.1809  0.0087 -0.1568
   98SAPS  H18Z 9874   5.888   4.583   8.429  0.4246  1.7326  0.4559
   99SAPS     N 9875   3.244   4.212   5.912 -0.5505  0.1092  0.1856
   99SAPS   HN1 9876   3.240   4.132   5.978 -1.1809 -1.0885 -1.2352
   99SAPS   HN2 9877   3.250   4.302   5.964 -1.3578  0.1788  0.1566
   99SAPS   HN3 9878   3.152   4.211   5.865 -1.1177 -1.2050  1.2647
   99SAPS   C12 9879   3.363   4.193   5.817  1.0482 -0.1120 -0.3019
   99SAPS  H12A 9880   3.340   4.114   5.747 -1.3084  0.6987 -0.5088
   99SAPS   C13 9881   3.402   4.318   5.732 -0.3603 -0.3741  0.4891
   99SAPS  O13A 9882   3.314   4.409   5.717 -0.2008  0.2929 -0.1985
   99SAPS  O13B 9883   3.479   4.291   5.635  0.1536  0.3151  0.2654
   99SAPS   C11 9884   3.480   4.146   5.907  0.2563 -0.1075  0.1342
   99SAPS  H11A 9885   3.557   4.120   5.832 -0.8974  1.1630 -1.5728
   99SAPS  H11B 9886   3.458   4.051   5.961  1.9531 -3.1415 -3.9407
   99SAPS     P 9887   3.667   4.218   6.082  0.2928  0.2482  0.3829
   99SAPS   O13 9888   3.776   4.204   5.981 -0.2211 -0.0834 -0.2843
   99SAPS   O14 9889   3.686   4.333   6.170  0.4524  0.2835  0.6519
   99SAPS   O12 9890   3.528   4.241   6.004  0.2325  0.4237  0.3469
   99SAPS   O11 9891   3.649   4.076   6.158 -0.3966 -0.3129  0.0978
   99SAPS    C1 9892   3.550   4.062   6.266 -0.4620  0.4804 -0.1711
   99SAPS    HA 9893   3.453   4.111   6.244  0.6063  3.4926  1.2112
   99SAPS    HB 9894   3.542   3.953   6.283 -0.6798  0.3286 -1.1667
   99SAPS    C2 9895   3.602   4.133   6.397 -0.2384  0.3860 -0.2005
   99SAPS    HS 9896   3.627   4.237   6.368  1.9094 -0.0639 -0.1037
   99SAPS   O21 9897   3.716   4.058   6.450  0.5305  0.2534 -0.0899
   99SAPS   C21 9898   3.826   4.132   6.468  0.4045  0.7955 -0.0160
   99SAPS   O22 9899   3.837   4.249   6.438  0.2846 -0.7608  0.2785
   99SAPS   C22 9900   3.939   4.047   6.531  0.3990 -0.4381  0.5174
   99SAPS   H2R 9901   3.915   3.942   6.504  2.6387 -1.1586  1.1556
   99SAPS   H2S 9902   4.029   4.066   6.469 -0.6809  0.0790 -0.9510
   99SAPS    C3 9903   3.503   4.138   6.513  0.4723 -0.3229 -0.4761
   99SAPS    HX 9904   3.477   4.033   6.537 -0.7360  0.5308  2.4117
   99SAPS    HY 9905   3.403   4.183   6.493  0.0041 -0.4938  1.3020
   99SAPS   O31 9906   3.548   4.197   6.633  0.1840  0.9938 -0.1787
   99SAPS   C31 9907   3.469   4.182   6.736  0.1023 -0.1366 -0.1145
   99SAPS   O32 9908   3.358   4.132   6.733 -0.2116 -0.2021 -0.1191
   99SAPS   C32 9909   3.529   4.241   6.869 -0.1519 -0.2573 -0.0685
   99SAPS   H2X 9910   3.547   4.349   6.853 -1.2250 -0.0748 -0.1451
   99SAPS   H2Y 9911   3.624   4.188   6.889 -0.6219 -0.7896  0.8432
   99SAPS   C23 9912   3.963   4.083   6.681 -0.1865 -0.6459  0.4602
   99SAPS   H3R 9913   3.871   4.044   6.730  0.8045 -2.8951  0.6676
   99SAPS   H3S 9914   3.970   4.194   6.683 -2.0491 -0.5046  0.8631
   99SAPS   C24 9915   4.092   4.012   6.734 -0.8285  0.3794 -0.0708
   99SAPS   H4R 9916   4.181   4.029   6.669  0.2342 -2.2208  0.5434
   99SAPS   H4S 9917   4.066   3.904   6.729 -1.3354  0.5443 -1.3648
   99SAPS   C25 9918   4.122   4.048   6.878  0.1254 -0.0897 -0.1829
   99SAPS   H5R 9919   4.190   4.131   6.901  0.2608 -0.6005  1.4117
   99SAPS   C26 9920   4.077   3.991   6.992  0.2511 -0.0332  0.0726
   99SAPS   H6R 9921   4.106   4.041   7.086  0.0458  2.8773 -1.2937
   99SAPS   C27 9922   3.985   3.880   6.999 -0.1075  0.9075 -0.3648
   99SAPS   H7R 9923   4.012   3.816   7.086 -0.5240 -1.1441 -1.6542
   99SAPS   H7S 9924   4.007   3.799   6.926 -4.2284 -1.0625  0.2843
   99SAPS   C28 9925   3.834   3.907   7.018 -0.6583 -0.4891  0.4403
   99SAPS   H8R 9926   3.777   3.939   6.930 -0.8307 -0.3568  0.6002
   99SAPS   C29 9927   3.765   3.917   7.135 -0.0443 -1.0033 -0.2224
   99SAPS   H9R 9928   3.661   3.950   7.149  0.3569 -0.4422  1.6676
   99SAPS  C210 9929   3.823   3.866   7.266  0.0104 -0.0324 -0.2632
   99SAPS  H10R 9930   3.923   3.908   7.288 -0.4664  0.0617  2.0180
   99SAPS  H10S 9931   3.837   3.757   7.252 -0.8486  0.0719 -2.1533
   99SAPS  C211 9932   3.754   3.896   7.396  0.5922  0.3860 -0.0519
   99SAPS  H11R 9933   3.723   3.811   7.459  1.9403 -0.8006 -0.9507
   99SAPS  C212 9934   3.753   4.014   7.459  0.6399 -0.2987  0.0325
   99SAPS  H12R 9935   3.706   4.029   7.557  0.3563 -0.8181 -0.0194
   99SAPS  C213 9936   3.804   4.143   7.403 -0.3708  0.6600 -0.3083
   99SAPS  H13R 9937   3.763   4.214   7.479 -0.1293 -0.4103  0.8512
   99SAPS  H13S 9938   3.754   4.152   7.304 -0.7044 -0.0880 -0.2078
   99SAPS  C214 9939   3.952   4.158   7.401 -0.5161  0.0664  0.1503
   99SAPS  H14R 9940   4.024   4.087   7.443  1.0664  1.2921 -0.3621
   99SAPS  C215 9941   4.016   4.266   7.359  0.2911 -0.3587 -0.0636
   99SAPS  H15R 9942   4.126   4.266   7.364  0.2781  1.7257  1.0527
   99SAPS  C216 9943   3.961   4.390   7.303 -0.1177 -0.3836  0.4071
   99SAPS  H16R 9944   4.004   4.478   7.355 -2.0032  0.9743 -0.2297
   99SAPS  H16S 9945   3.852   4.397   7.324  0.0181 -0.0847  1.0267
   99SAPS  C217 9946   3.994   4.409   7.152  0.2168 -0.0840 -0.2816
   99SAPS  H17R 9947   4.103   4.401   7.136  0.3899  2.2555 -0.6016
   99SAPS  H17S 9948   3.974   4.518   7.137  1.6443  0.0065 -1.6473
   99SAPS  C218 9949   3.911   4.329   7.054 -0.4938 -0.4309  0.3424
   99SAPS  H18R 9950   3.803   4.344   7.076 -0.1647 -0.3273  2.0731
   99SAPS  H18S 9951   3.931   4.221   7.065 -0.7393 -0.6933 -1.4848
   99SAPS  C219 9952   3.901   4.396   6.910 -0.5576 -0.1814 -0.0447
   99SAPS  H19R 9953   3.839   4.487   6.907 -0.5216 -0.1006  1.2987
   99SAPS  H19S 9954   3.856   4.323   6.839  1.5658 -1.8114  0.1650
   99SAPS  C220 9955   4.040   4.453   6.875 -0.0270  0.1372 -0.6829
   99SAPS  H20R 9956   4.071   4.539   6.938  0.3168 -1.7653  1.9160
   99SAPS  H20S 9957   4.052   4.479   6.767  2.9613  1.9212 -0.0482
   99SAPS  H20T 9958   4.121   4.377   6.886  2.3772  2.7704  1.2169
   99SAPS   C33 9959   3.431   4.235   6.987  0.6322 -0.3913 -0.4117
   99SAPS   H3X 9960   3.388   4.133   6.981 -0.1562 -0.0383 -0.8582
   99SAPS   H3Y 9961   3.340   4.297   6.970  1.2273  0.0441 -2.2771
   99SAPS   C34 9962   3.503   4.261   7.121 -0.2726 -0.7290  0.1570
   99SAPS   H4X 9963   3.551   4.361   7.119  3.0783 -2.2054 -1.9940
   99SAPS   H4Y 9964   3.591   4.194   7.133 -1.1324 -1.6619  1.5931
   99SAPS   C35 9965   3.405   4.244   7.231  0.6554  0.1049  0.9539
   99SAPS   H5X 9966   3.332   4.163   7.213 -0.1713  0.8493  0.8748
   99SAPS   H5Y 9967   3.345   4.337   7.227  0.2848 -0.1759 -0.2233
   99SAPS   C36 9968   3.470   4.251   7.373  0.2251  0.7090 -0.6465
   99SAPS   H6X 9969   3.554   4.322   7.370  2.4163 -1.7560 -2.7177
   99SAPS   H6Y 9970   3.520   4.153   7.392  2.2975  2.1465  2.0079
   99SAPS   C37 9971   3.370   4.271   7.486  0.2979 -0.4074 -1.0473
   99SAPS   H7X 9972   3.279   4.210   7.472  0.4939 -0.9189 -0.1577
   99SAPS   H7Y 9973   3.325   4.373   7.488  3.2553  1.0340 -1.2366
   99SAPS   C38 9974   3.417   4.248   7.632 -0.0257 -0.0022 -0.4722
   99SAPS   H8X 9975   3.438   4.140   7.644  1.2650  0.3608  0.8857
   99SAPS   H8Y 9976   3.326   4.272   7.692  0.4775  0.2093  0.2203
   99SAPS   C39 9977   3.528   4.344   7.681  0.0094  0.7958 -0.2165
   99SAPS   H9X 9978   3.474   4.440   7.694 -0.9281  0.1806  0.7338
   99SAPS   H9Y 9979   3.607   4.355   7.604  0.3888  1.2394  0.2304
   99SAPS  C310 9980   3.566   4.308   7.823  0.0691  0.1844 -0.3546
   99SAPS  H10X 9981   3.604   4.204   7.833  1.5879  0.7151 -0.3153
   99SAPS  H10Y 9982   3.468   4.310   7.874 -0.3770 -1.1392 -1.1131
   99SAPS  C311 9983   3.684   4.390   7.865  0.0174  0.3304 -0.1658
   99SAPS  H11X 9984   3.642   4.492   7.853 -1.8663 -0.4241 -0.4009
   99SAPS  H11Y 9985   3.773   4.376   7.800  0.5553 -0.5267  0.7516
   99SAPS  C312 9986   3.726   4.364   8.013  0.2338  0.1024  0.0275
   99SAPS  H12X 9987   3.760   4.260   8.029  1.9462  0.7624  0.8537
   99SAPS  H12Y 9988   3.644   4.388   8.084  1.8805 -1.9656  2.8446
   99SAPS  C313 9989   3.853   4.446   8.044  0.3081 -0.2899  0.2650
   99SAPS  H13X 9990   3.828   4.554   8.055  0.0277 -0.4346  1.0916
   99SAPS  H13Y 9991   3.926   4.429   7.961  0.1634  1.4403 -0.2548
   99SAPS  C314 9992   3.927   4.412   8.174 -0.4646  0.0750  0.4251
   99SAPS  H14X 9993   4.030   4.453   8.180 -1.4623  2.9265 -0.2615
   99SAPS  H14Y 9994   3.932   4.302   8.178 -1.5049 -0.0210 -0.5404
   99SAPS  C315 9995   3.846   4.440   8.298 -0.0231  0.2567  0.4290
   99SAPS  H15X 9996   3.759   4.373   8.286 -0.5389  0.6360  1.7913
   99SAPS  H15Y 9997   3.814   4.546   8.303  1.1373  0.6877 -0.6160
   99SAPS  C316 9998   3.940   4.412   8.421 -0.5666 -0.8530 -0.1751
   99SAPS  H16X 9999   4.012   4.497   8.417  0.3023 -1.6001 -0.9104
   99SAPS  H16Y10000   3.995   4.316   8.410 -1.6944 -1.4648 -0.6578
   99SAPS  C31710001   3.866   4.431   8.554 -0.0806 -0.0552 -0.0684
   99SAPS  H17X10002   3.784   4.358   8.564 -0.5362  0.2937 -1.1451
   99SAPS  H17Y10003   3.822   4.533   8.553 -0.9501 -0.4082  0.6603
   99SAPS  C31810004   3.966   4.412   8.675  1.0044 -0.6153  0.2008
   99SAPS  H18X10005   4.039   4.496   8.665  1.5279 -1.2573 -2.1335
   99SAPS  H18Y10006   4.021   4.316   8.673  0.0701 -1.2143  2.0375
   99SAPS  H18Z10007   3.922   4.415   8.776  1.8877 -1.3429  0.6245
  100SAPS     N10008   0.530   2.650   5.934  0.2959  0.1994  0.0333
  100SAPS   HN110009   0.500   2.714   6.011 -0.8971  1.0881 -1.1358
  100SAPS   HN210010   0.465   2.623   5.859  3.7307 -0.7874 -2.8668
  100SAPS   HN310011   0.570   2.568   5.983 -0.9759 -0.8228 -0.5839
  100SAPS   C1210012   0.657   2.721   5.874  0.3522 -0.3009 -0.6372
  100SAPS  H12A10013   0.729   2.738   5.953  0.7752  1.6157 -1.3679
  100SAPS   C1310014   0.719   2.646   5.756 -0.2193  0.2311  0.5561
  100SAPS  O13A10015   0.662   2.542   5.710 -0.3678  0.6405 -0.7977
  100SAPS  O13B10016   0.817   2.700   5.699 -0.3152 -0.3891 -0.1641
  100SAPS   C1110017   0.606   2.864   5.834  0.3650  0.6688  1.1642
  100SAPS  H11A10018   0.550   2.858   5.738 -0.7225 -2.5576  1.8776
  100SAPS  H11B10019   0.702   2.919   5.817  0.1048  0.8425  0.1701
  100SAPS     P10020   0.452   3.057   5.911  0.0883  0.0261  0.0856
  100SAPS   O1310021   0.482   3.098   5.771 -0.4044  0.2814  0.6469
  100SAPS   O1410022   0.309   3.043   5.952  0.0876  0.0772 -0.6205
  100SAPS   O1210023   0.529   2.921   5.936 -0.0506  0.4733 -0.2029
  100SAPS   O1110024   0.512   3.165   6.004 -0.0009  0.0697  0.0493
  100SAPS    C110025   0.633   3.140   6.071 -0.8839 -0.1136 -0.0069
  100SAPS    HA10026   0.639   3.042   6.123 -1.1889  0.6973  1.6162
  100SAPS    HB10027   0.709   3.154   5.992 -0.3482  0.5672  0.6206
  100SAPS    C210028   0.661   3.245   6.181 -0.1376 -0.2671 -0.0278
  100SAPS    HS10029   0.766   3.229   6.215 -0.1390  0.6030  0.4197
  100SAPS   O2110030   0.559   3.222   6.286 -0.6467 -0.7831 -0.3087
  100SAPS   C2110031   0.582   3.130   6.371  0.7474  0.5415 -0.0174
  100SAPS   O2210032   0.675   3.053   6.373 -0.4821  0.6974 -0.1551
  100SAPS   C2210033   0.461   3.138   6.471  0.0556  1.3089  0.1666
  100SAPS   H2R10034   0.468   3.229   6.533 -1.1325  0.8026  1.0859
  100SAPS   H2S10035   0.364   3.132   6.418  0.2209  0.9932 -0.1033
  100SAPS    C310036   0.649   3.387   6.122 -0.0212  0.6110  0.6876
  100SAPS    HX10037   0.542   3.417   6.111  0.1540  1.2595  0.7390
  100SAPS    HY10038   0.679   3.383   6.015 -1.4538 -0.0037  0.2819
  100SAPS   O3110039   0.724   3.481   6.201 -0.1576 -0.0962 -0.3566
  100SAPS   C3110040   0.744   3.588   6.142  0.1769 -1.2382 -0.9865
  100SAPS   O3210041   0.720   3.614   6.025  0.0112 -0.6054 -0.4008
  100SAPS   C3210042   0.817   3.695   6.238 -0.2386 -0.5333 -0.3551
  100SAPS   H2X10043   0.925   3.676   6.250  0.2806  1.6783 -1.0246
  100SAPS   H2Y10044   0.777   3.675   6.340 -0.3512  0.6951 -0.1426
  100SAPS   C2310045   0.463   3.018   6.567  1.0554  0.0603 -0.3426
  100SAPS   H3R10046   0.499   2.921   6.528 -1.3249 -1.1515  0.3411
  100SAPS   H3S10047   0.359   3.008   6.604  0.2517  1.7885 -1.9063
  100SAPS   C2410048   0.555   3.061   6.691  0.1868  0.3419  0.8378
  100SAPS   H4R10049   0.525   3.161   6.728  0.2000  1.5344 -2.1005
  100SAPS   H4S10050   0.661   3.075   6.658 -0.0162 -0.6218 -0.2630
  100SAPS   C2510051   0.554   2.974   6.812 -0.2496 -0.6082  0.2886
  100SAPS   H5R10052   0.452   2.939   6.835 -0.5317 -0.1044 -0.1721
  100SAPS   C2610053   0.659   2.940   6.893 -0.0533  1.1463  0.0676
  100SAPS   H6R10054   0.632   2.884   6.983  0.2041  1.1740  0.1617
  100SAPS   C2710055   0.805   2.978   6.872  0.0134 -0.3085  0.2657
  100SAPS   H7R10056   0.806   3.088   6.857 -0.9453 -0.4244 -0.8364
  100SAPS   H7S10057   0.855   2.926   6.787  1.4864  1.2166  0.1516
  100SAPS   C2810058   0.900   2.942   6.992 -0.3575  0.3848  0.5078
  100SAPS   H8R10059   0.977   2.873   6.956 -2.4667 -1.8867  0.0453
  100SAPS   C2910060   0.880   2.965   7.130 -0.7905  0.5131  0.1693
  100SAPS   H9R10061   0.964   2.928   7.190  1.3168  1.6069 -1.9029
  100SAPS  C21010062   0.763   3.032   7.198 -0.3405 -0.2346 -0.0770
  100SAPS  H10R10063   0.697   3.091   7.131 -0.3281  0.4621  0.5075
  100SAPS  H10S10064   0.815   3.102   7.267  1.6957 -2.0249  0.2945
  100SAPS  C21110065   0.676   2.933   7.266  0.2354 -0.7196  0.0449
  100SAPS  H11R10066   0.618   2.865   7.201  0.5572 -1.1183  0.1709
  100SAPS  C21210067   0.673   2.928   7.404 -0.5313  0.0109 -0.0242
  100SAPS  H12R10068   0.598   2.865   7.453 -0.0533  0.5440  1.4531
  100SAPS  C21310069   0.756   3.013   7.499  0.7012 -0.4193 -0.3424
  100SAPS  H13R10070   0.717   2.998   7.602  0.0981 -1.6833 -0.7200
  100SAPS  H13S10071   0.729   3.114   7.463  0.0364 -1.0217 -1.6457
  100SAPS  C21410072   0.907   3.021   7.503  0.3112  0.4423  0.1869
  100SAPS  H14R10073   0.959   2.978   7.416  1.0946  0.7716  0.4805
  100SAPS  C21510074   0.987   3.070   7.603  0.0839 -0.4251 -0.0555
  100SAPS  H15R10075   1.095   3.066   7.581 -0.4028 -2.6326 -2.4890
  100SAPS  C21610076   0.943   3.122   7.736 -0.1738 -0.3695  0.1623
  100SAPS  H16R10077   0.863   3.059   7.780 -1.5885  1.5735  0.5217
  100SAPS  H16S10078   0.899   3.222   7.717 -0.7562 -1.0865 -2.6891
  100SAPS  C21710079   1.048   3.124   7.845 -0.1040  0.4604  0.1267
  100SAPS  H17R10080   1.139   3.169   7.800  0.6412 -1.1822 -0.0757
  100SAPS  H17S10081   1.076   3.019   7.867  0.6964  1.0775  2.2932
  100SAPS  C21810082   1.004   3.188   7.973  0.0861 -0.1961 -0.2834
  100SAPS  H18R10083   0.896   3.174   7.996  0.1156  1.6880  1.2473
  100SAPS  H18S10084   1.018   3.298   7.963  1.1420 -0.4274 -1.5762
  100SAPS  C21910085   1.082   3.155   8.103  0.1182 -1.3245 -0.5985
  100SAPS  H19R10086   1.173   3.218   8.098 -2.3786  2.6724 -0.1765
  100SAPS  H19S10087   1.115   3.049   8.106  2.5481 -0.5899  1.6316
  100SAPS  C22010088   1.003   3.198   8.230 -0.0568  0.5086  0.2123
  100SAPS  H20R10089   1.069   3.165   8.313 -0.2376 -2.7291 -0.8139
  100SAPS  H20S10090   0.908   3.142   8.229  0.7087 -0.8549  1.0780
  100SAPS  H20T10091   0.976   3.306   8.239  0.2987  0.5458  0.9508
  100SAPS   C3310092   0.788   3.845   6.216 -0.0883  0.1046  0.0572
  100SAPS   H3X10093   0.677   3.848   6.208 -0.1070  2.1205  0.5619
  100SAPS   H3Y10094   0.823   3.879   6.116 -1.0548  2.0677  0.3370
  100SAPS   C3410095   0.821   3.938   6.329  0.5912  0.3137  0.5054
  100SAPS   H4X10096   0.780   4.033   6.289 -1.6199 -0.7167  0.1602
  100SAPS   H4Y10097   0.928   3.947   6.358  0.8792 -4.1078  1.5336
  100SAPS   C3510098   0.749   3.915   6.460  0.1382 -0.5444 -0.2788
  100SAPS   H5X10099   0.767   3.816   6.507  1.9089  0.2033  0.7319
  100SAPS   H5Y10100   0.640   3.918   6.441 -0.0726 -4.5895 -0.6604
  100SAPS   C3610101   0.801   4.022   6.561 -0.4097 -0.1475 -0.8641
  100SAPS   H6X10102   0.783   4.128   6.532  3.3884  0.9526  0.1151
  100SAPS   H6Y10103   0.910   4.013   6.580 -0.0559  1.9785 -1.6109
  100SAPS   C3710104   0.723   4.008   6.701 -0.5007 -0.5496  0.2438
  100SAPS   H7X10105   0.743   3.903   6.732  0.9569  0.3212  2.4344
  100SAPS   H7Y10106   0.615   4.031   6.686 -0.3367  0.5463  0.7008
  100SAPS   C3810107   0.775   4.101   6.811  0.5406 -0.6121  0.3139
  100SAPS   H8X10108   0.766   4.203   6.767 -0.1441 -0.1605  1.4587
  100SAPS   H8Y10109   0.877   4.076   6.850  1.4333 -0.6751 -1.9056
  100SAPS   C3910110   0.679   4.102   6.934 -0.3861 -0.5579  0.3540
  100SAPS   H9X10111   0.627   4.004   6.933 -0.6277 -0.4474 -1.0304
  100SAPS   H9Y10112   0.600   4.180   6.925  0.6107  0.5485  0.8772
  100SAPS  C31010113   0.756   4.131   7.065  0.2818  0.4854 -0.1031
  100SAPS  H10X10114   0.789   4.237   7.066  0.1829  0.5333  2.1756
  100SAPS  H10Y10115   0.847   4.067   7.062  0.5577  0.7633  1.5005
  100SAPS  C31110116   0.675   4.102   7.187 -0.0028  0.2481 -0.3671
  100SAPS  H11X10117   0.646   3.995   7.177  2.2001 -0.3882 -0.5567
  100SAPS  H11Y10118   0.584   4.165   7.198  0.2890  0.4585  1.0971
  100SAPS  C31210119   0.753   4.111   7.325  0.4388 -0.7366 -0.2209
  100SAPS  H12X10120   0.766   4.219   7.347  0.9476 -0.2025 -2.8314
  100SAPS  H12Y10121   0.851   4.059   7.315 -0.0043 -1.1708 -2.9077
  100SAPS  C31310122   0.680   4.034   7.436 -0.3086 -0.4115  0.1807
  100SAPS  H13X10123   0.663   3.933   7.392 -2.5742  0.2377 -0.5481
  100SAPS  H13Y10124   0.579   4.075   7.457 -0.8575 -1.8419  0.5012
  100SAPS  C31410125   0.752   4.051   7.567 -0.1249  0.1433  0.0383
  100SAPS  H14X10126   0.762   4.161   7.580  0.9882  0.3431 -2.0140
  100SAPS  H14Y10127   0.858   4.018   7.569 -0.3230 -0.5088  0.0680
  100SAPS  C31510128   0.674   3.998   7.680  0.0248  0.3061 -0.6916
  100SAPS  H15X10129   0.656   3.892   7.652 -1.5719  0.6229 -0.9906
  100SAPS  H15Y10130   0.573   4.044   7.683 -0.6330 -1.1002 -0.1210
  100SAPS  C31610131   0.743   4.011   7.814 -0.1753 -0.6889 -0.8175
  100SAPS  H16X10132   0.762   4.118   7.836 -2.9676 -0.1350 -0.6073
  100SAPS  H16Y10133   0.839   3.955   7.815 -0.7514 -1.7259 -1.4109
  100SAPS  C31710134   0.648   3.968   7.931  0.0965  0.8365 -0.0250
  100SAPS  H17X10135   0.650   3.857   7.937 -1.1207  0.6825 -1.7788
  100SAPS  H17Y10136   0.545   4.008   7.918 -0.2553 -0.1837 -0.4259
  100SAPS  C31810137   0.688   4.035   8.060  0.8309 -0.2768 -0.2104
  100SAPS  H18X10138   0.607   4.020   8.134  2.2964 -1.2306  1.2604
  100SAPS  H18Y10139   0.692   4.144   8.037  1.5564 -0.0724  0.8074
  100SAPS  H18Z10140   0.782   3.996   8.105 -1.3218 -4.5626  1.1252
  101OSM      N10141   6.111   5.741  10.803  0.6173 -0.3970  0.6587
  101OSM    C1510142   6.078   5.843  10.902 -0.1470 -0.2695  0.6099
  101OSM   H15A10143   5.995   5.905  10.870 -0.1893  0.4225  1.9783
  101OSM   H15B10144   6.164   5.903  10.929 -1.5354  0.7838  3.0517
  101OSM   H15C10145   6.044   5.792  10.991 -1.0130  0.9774  1.0341
  101OSM    C1410146   6.220   5.656  10.858 -0.5499 -0.0586  0.2006
  101OSM   H14A10147   6.209   5.633  10.963  1.1542  2.8415  1.1021
  101OSM   H14B10148   6.310   5.715  10.856 -1.5542  1.5186 -0.1870
  101OSM   H14C10149   6.225   5.569  10.795 -1.2910  1.3515 -1.9073
  101OSM    C1310150   5.995   5.653  10.790  0.2174  0.0628 -0.5672
  101OSM   H13A10151   5.976   5.604  10.884 -0.1015  1.7051  0.2668
  101OSM   H13B10152   6.011   5.586  10.707  1.6363 -1.0571  0.5555
  101OSM   H13C10153   5.904   5.703  10.760 -0.3200 -0.5278  0.0439
  101OSM    C1210154   6.141   5.804  10.669 -0.7034 -0.3999  0.7071
  101OSM   H12A10155   6.240   5.847  10.683  0.0370 -1.4381 -0.9433
  101OSM   H12B10156   6.070   5.883  10.651  0.2138  0.4006  0.4621
  101OSM    C1110157   6.145   5.713  10.542  0.1711 -0.5181 -0.3703
  101OSM   H11A10158   6.156   5.781  10.455 -2.9712  1.1632  0.3885
  101OSM   H11B10159   6.044   5.669  10.532 -1.2910  2.1978  1.2915
  101OSM      P10160   6.391   5.656  10.528  0.4263 -0.0166  0.5171
  101OSM    O1310161   6.418   5.777  10.607  0.0345 -0.5214 -0.5248
  101OSM    O1410162   6.481   5.540  10.544 -0.4861  0.3032 -0.1323
  101OSM    O1110163   6.397   5.704  10.384  0.4273  0.1162 -0.2902
  101OSM    O1210164   6.240   5.615  10.541 -0.1087  0.1514 -0.1874
  101OSM    C1S10165   6.347   5.620  10.271 -0.9868  0.3101  0.1789
  101OSM    H1S10166   6.240   5.589  10.273 -1.2573  1.2637  0.7889
  101OSM    H1T10167   6.416   5.533  10.259  0.0811  0.9036  1.7812
  101OSM     NF10168   6.304   5.615  10.031 -0.3993 -0.3977  0.0050
  101OSM    HNF10169   6.365   5.573   9.965 -2.2977 -2.0496 -0.7792
  101OSM    C2S10170   6.374   5.690  10.135  0.0138 -0.8590  0.2044
  101OSM    H2S10171   6.322   5.789  10.143  0.3049 -0.4493 -2.2716
  101OSM    C3S10172   6.528   5.716  10.116 -0.2013  0.3726 -0.4437
  101OSM    H3S10173   6.578   5.618  10.127 -0.6743 -0.0410 -1.7844
  101OSM     O310174   6.592   5.783  10.222  0.5017 -0.0618 -0.1108
  101OSM    HO310175   6.517   5.810  10.277  1.8203  4.0820  0.0226
  101OSM    C4S10176   6.554   5.779   9.980 -0.2689 -0.7721  0.0737
  101OSM    H4S10177   6.573   5.714   9.894  3.3955  1.1163 -0.7599
  101OSM    C5S10178   6.549   5.914   9.955  0.1533 -0.0027 -0.8156
  101OSM    H5S10179   6.517   5.975  10.041 -2.4014 -0.9133 -1.0363
  101OSM    C6S10180   6.578   5.988   9.828 -0.0860 -0.0028  0.9403
  101OSM    H6S10181   6.677   6.039   9.823 -0.7373  1.2663  0.7940
  101OSM    H6T10182   6.502   6.068   9.817 -0.1825 -0.1095  0.8335
  101OSM    C7S10183   6.567   5.892   9.707 -0.6992 -1.1729  0.0025
  101OSM    H7S10184   6.465   5.855   9.682  0.4953 -3.1229 -2.4823
  101OSM    H7T10185   6.640   5.808   9.714  3.1842  1.7873 -1.3420
  101OSM    C8S10186   6.614   5.965   9.578 -0.1970  0.5376 -0.9434
  101OSM    H8S10187   6.713   6.010   9.600  0.3048 -1.0511  0.1954
  101OSM    H8T10188   6.549   6.053   9.561  0.7396  1.7120  1.2047
  101OSM    C9S10189   6.624   5.871   9.456  0.5824 -0.3159 -0.4045
  101OSM    H9S10190   6.526   5.825   9.431 -0.6725  2.8646 -1.8863
  101OSM    H9T10191   6.683   5.782   9.485 -0.6029 -0.5705  1.3807
  101OSM   C10S10192   6.669   5.942   9.331  0.2202  0.6002 -0.1715
  101OSM   H10S10193   6.777   5.966   9.340  0.6565 -1.5656  1.3007
  101OSM   H10T10194   6.611   6.035   9.310  1.5821  1.1605 -1.6195
  101OSM   C11S10195   6.661   5.855   9.210  0.2462 -0.2963 -0.3905
  101OSM   H11S10196   6.551   5.841   9.200 -0.3611  1.6986  2.2004
  101OSM   H11T10197   6.714   5.758   9.223 -0.2337 -0.5532 -0.3041
  101OSM   C12S10198   6.725   5.926   9.090 -0.0983  0.3421 -0.0623
  101OSM   H12S10199   6.834   5.941   9.105  0.1473  1.5017 -2.4308
  101OSM   H12T10200   6.678   6.025   9.077  2.0886  1.3718 -0.4962
  101OSM   C13S10201   6.705   5.863   8.952 -0.9981 -0.8289  0.6817
  101OSM   H13S10202   6.758   5.917   8.870 -1.6574 -1.6742 -0.3408
  101OSM   H13T10203   6.596   5.861   8.934 -0.6908  1.2221 -2.1386
  101OSM   C14S10204   6.751   5.715   8.931  0.4845  0.7039 -0.2162
  101OSM   H14S10205   6.668   5.671   8.990  1.3689 -2.3941 -1.0905
  101OSM   H14T10206   6.844   5.703   8.991 -0.0122 -1.2682  0.2067
  101OSM   C15S10207   6.744   5.659   8.792 -0.0759 -0.4805 -0.3087
  101OSM   H15S10208   6.775   5.552   8.788  0.5978 -0.2646 -2.5809
  101OSM   H15T10209   6.820   5.710   8.729  0.2176  1.9567  1.8728
  101OSM   C16S10210   6.601   5.681   8.738 -0.7169  0.0741  1.1365
  101OSM   H16S10211   6.577   5.790   8.738  1.4026  0.5854  2.3251
  101OSM   H16T10212   6.523   5.635   8.803 -2.0659  0.5867 -0.0508
  101OSM   C17S10213   6.596   5.625   8.593 -0.0397  0.0986  0.7834
  101OSM   H17S10214   6.605   5.514   8.598 -0.4860 -0.2314 -3.0920
  101OSM   H17T10215   6.692   5.646   8.542  0.8772 -1.1551  1.9176
  101OSM   C18S10216   6.475   5.657   8.502 -1.4011 -0.8895  0.2209
  101OSM   H18S10217   6.476   5.768   8.495  0.9261 -0.8427  0.5063
  101OSM   H18T10218   6.385   5.619   8.555 -1.3008 -2.3097 -0.5828
  101OSM   H18U10219   6.487   5.606   8.404 -2.0488  1.7103 -1.3107
  101OSM    C1F10220   6.172   5.597  10.023  0.2676  0.3687  0.2619
  101OSM     OF10221   6.093   5.628  10.114 -0.8042 -0.3846 -0.2928
  101OSM    C2F10222   6.121   5.548   9.890  0.3679  0.8420  0.0160
  101OSM    H2F10223   6.054   5.462   9.911 -2.0421  2.7533  0.5984
  101OSM    H2G10224   6.217   5.520   9.840  1.8011  2.6567  1.5893
  101OSM    C3F10225   6.050   5.659   9.823 -0.5619 -0.2789 -0.4983
  101OSM    H3F10226   6.113   5.750   9.820 -2.5696  1.1637 -0.9819
  101OSM    H3G10227   5.956   5.696   9.869 -0.8721  2.2873 -2.9272
  101OSM    C4F10228   5.993   5.626   9.685 -0.4204 -0.3834 -0.3856
  101OSM    H4F10229   5.926   5.711   9.660 -0.4791 -0.2076  0.3391
  101OSM    H4G10230   5.932   5.533   9.693 -1.9966  0.7300  1.5310
  101OSM    C5F10231   6.103   5.619   9.579 -0.1588 -0.4637  0.3750
  101OSM    H5F10232   6.181   5.545   9.610 -0.9468 -0.5528  2.3024
  101OSM    H5G10233   6.163   5.713   9.580  0.1759 -0.6151 -1.7958
  101OSM    C6F10234   6.043   5.597   9.433  0.0856  0.1217  0.2057
  101OSM    H6F10235   5.991   5.691   9.403 -2.4157 -1.2356 -0.0160
  101OSM    H6G10236   5.964   5.520   9.442  0.9880 -0.7944  0.4238
  101OSM    C7F10237   6.148   5.561   9.330  0.0520  0.2171  0.9131
  101OSM    H7F10238   6.092   5.545   9.235  1.3971  0.0421  0.1270
  101OSM    H7G10239   6.192   5.464   9.361 -0.7282 -0.2638  0.5534
  101OSM    C8F10240   6.246   5.671   9.290 -0.0031  0.4034  0.2087
  101OSM    H8F10241   6.307   5.695   9.379 -0.2013 -1.5610  0.9319
  101OSM    H8G10242   6.195   5.766   9.264  1.1045  1.7055  2.5214
  101OSM    C9F10243   6.341   5.620   9.173 -0.0459 -0.2407 -0.0651
  101OSM    H9F10244   6.403   5.534   9.201  0.0351 -0.5478 -1.1774
  101OSM   C10F10245   6.343   5.659   9.045  0.3868 -0.1818 -0.0801
  101OSM   H10F10246   6.421   5.615   8.981 -0.0387 -3.5500  1.5222
  101OSM   C11F10247   6.257   5.755   8.975 -0.2370 -0.4092 -0.0303
  101OSM   H11F10248   6.280   5.776   8.868  0.2866 -1.1310 -0.0716
  101OSM   H11G10249   6.260   5.851   9.030 -3.0097 -0.1141 -0.2569
  101OSM   C12F10250   6.105   5.720   8.969 -0.7729  0.4107 -0.3752
  101OSM   H12F10251   6.078   5.710   9.076  1.0680  0.9221  0.1745
  101OSM   H12G10252   6.093   5.628   8.908  0.8159 -0.9470  1.2733
  101OSM   C13F10253   6.021   5.840   8.916 -0.5382 -0.7385 -0.6760
  101OSM   H13F10254   6.068   5.870   8.820  1.9839 -1.2221  0.3331
  101OSM   H13G10255   6.053   5.925   8.980 -0.1429 -1.5389  0.2134
  101OSM   C14F10256   5.867   5.817   8.896  0.2321  0.0690 -0.0632
  101OSM   H14F10257   5.820   5.791   8.993 -0.4402 -0.5504 -0.5419
  101OSM   H14G10258   5.863   5.732   8.825  2.3996  2.2829 -3.1058
  101OSM   C15F10259   5.789   5.940   8.836  0.1581  0.0386 -0.2374
  101OSM   H15F10260   5.822   5.935   8.730 -0.1147 -3.2321 -0.2674
  101OSM   H15G10261   5.833   6.031   8.883  0.4944 -0.0572 -0.3618
  101OSM   C16F10262   5.633   5.928   8.827 -0.0740 -0.3970  0.2861
  101OSM   H16F10263   5.597   5.825   8.806 -0.9829 -0.4238  1.8415
  101OSM   H16G10264   5.605   6.001   8.748  1.7712  1.6172  1.3720
  101OSM   C17F10265   5.569   5.972   8.955  0.4843 -0.8905 -0.7819
  101OSM   H17F10266   5.605   6.073   8.983  2.3931 -1.6214 -0.4671
  101OSM   H17G10267   5.603   5.903   9.035 -0.1868 -0.7193 -0.3375
  101OSM   C18F10268   5.419   5.972   8.959  0.1860  1.2316 -0.3698
  101OSM   H18F10269   5.382   5.873   8.923 -1.2528  1.3862  0.6307
  101OSM   H18G10270   5.369   6.051   8.900  2.5495  0.8335 -3.1528
  101OSM   H18H10271   5.395   5.981   9.067 -1.5850 -0.3004 -0.5876
  102OSM      N10272   5.052   4.196  10.957  0.7010  0.1465 -0.0201
  102OSM    C1510273   4.985   4.212  11.098 -0.2402 -0.3634 -0.1790
  102OSM   H15A10274   4.929   4.304  11.103 -1.3967 -1.0475  4.1928
  102OSM   H15B10275   5.067   4.229  11.167  0.1700  1.0883 -0.9892
  102OSM   H15C10276   4.919   4.130  11.123 -0.8628  0.3312  0.5149
  102OSM    C1410277   4.943   4.229  10.860 -0.4711  1.4768 -0.2409
  102OSM   H14A10278   4.857   4.165  10.862  0.9962 -0.6142 -0.6636
  102OSM   H14B10279   4.979   4.240  10.759  0.7928 -0.9226 -0.1108
  102OSM   H14C10280   4.895   4.323  10.884  0.3450  2.3526 -1.9217
  102OSM    C1310281   5.155   4.309  10.943  0.6829 -0.2874  0.4170
  102OSM   H13A10282   5.201   4.313  10.845  1.5234 -0.0503  0.8128
  102OSM   H13B10283   5.232   4.296  11.018  0.1147 -1.2816  0.8412
  102OSM   H13C10284   5.106   4.402  10.967 -2.5131 -1.3601 -1.3590
  102OSM    C1210285   5.120   4.060  10.934  0.0969  0.1934 -0.0351
  102OSM   H12A10286   5.046   3.986  10.961 -0.5321 -0.0774 -2.3252
  102OSM   H12B10287   5.198   4.041  11.006 -1.6225  1.5519  2.3661
  102OSM    C1110288   5.179   4.026  10.796  0.2188  0.0324 -0.0901
  102OSM   H11A10289   5.092   4.040  10.728  0.1652 -0.9399 -0.2370
  102OSM   H11B10290   5.213   3.923  10.770 -1.6141 -0.5289 -0.4305
  102OSM      P10291   5.428   4.097  10.795  0.2892 -0.3444 -0.2895
  102OSM    O1310292   5.498   4.231  10.786 -0.4728  0.4447  0.3404
  102OSM    O1410293   5.445   4.036  10.929  0.4076  0.0171 -0.1662
  102OSM    O1110294   5.500   4.006  10.682 -0.0282 -0.3089 -0.3025
  102OSM    O1210295   5.275   4.119  10.765 -0.4168 -0.4220 -0.0089
  102OSM    C1S10296   5.446   4.023  10.552 -0.8000  0.5100  0.0243
  102OSM    H1S10297   5.440   4.131  10.529  2.3141  1.0124  1.0149
  102OSM    H1T10298   5.352   3.965  10.546 -0.4890 -0.0301  0.2928
  102OSM     NF10299   5.474   3.980  10.297  0.0086 -0.0146  0.2311
  102OSM    HNF10300   5.478   3.905  10.232  0.2322  1.6344 -1.7637
  102OSM    C2S10301   5.541   3.976  10.427  0.1254 -0.1303 -0.7128
  102OSM    H2S10302   5.624   4.049  10.436 -1.6792  1.7579  2.6850
  102OSM    C3S10303   5.607   3.836  10.461 -0.2806  0.3064  0.4285
  102OSM    H3S10304   5.531   3.757  10.477  0.0816  0.0219  0.7595
  102OSM     O310305   5.672   3.841  10.586  0.0974  0.1904 -0.4141
  102OSM    HO310306   5.642   3.924  10.624 -0.3934  1.4220 -3.2352
  102OSM    C4S10307   5.701   3.795  10.346  0.9343 -0.4888  0.3493
  102OSM    H4S10308   5.656   3.721  10.278 -0.3476 -0.9494  1.6447
  102OSM    C5S10309   5.824   3.844  10.327 -0.8423  0.5550 -0.5261
  102OSM    H5S10310   5.870   3.895  10.413  3.7336 -0.3725 -2.1611
  102OSM    C6S10311   5.910   3.807  10.207 -0.2539  0.1744  0.0042
  102OSM    H6S10312   5.989   3.740  10.246 -0.5208 -0.9168 -1.2506
  102OSM    H6T10313   5.957   3.897  10.161  0.6639  0.0976  0.7609
  102OSM    C7S10314   5.837   3.734  10.090 -0.3380 -0.7641 -0.4964
  102OSM    H7S10315   5.744   3.794  10.077  1.0010  1.9656  1.5540
  102OSM    H7T10316   5.810   3.629  10.112 -2.5552  0.4101  3.3591
  102OSM    C8S10317   5.913   3.739   9.955 -0.2539  0.0558 -0.5696
  102OSM    H8S10318   6.013   3.691   9.961  0.2776  0.9390 -1.8987
  102OSM    H8T10319   5.922   3.848   9.937  0.4984  0.3075  1.1581
  102OSM    C9S10320   5.837   3.671   9.847 -0.0002 -0.0399 -0.4624
  102OSM    H9S10321   5.740   3.726   9.846  1.4327  2.6797 -0.4716
  102OSM    H9T10322   5.828   3.562   9.868  1.4935  0.0238  0.6297
  102OSM   C10S10323   5.905   3.688   9.719 -0.2794  0.0331 -0.4385
  102OSM   H10S10324   6.000   3.630   9.729  0.9034  1.3700 -2.9795
  102OSM   H10T10325   5.930   3.796   9.713 -0.4405  0.1190  0.3712
  102OSM   C11S10326   5.820   3.648   9.602  0.3557 -0.2936  0.7903
  102OSM   H11S10327   5.882   3.675   9.514 -0.5113 -0.7670  0.0180
  102OSM   H11T10328   5.718   3.691   9.600 -0.3825 -1.9185  1.6849
  102OSM   C12S10329   5.797   3.496   9.598  0.4580 -0.3685  0.8560
  102OSM   H12S10330   5.742   3.479   9.693 -3.3336  2.4004 -0.6072
  102OSM   H12T10331   5.887   3.432   9.611  0.5296 -0.4850 -0.1472
  102OSM   C13S10332   5.719   3.430   9.479 -0.0389  0.1159 -0.5449
  102OSM   H13S10333   5.634   3.494   9.447 -1.3747 -1.4578 -0.2929
  102OSM   H13T10334   5.682   3.328   9.502  1.0821  0.0701  1.3098
  102OSM   C14S10335   5.816   3.417   9.354 -0.9874  0.3094  0.0261
  102OSM   H14S10336   5.891   3.344   9.390 -0.9831  1.1507  1.8703
  102OSM   H14T10337   5.866   3.514   9.332 -0.2163 -0.1104 -0.1135
  102OSM   C15S10338   5.737   3.369   9.232  0.0843 -0.1265  0.2032
  102OSM   H15S10339   5.665   3.448   9.204  0.3439 -0.2173 -0.7548
  102OSM   H15T10340   5.685   3.283   9.278  2.0656 -1.2013  0.5870
  102OSM   C16S10341   5.816   3.328   9.103 -0.3712  0.2636 -0.2458
  102OSM   H16S10342   5.747   3.282   9.030 -0.7349 -0.4089  0.5006
  102OSM   H16T10343   5.897   3.256   9.128 -1.5018 -1.0217 -0.1963
  102OSM   C17S10344   5.864   3.450   9.024  0.3597  0.4113 -0.6849
  102OSM   H17S10345   5.937   3.515   9.076  1.0357  1.3165 -2.6717
  102OSM   H17T10346   5.767   3.500   9.002  0.6676  0.7458 -1.3080
  102OSM   C18S10347   5.947   3.412   8.898  0.0650  0.5560  0.3397
  102OSM   H18S10348   5.966   3.498   8.830  0.1252 -0.0753 -0.4523
  102OSM   H18T10349   5.896   3.348   8.823  1.8544  0.0922 -0.5375
  102OSM   H18U10350   6.040   3.357   8.922 -0.4753  0.8715  3.6031
  102OSM    C1F10351   5.428   4.089  10.242  0.3713 -0.0677 -0.2091
  102OSM     OF10352   5.450   4.206  10.283  0.0702 -0.6829  0.4999
  102OSM    C2F10353   5.358   4.059  10.109  0.5749  0.0108 -0.0123
  102OSM    H2F10354   5.250   4.057  10.138 -0.1705  0.9456 -2.4646
  102OSM    H2G10355   5.385   3.956  10.078  4.1143  0.9405 -0.4650
  102OSM    C3F10356   5.378   4.147   9.986  0.0905  0.7244  0.0164
  102OSM    H3F10357   5.488   4.147   9.973  0.6805 -0.7465  3.7305
  102OSM    H3G10358   5.360   4.254  10.009  1.9803  1.0510  0.1143
  102OSM    C4F10359   5.312   4.104   9.859 -0.0598 -0.6362  0.1353
  102OSM    H4F10360   5.208   4.073   9.883 -1.1422  3.1970  1.1377
  102OSM    H4G10361   5.371   4.019   9.818  0.8510 -0.6833  1.4594
  102OSM    C5F10362   5.318   4.211   9.752  0.6234  0.0149  0.4071
  102OSM    H5F10363   5.424   4.237   9.736  0.0568  2.0359 -0.4023
  102OSM    H5G10364   5.269   4.306   9.784 -0.1045 -0.2433  0.0855
  102OSM    C6F10365   5.252   4.155   9.617 -0.0056 -0.4071 -0.1252
  102OSM    H6F10366   5.150   4.136   9.657  1.3803 -0.3239  3.9979
  102OSM    H6G10367   5.285   4.053   9.588 -0.1024 -1.2515  2.4745
  102OSM    C7F10368   5.260   4.253   9.493 -0.1953 -0.3178 -0.2700
  102OSM    H7F10369   5.363   4.289   9.476  0.3265 -1.4868  0.3235
  102OSM    H7G10370   5.190   4.336   9.517  0.7527 -0.3576  3.1823
  102OSM    C8F10371   5.220   4.169   9.370  0.1864 -0.2816 -0.2209
  102OSM    H8F10372   5.117   4.133   9.389 -0.0528  0.1439 -0.6818
  102OSM    H8G10373   5.283   4.078   9.359  0.0992 -0.1366 -2.6394
  102OSM    C9F10374   5.227   4.250   9.240  0.3635 -0.3808 -0.1538
  102OSM    H9F10375   5.193   4.353   9.261  0.6848 -0.2185 -0.4120
  102OSM   C10F10376   5.251   4.214   9.115 -0.0380 -0.2881 -0.1320
  102OSM   H10F10377   5.261   4.285   9.032  0.7919  2.2136  1.9754
  102OSM   C11F10378   5.290   4.075   9.080  0.3140 -0.0854  0.7648
  102OSM   H11F10379   5.200   4.014   9.056  0.8331 -0.5326 -0.1016
  102OSM   H11G10380   5.334   4.025   9.168 -0.5237  0.0112  1.2446
  102OSM   C12F10381   5.400   4.066   8.974  0.8051 -0.0833 -0.0766
  102OSM   H12F10382   5.412   3.957   8.956  1.0451 -0.4034  1.7476
  102OSM   H12G10383   5.500   4.105   9.003  1.4851  0.0657 -2.4645
  102OSM   C13F10384   5.358   4.111   8.839  0.5410 -0.2093 -0.2380
  102OSM   H13F10385   5.356   4.222   8.832  2.4165  0.0001  1.6231
  102OSM   H13G10386   5.254   4.078   8.820 -0.3478  1.2464  1.7863
  102OSM   C14F10387   5.455   4.069   8.724 -0.0795  0.1025  0.9385
  102OSM   H14F10388   5.557   4.111   8.737  0.1401  0.0886 -0.5172
  102OSM   H14G10389   5.403   4.107   8.633  0.9579 -0.6304  0.0049
  102OSM   C15F10390   5.450   3.913   8.700  0.0249 -0.7793  0.0082
  102OSM   H15F10391   5.347   3.878   8.722 -0.5647  1.6189  1.4766
  102OSM   H15G10392   5.498   3.857   8.784  1.1135 -0.4241 -0.3564
  102OSM   C16F10393   5.479   3.866   8.549  1.3253  0.5947  0.4484
  102OSM   H16F10394   5.493   3.755   8.551 -0.3881  0.3322 -0.4711
  102OSM   H16G10395   5.581   3.897   8.517  0.9185  0.8948 -0.6061
  102OSM   C17F10396   5.362   3.886   8.447  1.2274 -0.0636  0.7267
  102OSM   H17F10397   5.346   3.995   8.459  1.6314 -0.1548  2.4241
  102OSM   H17G10398   5.280   3.823   8.488 -0.1949  0.2616 -1.4613
  102OSM   C18F10399   5.392   3.860   8.298 -0.3350 -0.1782  0.0164
  102OSM   H18F10400   5.419   3.752   8.289 -0.6074 -0.3825  1.4211
  102OSM   H18G10401   5.476   3.917   8.253  1.2693 -1.5638  1.1112
  102OSM   H18H10402   5.297   3.888   8.249 -0.3076 -0.6539 -0.3218
  103OSM      N10403   4.990   0.626  11.106  0.7125 -0.4889  0.1372
  103OSM    C1510404   5.012   0.482  11.094  0.3314 -0.3676  0.7615
  103OSM   H15A10405   5.101   0.456  11.150  1.3271  1.4368  0.0949
  103OSM   H15B10406   5.022   0.464  10.988  0.2700 -0.5539  0.7868
  103OSM   H15C10407   4.924   0.428  11.125 -0.7020  1.4537  1.1243
  103OSM    C1410408   4.970   0.659  11.249  0.2625 -0.3560 -0.4120
  103OSM   H14A10409   4.938   0.760  11.269  1.7966 -0.2257  1.8131
  103OSM   H14B10410   5.058   0.632  11.306  0.0359 -1.1170 -0.4184
  103OSM   H14C10411   4.896   0.592  11.290  0.6520 -0.0444  0.8592
  103OSM    C1310412   5.102   0.699  11.052 -0.5583 -0.8563 -0.2492
  103OSM   H13A10413   5.117   0.687  10.945  3.5088 -0.0703  0.0638
  103OSM   H13B10414   5.197   0.669  11.094 -0.4374  0.6214  0.5981
  103OSM   H13C10415   5.092   0.804  11.077  0.6947 -1.2970  2.3289
  103OSM    C1210416   4.867   0.667  11.028  0.1552  0.7103 -0.5379
  103OSM   H12A10417   4.784   0.628  11.085  0.6291  0.2443 -0.1625
  103OSM   H12B10418   4.866   0.629  10.927  1.8023  0.5146 -0.5112
  103OSM    C1110419   4.843   0.815  11.021  0.0263 -0.7918 -0.2490
  103OSM   H11A10420   4.843   0.869  11.118  0.9696  1.1594 -1.2934
  103OSM   H11B10421   4.738   0.826  10.984  0.1034 -0.0294 -0.2515
  103OSM      P10422   4.925   0.887  10.786  0.6219  0.0900  0.0951
  103OSM    O1310423   4.814   0.971  10.742  0.6598 -0.2839 -0.5772
  103OSM    O1410424   5.058   0.934  10.740  0.0015 -0.0342  0.8563
  103OSM    O1110425   4.895   0.739  10.762  0.2577 -0.5914  1.1847
  103OSM    O1210426   4.933   0.889  10.943 -0.2101 -0.0047  0.3163
  103OSM    C1S10427   4.806   0.683  10.665 -0.2030  0.0190 -0.1814
  103OSM    H1S10428   4.724   0.757  10.655  0.1938  0.8929  2.2849
  103OSM    H1T10429   4.749   0.593  10.697 -1.0155  0.8944  0.9374
  103OSM     NF10430   4.794   0.627  10.421  0.1250 -0.5523  0.3461
  103OSM    HNF10431   4.781   0.529  10.404  1.0620 -0.4590 -1.0846
  103OSM    C2S10432   4.887   0.654  10.530  0.7964 -0.2407 -0.5389
  103OSM    H2S10433   4.947   0.742  10.499  0.2850 -0.2583 -1.6366
  103OSM    C3S10434   4.991   0.539  10.555 -0.1136  0.0100  0.3659
  103OSM    H3S10435   4.942   0.446  10.593  0.0497  1.1196  3.5503
  103OSM     O310436   5.098   0.574  10.642 -0.2963 -0.1763 -0.1977
  103OSM    HO310437   5.062   0.647  10.694 -1.7483 -0.2303 -1.0753
  103OSM    C4S10438   5.048   0.504  10.424  0.1153 -0.4848  0.3144
  103OSM    H4S10439   5.008   0.409  10.385  0.1737 -0.3471 -0.0855
  103OSM    C5S10440   5.123   0.579  10.337 -0.1288  0.2963  0.1214
  103OSM    H5S10441   5.151   0.681  10.367  0.2214 -0.1159  1.2493
  103OSM    C6S10442   5.170   0.535  10.203 -0.3769  0.0999  0.4028
  103OSM    H6S10443   5.265   0.587  10.179 -0.7255 -0.1068 -1.5719
  103OSM    H6T10444   5.087   0.570  10.137 -0.9185 -0.2281  0.8971
  103OSM    C7S10445   5.199   0.385  10.186 -0.1357  0.6635  0.2326
  103OSM    H7S10446   5.115   0.318  10.212  1.2491 -1.0374  0.5310
  103OSM    H7T10447   5.285   0.364  10.253 -0.5930 -1.2110  0.2720
  103OSM    C8S10448   5.225   0.348  10.041  0.3601  0.3884  0.0454
  103OSM    H8S10449   5.238   0.238  10.044 -0.2021  0.0912 -3.5930
  103OSM    H8T10450   5.321   0.398  10.020  0.9789  0.1799  2.1585
  103OSM    C9S10451   5.113   0.368   9.939 -0.4552 -1.1509  0.3521
  103OSM    H9S10452   5.069   0.467   9.965  0.4427 -1.3588  2.9500
  103OSM    H9T10453   5.041   0.284   9.951 -1.7676 -0.0881  0.2727
  103OSM   C10S10454   5.158   0.360   9.783 -0.0948 -0.0840 -0.0683
  103OSM   H10S10455   5.064   0.372   9.726 -0.2607 -1.9289 -0.2339
  103OSM   H10T10456   5.189   0.260   9.747  1.2837  0.3873 -0.2711
  103OSM   C11S10457   5.274   0.459   9.751  0.4832  0.2695 -0.1280
  103OSM   H11S10458   5.361   0.452   9.819  0.5162  2.4048  0.1258
  103OSM   H11T10459   5.234   0.562   9.767  0.1507  0.1447 -0.1431
  103OSM   C12S10460   5.326   0.462   9.604 -0.2936 -0.3972  0.5221
  103OSM   H12S10461   5.413   0.393   9.600 -0.0680 -0.1085  0.3900
  103OSM   H12T10462   5.366   0.565   9.587 -1.0222 -0.3636 -1.2208
  103OSM   C13S10463   5.226   0.419   9.492 -0.2980  0.2962 -0.0522
  103OSM   H13S10464   5.123   0.453   9.518 -0.5548 -0.8906  0.5737
  103OSM   H13T10465   5.215   0.309   9.499 -1.4318  0.4113  0.2065
  103OSM   C14S10466   5.273   0.448   9.352  0.2448 -0.7137  0.6513
  103OSM   H14S10467   5.361   0.381   9.343  2.2518  1.6495  1.7138
  103OSM   H14T10468   5.312   0.551   9.361 -0.1196 -0.5623  0.5111
  103OSM   C15S10469   5.169   0.455   9.240  0.4442  1.1308  0.7623
  103OSM   H15S10470   5.106   0.546   9.238 -1.9846 -0.3764  3.0499
  103OSM   H15T10471   5.095   0.375   9.259  2.8436 -1.5864 -0.4634
  103OSM   C16S10472   5.225   0.428   9.099 -0.2414  0.3595 -0.5843
  103OSM   H16S10473   5.285   0.334   9.099 -3.0064 -1.5790 -3.1845
  103OSM   H16T10474   5.291   0.514   9.077  1.4552  0.1547  2.9334
  103OSM   C17S10475   5.118   0.423   8.991  0.2486 -0.5207 -0.2862
  103OSM   H17S10476   5.068   0.521   9.008 -0.9019 -0.4584 -3.3552
  103OSM   H17T10477   5.039   0.360   9.036  0.3676 -0.2213  0.3499
  103OSM   C18S10478   5.162   0.390   8.853 -0.4831 -0.3584 -0.4930
  103OSM   H18S10479   5.079   0.409   8.781 -0.8305 -1.2111 -0.3408
  103OSM   H18T10480   5.189   0.282   8.845 -3.1203 -1.1918  0.6608
  103OSM   H18U10481   5.250   0.456   8.839 -0.9052  0.3544  0.1394
  103OSM    C1F10482   4.700   0.709  10.385  0.1946 -0.4153  0.6202
  103OSM     OF10483   4.721   0.830  10.406 -0.0907  0.0671  0.7274
  103OSM    C2F10484   4.585   0.653  10.307 -0.2531 -0.5106 -0.5576
  103OSM    H2F10485   4.538   0.561  10.349 -1.3446  0.0511 -0.5064
  103OSM    H2G10486   4.618   0.632  10.203 -0.9470 -0.3312 -0.8234
  103OSM    C3F10487   4.470   0.758  10.293 -0.0450  0.2136 -0.0802
  103OSM    H3F10488   4.505   0.854  10.248 -2.6614  1.5321  0.4645
  103OSM    H3G10489   4.445   0.812  10.386  2.3102  3.4961 -1.1621
  103OSM    C4F10490   4.348   0.713  10.218  0.6464 -0.1655 -0.4391
  103OSM    H4F10491   4.262   0.781  10.235 -0.0763 -1.0164 -0.6098
  103OSM    H4G10492   4.323   0.611  10.257  3.4903 -0.6737  0.2622
  103OSM    C5F10493   4.365   0.692  10.068  0.2686 -0.0052 -0.2139
  103OSM    H5F10494   4.270   0.653  10.024  0.2009  1.4291 -1.4038
  103OSM    H5G10495   4.436   0.607  10.056  0.4825 -0.2878  2.4834
  103OSM    C6F10496   4.413   0.818   9.995  0.5067  0.3475  0.0511
  103OSM    H6F10497   4.510   0.858  10.032 -0.6909  0.8484  2.9125
  103OSM    H6G10498   4.339   0.900  10.002 -0.9322 -0.9352  0.3818
  103OSM    C7F10499   4.435   0.785   9.849  0.3212  0.8355  0.1561
  103OSM    H7F10500   4.348   0.726   9.814  1.3138  0.0648 -1.0825
  103OSM    H7G10501   4.515   0.708   9.846 -0.6918 -0.2953  1.0262
  103OSM    C8F10502   4.456   0.904   9.761  0.5062 -0.3553  0.2604
  103OSM    H8F10503   4.522   0.979   9.809 -0.0174  1.3358 -1.5192
  103OSM    H8G10504   4.353   0.946   9.754  0.1409 -1.0285  1.3829
  103OSM    C9F10505   4.512   0.876   9.622  0.2482 -0.0223  0.4141
  103OSM    H9F10506   4.592   0.801   9.633 -1.0532 -1.1909  2.5193
  103OSM   C10F10507   4.482   0.912   9.497 -0.2655 -0.5688  0.2480
  103OSM   H10F10508   4.532   0.873   9.408  1.1827  0.8869  0.3685
  103OSM   C11F10509   4.368   1.007   9.461 -0.1608  0.3388  0.1975
  103OSM   H11F10510   4.336   1.060   9.552  0.5149 -0.7614  1.1023
  103OSM   H11G10511   4.281   0.963   9.407  0.0662  0.7541 -0.5176
  103OSM   C12F10512   4.433   1.111   9.368  0.1257 -0.2088  1.1145
  103OSM   H12F10513   4.537   1.138   9.398  0.9800  0.0301 -1.7662
  103OSM   H12G10514   4.371   1.202   9.383 -3.3433 -1.9864 -1.2240
  103OSM   C13F10515   4.437   1.073   9.229 -0.4451  0.6346  0.5503
  103OSM   H13F10516   4.472   0.969   9.214  0.1173  0.8243  0.5212
  103OSM   H13G10517   4.335   1.067   9.185  0.6148 -2.2833 -1.8705
  103OSM   C14F10518   4.545   1.156   9.150 -0.6009  0.3479 -0.0443
  103OSM   H14F10519   4.641   1.145   9.205  1.2910 -1.6187 -3.3893
  103OSM   H14G10520   4.516   1.262   9.160 -0.2239  0.4911 -0.4270
  103OSM   C15F10521   4.577   1.120   9.004  1.4340  1.0087 -0.3410
  103OSM   H15F10522   4.668   1.058   8.996  0.2140 -0.9353  0.2420
  103OSM   H15G10523   4.604   1.217   8.956 -0.6101  0.4240 -2.9487
  103OSM   C16F10524   4.458   1.051   8.928 -0.3528  0.4188 -0.2964
  103OSM   H16F10525   4.379   1.129   8.932 -2.8503 -1.7704 -2.6159
  103OSM   H16G10526   4.422   0.958   8.975 -0.8888 -0.3805 -2.1963
  103OSM   C17F10527   4.488   0.999   8.786  0.2488  0.0446  0.5125
  103OSM   H17F10528   4.397   0.958   8.737  0.0130  0.5576  0.5172
  103OSM   H17G10529   4.568   0.922   8.779 -0.7803 -1.0949  1.0630
  103OSM   C18F10530   4.550   1.115   8.696 -0.3493  0.5604  0.4289
  103OSM   H18F10531   4.483   1.199   8.666 -2.0946 -0.9624 -0.1382
  103OSM   H18G10532   4.587   1.056   8.609 -4.2573 -2.7573  0.7134
  103OSM   H18H10533   4.644   1.141   8.748 -0.8068  0.4024  1.3489
  104OSM      N10534   4.759   6.609  10.772  0.1225 -0.0457 -0.8609
  104OSM    C1510535   4.780   6.505  10.671  0.2339 -0.1516  0.2553
  104OSM   H15A10536   4.710   6.529  10.593  0.9016  3.1685  0.4976
  104OSM   H15B10537   4.747   6.413  10.715 -0.4177  1.1873  2.7657
  104OSM   H15C10538   4.880   6.510  10.630  0.3754  1.3146  0.7026
  104OSM    C1410539   4.834   6.564  10.897  0.0416 -0.2894  0.4774
  104OSM   H14A10540   4.800   6.474  10.945 -0.8016  0.5355  1.4792
  104OSM   H14B10541   4.833   6.639  10.975  1.4761  1.0591 -0.7430
  104OSM   H14C10542   4.935   6.542  10.867  0.2620  0.2913  0.7759
  104OSM    C1310543   4.829   6.730  10.721 -0.2277  1.0195  0.0120
  104OSM   H13A10544   4.794   6.745  10.620  1.2871 -0.6622 -0.8154
  104OSM   H13B10545   4.936   6.715  10.722 -0.3520 -0.8438  3.9869
  104OSM   H13C10546   4.806   6.824  10.769  1.9695  1.5259  0.1540
  104OSM    C1210547   4.609   6.641  10.795  0.2655 -0.1534  0.1231
  104OSM   H12A10548   4.557   6.554  10.831 -2.0624  0.7408 -0.9268
  104OSM   H12B10549   4.574   6.659  10.694  2.7433  0.6375 -0.6777
  104OSM    C1110550   4.578   6.756  10.889  0.1144 -0.5238 -0.4454
  104OSM   H11A10551   4.628   6.734  10.986  1.5138  1.9157 -0.5234
  104OSM   H11B10552   4.474   6.770  10.924  0.7408  0.8040  0.9864
  104OSM      P10553   4.541   6.967  10.739  0.1247 -0.0968  0.2428
  104OSM    O1310554   4.407   6.992  10.796  0.2148  0.3929 -0.7030
  104OSM    O1410555   4.623   7.081  10.688  0.2244 -0.4972  0.1383
  104OSM    O1110556   4.518   6.880  10.610 -0.0272  0.8425 -0.2178
  104OSM    O1210557   4.622   6.882  10.844 -0.4873 -0.0334  0.0846
  104OSM    C1S10558   4.397   6.815  10.566 -0.4276 -0.8457 -0.2156
  104OSM    H1S10559   4.309   6.880  10.583 -0.6177 -1.3356  0.7291
  104OSM    H1T10560   4.384   6.714  10.612  0.4620 -1.3406 -1.0174
  104OSM     NF10561   4.257   6.761  10.361 -0.6411 -0.0591 -0.0113
  104OSM    HNF10562   4.228   6.668  10.343  1.5365 -0.8076 -0.0015
  104OSM    C2S10563   4.399   6.793  10.411  0.1856  0.3788 -0.1640
  104OSM    H2S10564   4.428   6.883  10.352  1.1075 -0.3351 -0.8344
  104OSM    C3S10565   4.507   6.686  10.368  0.3074  0.6906 -0.5039
  104OSM    H3S10566   4.481   6.590  10.417  3.0874 -0.0067 -0.1908
  104OSM     O310567   4.641   6.712  10.419  0.5668 -0.6021 -0.5528
  104OSM    HO310568   4.620   6.782  10.481  0.6851 -0.0656 -1.1099
  104OSM    C4S10569   4.509   6.678  10.219  0.2627  0.0891 -0.5005
  104OSM    H4S10570   4.538   6.773  10.171  0.7411 -0.0741 -0.5430
  104OSM    C5S10571   4.486   6.566  10.151 -0.5273  0.5567 -0.9833
  104OSM    H5S10572   4.465   6.468  10.196 -1.6893  1.4033  0.3932
  104OSM    C6S10573   4.501   6.544   9.999 -0.0214 -0.2109 -0.2300
  104OSM    H6S10574   4.417   6.483   9.960  0.2145  0.5592 -2.0391
  104OSM    H6T10575   4.592   6.487   9.969 -0.9302 -0.8263 -2.0125
  104OSM    C7S10576   4.516   6.666   9.899  0.0867  0.3794 -0.8912
  104OSM    H7S10577   4.610   6.719   9.924  0.4295 -0.8688  0.6307
  104OSM    H7T10578   4.437   6.744   9.900 -0.6084 -0.3135 -0.9294
  104OSM    C8S10579   4.516   6.635   9.751 -0.4235 -0.5983 -0.5785
  104OSM    H8S10580   4.409   6.616   9.726  0.0767 -0.8862 -2.7215
  104OSM    H8T10581   4.580   6.545   9.736  1.8574  0.7536  0.4754
  104OSM    C9S10582   4.571   6.757   9.663  0.5234  0.1246 -0.0174
  104OSM    H9S10583   4.674   6.770   9.702  0.4439 -1.0969  0.6653
  104OSM    H9T10584   4.505   6.846   9.672  1.3204  0.6497  0.8057
  104OSM   C10S10585   4.575   6.724   9.514  0.2657  0.2710 -0.4163
  104OSM   H10S10586   4.649   6.641   9.504  0.2070 -0.1807  2.2366
  104OSM   H10T10587   4.618   6.815   9.468  0.8143  1.1467  1.7062
  104OSM   C11S10588   4.438   6.679   9.452  0.5869  0.7431  0.0077
  104OSM   H11S10589   4.355   6.753   9.457 -0.1463 -0.0246 -0.5801
  104OSM   H11T10590   4.400   6.589   9.505 -0.3717  0.9300 -0.3480
  104OSM   C12S10591   4.455   6.667   9.299 -0.0297  0.4239 -0.7930
  104OSM   H12S10592   4.489   6.563   9.284 -0.3448 -0.1139  1.7335
  104OSM   H12T10593   4.528   6.744   9.267  1.6061 -1.1568 -0.9911
  104OSM   C13S10594   4.328   6.687   9.218  0.1054  0.2293 -0.1516
  104OSM   H13S10595   4.276   6.770   9.271  0.7686 -0.0363  0.9492
  104OSM   H13T10596   4.252   6.606   9.218  1.0006 -0.6522 -1.7309
  104OSM   C14S10597   4.356   6.711   9.071  0.2478 -0.5289  0.8432
  104OSM   H14S10598   4.441   6.779   9.055  0.1234 -0.7475 -0.9391
  104OSM   H14T10599   4.271   6.757   9.016  1.0280  0.3707  0.3790
  104OSM   C15S10600   4.378   6.574   8.993 -0.0929 -0.1420 -0.1951
  104OSM   H15S10601   4.292   6.511   9.025 -2.4362  3.6807  1.6622
  104OSM   H15T10602   4.472   6.528   9.031 -0.1560  0.9098  1.3039
  104OSM   C16S10603   4.398   6.587   8.841 -0.1450  0.1037 -0.2805
  104OSM   H16S10604   4.469   6.670   8.816  1.3506 -0.2860  2.3106
  104OSM   H16T10605   4.302   6.617   8.795 -1.0313 -0.9896  0.7891
  104OSM   C17S10606   4.441   6.458   8.764  0.4534  0.6570 -0.5465
  104OSM   H17S10607   4.356   6.388   8.779  0.4415  0.4988 -1.2884
  104OSM   H17T10608   4.533   6.421   8.814  0.1866  1.5224  0.6062
  104OSM   C18S10609   4.452   6.480   8.616  0.0565 -0.4998  0.2036
  104OSM   H18S10610   4.489   6.391   8.560 -0.3993 -1.4513  1.3663
  104OSM   H18T10611   4.499   6.580   8.606 -3.4160  1.8140  3.7536
  104OSM   H18U10612   4.353   6.503   8.571  0.3831 -0.7851 -0.6780
  104OSM    C1F10613   4.158   6.854  10.368 -0.5643  0.6878  0.3712
  104OSM     OF10614   4.170   6.964  10.418  0.6490  0.7757 -0.0743
  104OSM    C2F10615   4.031   6.804  10.305  0.0732 -0.9552  0.0623
  104OSM    H2F10616   3.949   6.858  10.356  0.7902 -1.7527  2.1949
  104OSM    H2G10617   4.014   6.694  10.310  0.0033 -1.1952 -3.2259
  104OSM    C3F10618   4.025   6.840  10.152  0.6112  0.2834  0.5235
  104OSM    H3F10619   4.043   6.949  10.137 -0.3196  0.9421  3.4707
  104OSM    H3G10620   3.924   6.807  10.119  1.1299  0.1451 -0.9783
  104OSM    C4F10621   4.115   6.758  10.063  0.8083 -0.0026 -0.4973
  104OSM    H4F10622   4.092   6.649  10.065  1.5538 -0.1837 -1.0394
  104OSM    H4G10623   4.220   6.757  10.100  0.8254 -4.3648 -0.1318
  104OSM    C5F10624   4.122   6.791   9.917 -0.0049  0.3542 -0.1385
  104OSM    H5F10625   4.171   6.715   9.853 -1.5991  0.9705 -2.2027
  104OSM    H5G10626   4.180   6.885   9.906  0.9012 -0.1812 -0.0169
  104OSM    C6F10627   3.988   6.826   9.860  0.7067 -0.5248 -0.1239
  104OSM    H6F10628   3.937   6.910   9.912  1.0322 -2.0510  2.8303
  104OSM    H6G10629   3.911   6.748   9.874 -2.3928  2.2645 -0.2434
  104OSM    C7F10630   3.990   6.847   9.702  0.4933  1.1432 -0.3560
  104OSM    H7F10631   4.057   6.935   9.693  1.9718  0.3623  2.0389
  104OSM    H7G10632   3.888   6.878   9.671 -0.0582 -0.0698  0.1659
  104OSM    C8F10633   4.043   6.734   9.617  0.8710  0.4313 -0.7110
  104OSM    H8F10634   4.144   6.719   9.660  0.4302 -1.1339 -0.1373
  104OSM    H8G10635   4.058   6.763   9.511 -0.5162 -0.4075 -1.1621
  104OSM    C9F10636   3.980   6.596   9.639 -0.1410  0.3004 -0.5246
  104OSM    H9F10637   3.993   6.545   9.736  2.4047  0.0084 -0.9500
  104OSM   C10F10638   3.910   6.531   9.545  0.3697 -0.3246 -0.1594
  104OSM   H10F10639   3.867   6.434   9.571 -0.0691  0.6119  3.0478
  104OSM   C11F10640   3.869   6.590   9.414  1.1141  0.4732  0.3564
  104OSM   H11F10641   3.849   6.699   9.425  0.2440  0.3720 -0.1809
  104OSM   H11G10642   3.775   6.538   9.389  0.4658  1.3885  0.8216
  104OSM   C12F10643   3.963   6.549   9.300 -0.3942 -0.2776 -0.1952
  104OSM   H12F10644   3.983   6.440   9.303 -0.2231 -0.2400  1.5151
  104OSM   H12G10645   4.066   6.589   9.315 -0.3780 -0.8052  1.3714
  104OSM   C13F10646   3.903   6.599   9.172  0.1647 -0.0820  0.2368
  104OSM   H13F10647   3.914   6.709   9.168  2.1427 -0.2887 -1.7590
  104OSM   H13G10648   3.797   6.565   9.173  0.1792 -0.1497 -0.2969
  104OSM   C14F10649   3.979   6.550   9.063 -0.2303  0.2988 -0.4632
  104OSM   H14F10650   3.996   6.441   9.061  4.0318  0.8265 -1.5296
  104OSM   H14G10651   4.084   6.585   9.070 -0.5047  1.1570 -0.4193
  104OSM   C15F10652   3.918   6.591   8.931 -0.5955 -0.2938 -0.4724
  104OSM   H15F10653   3.912   6.702   8.930 -0.7532 -0.2583 -3.2272
  104OSM   H15G10654   3.816   6.547   8.921 -0.3124 -1.2224  0.5486
  104OSM   C16F10655   3.990   6.543   8.803 -0.9830 -0.4896  0.2344
  104OSM   H16F10656   3.991   6.433   8.793  0.3202 -0.3666 -1.5661
  104OSM   H16G10657   4.097   6.574   8.815 -0.8624  0.4725 -2.5428
  104OSM   C17F10658   3.935   6.614   8.678 -0.2265 -0.4115 -0.2398
  104OSM   H17F10659   3.937   6.725   8.683 -1.0943 -0.3387 -1.1478
  104OSM   H17G10660   3.830   6.584   8.658  0.2547 -3.0834  0.7692
  104OSM   C18F10661   3.997   6.563   8.543 -0.6387 -0.8373 -0.1137
  104OSM   H18F10662   4.107   6.562   8.554 -0.6216  0.1231 -0.0769
  104OSM   H18G10663   3.964   6.631   8.462 -0.4461 -0.7494 -0.1196
  104OSM   H18H10664   3.976   6.457   8.515 -1.1340 -1.0213  0.9162
  105OSM      N10665   3.419   0.338  10.970  0.0723  0.1323  1.1663
  105OSM    C1510666   3.424   0.233  11.074 -0.2200 -0.3101 -0.2442
  105OSM   H15A10667   3.454   0.269  11.171 -0.3743 -2.0115  0.4639
  105OSM   H15B10668   3.500   0.160  11.053 -0.2295 -0.2667 -0.4330
  105OSM   H15C10669   3.333   0.175  11.086 -0.5477  0.2216 -0.1271
  105OSM    C1410670   3.305   0.433  11.007 -0.1988  0.3900 -0.0078
  105OSM   H14A10671   3.294   0.508  10.929 -1.1305  0.9520  0.6351
  105OSM   H14B10672   3.327   0.491  11.095 -4.8163  1.4868  0.7058
  105OSM   H14C10673   3.216   0.379  11.036  0.3084 -0.1544  0.5461
  105OSM    C1310674   3.544   0.422  10.957 -0.2587  0.2226  0.2241
  105OSM   H13A10675   3.550   0.495  10.879  0.6174 -0.6728 -0.5738
  105OSM   H13B10676   3.635   0.364  10.960 -0.0540  0.5143 -0.3637
  105OSM   H13C10677   3.548   0.487  11.043  1.3784 -0.2424  0.5335
  105OSM    C1210678   3.387   0.283  10.825 -0.8581  0.1728  0.4466
  105OSM   H12A10679   3.298   0.221  10.823 -3.2915  3.3994 -0.5221
  105OSM   H12B10680   3.460   0.205  10.813 -2.7370 -1.4069 -1.2694
  105OSM    C1110681   3.390   0.377  10.707 -0.4756 -0.0854  0.4609
  105OSM   H11A10682   3.395   0.315  10.615 -0.4957  1.9005 -0.9542
  105OSM   H11B10683   3.481   0.440  10.696  1.4960 -3.1242 -2.6923
  105OSM      P10684   3.142   0.442  10.655 -0.2792 -0.1523  0.2187
  105OSM    O1310685   3.130   0.303  10.621  0.5935 -0.3670  0.3156
  105OSM    O1410686   3.038   0.493  10.750 -0.0840  0.0908 -0.2086
  105OSM    O1110687   3.136   0.537  10.525  0.2008 -0.4331  0.3701
  105OSM    O1210688   3.280   0.463  10.717  0.0349 -0.1032 -0.3567
  105OSM    C1S10689   3.246   0.546  10.438  0.1120  0.1254  0.2524
  105OSM    H1S10690   3.290   0.447  10.411  0.3714  0.6975 -1.5586
  105OSM    H1T10691   3.334   0.596  10.482 -0.3848  1.6203 -0.3823
  105OSM     NF10692   3.288   0.589  10.201  0.1382 -0.3646  0.6713
  105OSM    HNF10693   3.334   0.663  10.153  3.0800 -2.7269 -0.4939
  105OSM    C2S10694   3.193   0.616  10.304 -0.6079 -0.6321  0.1937
  105OSM    H2S10695   3.099   0.561  10.284 -0.0137 -2.2914  1.7337
  105OSM    C3S10696   3.171   0.767  10.341  0.3435 -0.0490 -0.4166
  105OSM    H3S10697   3.268   0.809  10.376  0.3729  0.9974 -1.6749
  105OSM     O310698   3.075   0.791  10.449 -0.1931  0.2730  0.3757
  105OSM    HO310699   3.073   0.711  10.503  1.9568  0.1778  0.3713
  105OSM    C4S10700   3.135   0.835  10.212 -0.1770  0.2661  0.4950
  105OSM    H4S10701   3.218   0.890  10.163  1.3934 -0.1972  2.5030
  105OSM    C5S10702   3.009   0.831  10.163 -0.7865 -0.1230 -0.1958
  105OSM    H5S10703   2.933   0.773  10.218 -2.4820  1.5816 -0.6071
  105OSM    C6S10704   2.955   0.899  10.032 -0.0995  0.3963  0.0647
  105OSM    H6S10705   2.920   1.002  10.053 -0.6212 -0.0749  1.6574
  105OSM    H6T10706   2.867   0.835  10.009 -0.8505  0.7172  1.8265
  105OSM    C7S10707   3.040   0.895   9.903 -0.2214  0.0951 -0.1560
  105OSM    H7S10708   3.080   0.794   9.879  2.2238  0.6701  1.2047
  105OSM    H7T10709   3.130   0.959   9.915 -0.2283  0.5633 -2.2809
  105OSM    C8S10710   2.967   0.949   9.781 -0.2612  0.1400  0.5868
  105OSM    H8S10711   2.903   1.036   9.808 -4.0285 -1.9901 -0.6898
  105OSM    H8T10712   2.897   0.868   9.749  0.1884 -0.2019  0.4509
  105OSM    C9S10713   3.067   0.977   9.664  0.5652  0.4660 -0.0489
  105OSM    H9S10714   3.134   0.892   9.642 -0.5773  0.2845 -3.3954
  105OSM    H9T10715   3.127   1.068   9.689 -0.2792  0.7990  0.8500
  105OSM   C10S10716   3.003   1.007   9.525  0.4173  0.6757  0.1305
  105OSM   H10S10717   2.937   1.096   9.521  0.4015  0.6088 -1.6163
  105OSM   H10T10718   2.943   0.915   9.507 -1.1580  1.7982 -0.4938
  105OSM   C11S10719   3.096   1.029   9.411 -0.1130  0.5231  0.0116
  105OSM   H11S10720   3.181   0.958   9.415 -1.3639 -1.0175  0.2528
  105OSM   H11T10721   3.143   1.129   9.418 -0.3044  0.5520  1.3359
  105OSM   C12S10722   3.028   0.990   9.277  0.3117 -0.0897  0.0884
  105OSM   H12S10723   2.954   1.067   9.247  0.0912  0.5632  2.1922
  105OSM   H12T10724   2.971   0.895   9.285 -1.6072  1.0833  0.9081
  105OSM   C13S10725   3.123   0.953   9.166 -0.2495  0.0129  0.3685
  105OSM   H13S10726   3.186   0.874   9.211 -3.1653 -1.0124  3.0836
  105OSM   H13T10727   3.205   1.026   9.150  0.9346 -0.9653  1.6547
  105OSM   C14S10728   3.052   0.893   9.053  0.2124  0.4229  0.3896
  105OSM   H14S10729   3.022   0.974   8.983  3.0323  1.7829  0.6142
  105OSM   H14T10730   2.962   0.834   9.082 -1.8320  3.0168 -0.2923
  105OSM   C15S10731   3.141   0.807   8.956  0.9491 -0.2580  0.8685
  105OSM   H15S10732   3.137   0.702   8.991 -1.0381 -1.4550 -2.4375
  105OSM   H15T10733   3.246   0.843   8.963  1.4320 -0.9101 -1.9195
  105OSM   C16S10734   3.091   0.808   8.803  0.0842 -0.7426 -0.2178
  105OSM   H16S10735   3.104   0.914   8.774  0.7744 -0.8531 -0.3427
  105OSM   H16T10736   2.988   0.772   8.786 -0.2537  0.1175 -0.0331
  105OSM   C17S10737   3.170   0.727   8.711  0.0596  0.0207  0.6415
  105OSM   H17S10738   3.266   0.779   8.689  1.0823 -2.1382 -0.3139
  105OSM   H17T10739   3.113   0.724   8.615  0.9296  0.0314  0.1112
  105OSM   C18S10740   3.192   0.585   8.759 -0.2677 -0.2054 -0.0538
  105OSM   H18S10741   3.247   0.527   8.682 -2.0407 -2.0852  0.0027
  105OSM   H18T10742   3.093   0.536   8.777 -0.4548 -0.9436 -2.6792
  105OSM   H18U10743   3.257   0.600   8.847 -0.6026  3.3493 -0.2568
  105OSM    C1F10744   3.309   0.467  10.170 -0.0670  0.5659  0.1488
  105OSM     OF10745   3.231   0.373  10.183 -0.7043 -0.5511  0.0799
  105OSM    C2F10746   3.432   0.446  10.087  0.7792  0.1641  0.3489
  105OSM    H2F10747   3.528   0.472  10.137 -0.4317 -0.6945  3.3653
  105OSM    H2G10748   3.408   0.504   9.995 -2.0048  0.3412  1.0967
  105OSM    C3F10749   3.440   0.301  10.042 -0.0061  0.5454 -0.7280
  105OSM    H3F10750   3.356   0.256   9.984  0.9016 -0.7303 -1.0875
  105OSM    H3G10751   3.452   0.243  10.136 -2.1966 -0.0974 -0.7782
  105OSM    C4F10752   3.565   0.270   9.960  0.1139 -0.3182  0.0255
  105OSM    H4F10753   3.575   0.160   9.977 -2.3477 -0.5281  0.5568
  105OSM    H4G10754   3.647   0.317  10.017 -0.8663  0.8787  0.4940
  105OSM    C5F10755   3.566   0.318   9.818  0.6114  0.6444 -0.0673
  105OSM    H5F10756   3.573   0.429   9.814 -1.4993  0.8792  0.9294
  105OSM    H5G10757   3.465   0.287   9.783  0.9188 -0.2051 -0.2243
  105OSM    C6F10758   3.686   0.271   9.735  0.1592  0.1327 -0.0892
  105OSM    H6F10759   3.673   0.162   9.716  1.9142 -0.2545  0.7350
  105OSM    H6G10760   3.776   0.271   9.799 -0.3021 -1.0492  0.6015
  105OSM    C7F10761   3.707   0.348   9.606 -0.2883 -0.5540 -0.5283
  105OSM    H7F10762   3.715   0.449   9.651  1.5933 -0.2496 -1.4212
  105OSM    H7G10763   3.618   0.350   9.540 -0.0262 -2.2607 -1.0032
  105OSM    C8F10764   3.840   0.314   9.533 -0.4299  0.4620 -0.0064
  105OSM    H8F10765   3.841   0.203   9.523 -1.4943  0.2752  1.5691
  105OSM    H8G10766   3.926   0.352   9.591 -1.6438 -0.1397  2.3012
  105OSM    C9F10767   3.834   0.384   9.399 -0.3799  0.1436  0.4710
  105OSM    H9F10768   3.803   0.489   9.400  1.0705  0.6400 -1.5314
  105OSM   C10F10769   3.865   0.330   9.277  0.5665  0.2587 -0.2143
  105OSM   H10F10770   3.861   0.388   9.183  1.9219 -1.0019 -1.1077
  105OSM   C11F10771   3.896   0.184   9.255  0.3932 -0.5126 -0.3758
  105OSM   H11F10772   3.856   0.149   9.158  1.5701 -1.0935 -0.6675
  105OSM   H11G10773   3.848   0.110   9.323  1.1082 -2.3137 -1.7513
  105OSM   C12F10774   4.047   0.141   9.264  0.1511 -0.1444 -0.6903
  105OSM   H12F10775   4.045   0.031   9.248  3.1101 -0.1048 -1.9735
  105OSM   H12G10776   4.065   0.166   9.371 -1.1266 -1.9727  0.0057
  105OSM   C13F10777   4.141   0.215   9.170 -0.0965  1.1214 -0.1980
  105OSM   H13F10778   4.243   0.176   9.190  0.8435  2.9417 -1.1387
  105OSM   H13G10779   4.141   0.323   9.197 -0.7149  1.0789 -0.0126
  105OSM   C14F10780   4.112   0.204   9.020  0.5853  0.3349 -0.3967
  105OSM   H14F10781   4.010   0.241   8.992 -0.9870 -1.1648  2.8891
  105OSM   H14G10782   4.107   0.094   9.006 -1.6776  0.5625 -1.9604
  105OSM   C15F10783   4.223   0.258   8.927 -0.9258  0.0516 -0.5179
  105OSM   H15F10784   4.323   0.275   8.973 -1.0597  0.2938 -0.3133
  105OSM   H15G10785   4.199   0.356   8.880 -0.5229  0.7425  0.6716
  105OSM   C16F10786   4.233   0.168   8.804  0.6324 -0.4129  0.3005
  105OSM   H16F10787   4.251   0.062   8.830 -1.2738 -1.3696 -1.9185
  105OSM   H16G10788   4.319   0.188   8.736  1.7669 -2.8628  0.9112
  105OSM   C17F10789   4.113   0.176   8.714  0.3723  0.3289 -0.2351
  105OSM   H17F10790   4.093   0.283   8.690  0.0185  0.7920  1.9820
  105OSM   H17G10791   4.025   0.143   8.773  0.7973  1.1113  0.8674
  105OSM   C18F10792   4.144   0.094   8.591  1.1484  0.4032 -0.2179
  105OSM   H18F10793   4.058   0.080   8.522  1.2310 -1.5259  0.0190
  105OSM   H18G10794   4.197   0.000   8.616 -2.4563 -2.2241 -1.4333
  105OSM   H18H10795   4.217   0.150   8.529  0.9046  2.2780  1.1170
  106OSM      N10796   5.664   4.844  11.006  0.8717 -0.4849  0.2681
  106OSM    C1510797   5.785   4.899  11.077  0.1565  0.2791  0.2622
  106OSM   H15A10798   5.764   4.911  11.182 -0.5850  0.0384  0.1496
  106OSM   H15B10799   5.812   4.987  11.021  0.1849 -0.3578 -0.7766
  106OSM   H15C10800   5.869   4.832  11.071  1.1520  1.4748  0.6197
  106OSM    C1410801   5.696   4.799  10.871 -0.3316  0.3984  0.0095
  106OSM   H14A10802   5.775   4.725  10.871  0.9933  1.7590  0.5971
  106OSM   H14B10803   5.749   4.872  10.811  1.5105 -1.6791 -1.0304
  106OSM   H14C10804   5.611   4.760  10.817 -0.9012  0.4127  0.8776
  106OSM    C1310805   5.629   4.723  11.089 -0.7607 -0.2426  0.2415
  106OSM   H13A10806   5.701   4.648  11.060  0.8955  1.8978 -1.5591
  106OSM   H13B10807   5.538   4.681  11.049 -0.2673  1.9486 -3.6303
  106OSM   H13C10808   5.622   4.742  11.195 -0.7816 -2.1962  0.6382
  106OSM    C1210809   5.555   4.948  11.004 -0.0318 -0.8025 -0.1988
  106OSM   H12A10810   5.593   5.031  10.947 -0.4412  1.3858  2.4815
  106OSM   H12B10811   5.532   4.981  11.104 -0.0769 -0.2160 -0.4004
  106OSM    C1110812   5.422   4.910  10.950 -0.8410 -0.3190  0.1075
  106OSM   H11A10813   5.354   4.989  10.987  0.4608  0.3071  1.2564
  106OSM   H11B10814   5.391   4.817  11.000 -1.5271  0.6800  1.6129
  106OSM      P10815   5.381   4.985  10.697  0.3027  0.4241  0.2580
  106OSM    O1310816   5.237   5.005  10.695  0.4613 -0.9349  0.2046
  106OSM    O1410817   5.477   5.097  10.700 -0.1259 -0.0264  0.1134
  106OSM    O1110818   5.417   4.894  10.572  0.1209 -0.3827 -0.1196
  106OSM    O1210819   5.428   4.885  10.809  0.3189 -0.2343  0.3645
  106OSM    C1S10820   5.382   4.756  10.570  0.4221  0.3399  0.5993
  106OSM    H1S10821   5.275   4.739  10.591  0.2255 -1.8279 -1.7506
  106OSM    H1T10822   5.456   4.709  10.639 -0.0235 -2.3273 -0.6110
  106OSM     NF10823   5.371   4.543  10.441  0.7258 -0.1860  0.8309
  106OSM    HNF10824   5.449   4.483  10.454  0.3990 -0.9862 -0.7069
  106OSM    C2S10825   5.414   4.683  10.438  0.0067  0.1876 -0.3414
  106OSM    H2S10826   5.353   4.740  10.365 -0.9970  0.1985  0.4957
  106OSM    C3S10827   5.561   4.691  10.401  0.1081 -0.1650 -0.2140
  106OSM    H3S10828   5.622   4.620  10.461 -0.4672 -1.5796 -1.2499
  106OSM     O310829   5.629   4.818  10.428 -0.2682 -0.2599 -0.1979
  106OSM    HO310830   5.559   4.871  10.467 -0.0262 -0.0803 -0.0092
  106OSM    C4S10831   5.579   4.640  10.259  0.2854  0.5187 -0.5005
  106OSM    H4S10832   5.593   4.532  10.245 -1.7466  0.4312 -2.4141
  106OSM    C5S10833   5.593   4.719  10.150  0.5628  0.8700 -0.9285
  106OSM    H5S10834   5.611   4.827  10.158 -0.5865  1.1083 -1.3959
  106OSM    C6S10835   5.613   4.665  10.007  0.0140  0.2561 -0.8342
  106OSM    H6S10836   5.699   4.719   9.963 -1.1164  0.5668 -2.7578
  106OSM    H6T10837   5.522   4.694   9.951  0.0357  1.7163 -0.1691
  106OSM    C7S10838   5.639   4.513   9.992  0.2237  0.4211 -0.6231
  106OSM    H7S10839   5.553   4.447  10.014 -0.3297  1.5733  0.8059
  106OSM    H7T10840   5.723   4.474  10.053  2.8496  0.4448 -3.9210
  106OSM    C8S10841   5.660   4.478   9.842 -0.7617  0.3485  0.1179
  106OSM    H8S10842   5.675   4.368   9.835 -1.5962  0.2357 -0.0230
  106OSM    H8T10843   5.748   4.530   9.800 -0.5429 -0.3874 -0.3532
  106OSM    C9S10844   5.538   4.521   9.752  0.6197 -0.0193 -0.0243
  106OSM    H9S10845   5.517   4.630   9.766 -1.6940 -0.2814 -0.8477
  106OSM    H9T10846   5.452   4.469   9.800  1.3237  0.1633  1.4731
  106OSM   C10S10847   5.534   4.485   9.598 -0.0072  0.1280  0.9127
  106OSM   H10S10848   5.434   4.475   9.550  0.9191 -1.3987 -0.8426
  106OSM   H10T10849   5.569   4.381   9.581  2.2018  1.0397 -0.4585
  106OSM   C11S10850   5.619   4.586   9.516  0.3408 -0.3035  0.2054
  106OSM   H11S10851   5.720   4.599   9.558  1.3610 -2.5683 -1.3485
  106OSM   H11T10852   5.565   4.682   9.527  0.0604 -0.7583  4.3183
  106OSM   C12S10853   5.641   4.531   9.372 -0.2549 -0.3348  0.9814
  106OSM   H12S10854   5.548   4.477   9.342  0.6182 -0.7757 -1.0771
  106OSM   H12T10855   5.708   4.443   9.380  0.8518  0.3305 -0.5024
  106OSM   C13S10856   5.689   4.629   9.266 -0.0274 -0.5244 -0.1008
  106OSM   H13S10857   5.796   4.653   9.289  0.5744  0.1187 -3.2049
  106OSM   H13T10858   5.639   4.727   9.284  2.2938  0.4672  1.5584
  106OSM   C14S10859   5.679   4.579   9.123 -0.4108 -0.2214  0.5556
  106OSM   H14S10860   5.759   4.502   9.132 -0.1663 -0.3022 -1.6966
  106OSM   H14T10861   5.710   4.665   9.060 -1.0101  0.6341  1.3955
  106OSM   C15S10862   5.543   4.526   9.065 -0.0317 -0.6629  0.4356
  106OSM   H15S10863   5.466   4.598   9.102  1.7599  1.6490 -0.0696
  106OSM   H15T10864   5.512   4.425   9.099 -0.1388 -0.7641  0.0498
  106OSM   C16S10865   5.542   4.518   8.912 -0.8520  1.0395 -0.1204
  106OSM   H16S10866   5.588   4.613   8.876  1.8369  0.6141  1.9278
  106OSM   H16T10867   5.440   4.515   8.869 -0.6080  2.8559 -0.9293
  106OSM   C17S10868   5.627   4.389   8.879  1.0685  0.3716  0.6511
  106OSM   H17S10869   5.550   4.312   8.902  1.0516  0.8883  2.5246
  106OSM   H17T10870   5.708   4.371   8.953 -0.2342  0.1365  2.0907
  106OSM   C18S10871   5.678   4.375   8.728 -0.2072  1.1489  0.0685
  106OSM   H18S10872   5.593   4.369   8.657 -0.7765 -2.5865  0.8709
  106OSM   H18T10873   5.730   4.277   8.733 -1.5394  0.3445 -1.1617
  106OSM   H18U10874   5.756   4.448   8.696  0.4253  1.3580  1.9612
  106OSM    C1F10875   5.246   4.502  10.449  0.1868  0.3973 -0.4674
  106OSM     OF10876   5.149   4.574  10.418 -0.5192  0.1466  0.2473
  106OSM    C2F10877   5.220   4.363  10.503 -0.0795 -0.2294  0.4545
  106OSM    H2F10878   5.223   4.355  10.614  1.3040  0.4718  0.4832
  106OSM    H2G10879   5.313   4.314  10.466  1.4714  1.9552  1.2933
  106OSM    C3F10880   5.088   4.293  10.448 -0.9067 -0.0884  0.1971
  106OSM    H3F10881   5.007   4.360  10.483 -1.6885 -0.3964 -0.9575
  106OSM    H3G10882   5.072   4.192  10.491 -1.2034  1.0151  2.8598
  106OSM    C4F10883   5.081   4.292  10.290 -0.4638  0.2074  0.4824
  106OSM    H4F10884   5.166   4.230  10.256 -1.0760 -0.3380 -0.0618
  106OSM    H4G10885   5.088   4.395  10.249 -0.1103 -0.3691 -0.9567
  106OSM    C5F10886   4.951   4.231  10.238 -0.2345  0.0382  0.5962
  106OSM    H5F10887   4.868   4.302  10.257 -1.2533 -1.0030  0.1359
  106OSM    H5G10888   4.933   4.140  10.300  1.2626 -3.1588 -3.2693
  106OSM    C6F10889   4.969   4.186  10.086 -0.1465 -0.3200 -0.5455
  106OSM    H6F10890   4.889   4.116  10.055  0.6711 -1.6388  0.2110
  106OSM    H6G10891   5.069   4.137  10.081  1.1993  2.1921 -0.3904
  106OSM    C7F10892   4.973   4.291   9.975  0.1583  0.5093 -0.1365
  106OSM    H7F10893   5.017   4.246   9.883  0.5030  3.3846 -1.4739
  106OSM    H7G10894   5.031   4.380  10.006  0.8361 -0.1632  0.5873
  106OSM    C8F10895   4.830   4.341   9.941 -0.0350  0.2305 -0.4558
  106OSM    H8F10896   4.850   4.406   9.853  0.3868 -0.7797 -1.1285
  106OSM    H8G10897   4.790   4.403  10.024 -0.4017 -0.6263  0.0308
  106OSM    C9F10898   4.729   4.247   9.896 -0.0087  0.9085  0.8210
  106OSM    H9F10899   4.666   4.205   9.976 -1.9448  0.7888 -0.6657
  106OSM   C10F10900   4.719   4.199   9.771 -0.0265 -0.2587  0.9184
  106OSM   H10F10901   4.650   4.115   9.756 -0.1627 -0.2884  1.7025
  106OSM   C11F10902   4.801   4.231   9.648  0.3288  0.0522 -0.3778
  106OSM   H11F10903   4.900   4.187   9.671  1.1798  1.8357 -0.5246
  106OSM   H11G10904   4.830   4.338   9.646  0.1581  0.0960 -0.5213
  106OSM   C12F10905   4.751   4.199   9.499  0.4528 -0.5527  0.0719
  106OSM   H12F10906   4.646   4.234   9.493  0.9271  1.1446  0.9995
  106OSM   H12G10907   4.749   4.088   9.492 -1.0088 -0.4677 -1.4213
  106OSM   C13F10908   4.833   4.266   9.393 -0.0690  0.3432  0.7149
  106OSM   H13F10909   4.922   4.199   9.382 -1.0518 -0.9024  0.0849
  106OSM   H13G10910   4.863   4.371   9.411 -1.6092  0.6335  1.7785
  106OSM   C14F10911   4.774   4.245   9.250 -0.6713 -0.0363  0.0102
  106OSM   H14F10912   4.678   4.301   9.244 -3.0630 -3.6973  1.1246
  106OSM   H14G10913   4.757   4.137   9.232 -2.9903  0.0892  0.9842
  106OSM   C15F10914   4.868   4.305   9.145  0.2728  0.0414  0.3700
  106OSM   H15F10915   4.963   4.255   9.173  0.1642 -0.4298 -0.0987
  106OSM   H15G10916   4.861   4.415   9.156  1.1569  0.4097 -2.1915
  106OSM   C16F10917   4.818   4.279   9.007 -0.3551  0.5627 -0.3929
  106OSM   H16F10918   4.716   4.322   8.993 -0.8230 -0.8107 -1.4586
  106OSM   H16G10919   4.808   4.172   8.979 -0.9961  1.0773 -2.3312
  106OSM   C17F10920   4.907   4.339   8.897 -0.5284  0.4043 -0.3756
  106OSM   H17F10921   5.011   4.300   8.903  0.5371  3.0443 -0.7420
  106OSM   H17G10922   4.903   4.448   8.915  0.0801  0.3485  0.1600
  106OSM   C18F10923   4.855   4.294   8.754 -0.7378 -0.4309  0.3227
  106OSM   H18F10924   4.890   4.190   8.739 -2.6840 -0.9413 -1.0269
  106OSM   H18G10925   4.904   4.360   8.678 -0.8380  0.4574  1.0062
  106OSM   H18H10926   4.745   4.301   8.747 -0.8586 -1.1972  1.3035
  107OSM      N10927   0.887   1.623  10.665 -0.1706  0.3866 -0.0927
  107OSM    C1510928   0.863   1.752  10.745  0.2390 -0.0549 -0.4022
  107OSM   H15A10929   0.824   1.835  10.688 -0.2558  0.3976  0.5541
  107OSM   H15B10930   0.952   1.786  10.796 -1.2411  2.2027  0.8571
  107OSM   H15C10931   0.794   1.736  10.826  2.2546  1.1759  1.7204
  107OSM    C1410932   0.958   1.644  10.536 -0.0372 -0.0357 -0.1449
  107OSM   H14A10933   0.902   1.716  10.478  1.3659  1.2307  0.0102
  107OSM   H14B10934   0.965   1.554  10.477 -0.2447 -0.2664  0.1776
  107OSM   H14C10935   1.056   1.685  10.557 -0.8709  0.8414  2.3849
  107OSM    C1310936   0.958   1.524  10.748 -0.6255 -0.1556  0.6680
  107OSM   H13A10937   1.002   1.451  10.681 -0.4371 -1.0886  1.7772
  107OSM   H13B10938   0.882   1.472  10.805  0.2283 -2.0269  0.1889
  107OSM   H13C10939   1.038   1.577  10.797 -0.1210  0.2930 -0.5843
  107OSM    C1210940   0.749   1.556  10.627 -0.1400  0.2964 -0.1885
  107OSM   H12A10941   0.770   1.482  10.552 -1.8107 -2.1952  1.6428
  107OSM   H12B10942   0.687   1.631  10.580 -1.0488 -0.0992  0.3423
  107OSM    C1110943   0.666   1.496  10.740 -0.7512 -0.0880 -0.0341
  107OSM   H11A10944   0.726   1.424  10.798 -0.8397  1.7010  2.4420
  107OSM   H11B10945   0.582   1.435  10.700  0.2678 -1.8831  0.4655
  107OSM      P10946   0.517   1.709  10.782 -0.4959 -0.1056 -0.1529
  107OSM    O1310947   0.389   1.684  10.843  0.4867 -0.0154 -0.2275
  107OSM    O1410948   0.576   1.840  10.805 -0.5835 -0.3843  0.9565
  107OSM    O1110949   0.496   1.680  10.628 -0.0261  0.7656 -0.3716
  107OSM    O1210950   0.623   1.600  10.830  0.0133 -1.0520 -0.3909
  107OSM    C1S10951   0.483   1.790  10.538  0.6588  0.2119  0.1744
  107OSM    H1S10952   0.583   1.838  10.527  2.2468 -1.9554  3.3893
  107OSM    H1T10953   0.417   1.869  10.580 -0.1723  0.5752 -1.7551
  107OSM     NF10954   0.403   1.868  10.310 -0.3098 -0.2361 -0.1394
  107OSM    HNF10955   0.314   1.911  10.300 -0.4071  0.2120  2.0607
  107OSM    C2S10956   0.405   1.763  10.404 -0.3663  0.7139 -0.5131
  107OSM    H2S10957   0.452   1.677  10.352  0.0378  0.5482  0.1127
  107OSM    C3S10958   0.257   1.725  10.454 -0.3998  0.5822  0.0416
  107OSM    H3S10959   0.209   1.825  10.453  1.9896  1.8030 -0.2826
  107OSM     O310960   0.234   1.682  10.584  0.3207  0.6151  0.0502
  107OSM    HO310961   0.321   1.675  10.624 -0.3906 -2.0754  1.3626
  107OSM    C4S10962   0.180   1.653  10.346 -0.6899 -0.0249  0.0342
  107OSM    H4S10963   0.129   1.724  10.279 -1.3125 -2.8638 -2.7599
  107OSM    C5S10964   0.177   1.523  10.321 -0.4092  0.0318  0.2559
  107OSM    H5S10965   0.224   1.453  10.392 -0.5548  0.2880  0.6111
  107OSM    C6S10966   0.105   1.461  10.207 -0.8285 -0.0820 -0.1635
  107OSM    H6S10967   0.067   1.360  10.231 -2.3268  0.0565 -1.7871
  107OSM    H6T10968   0.168   1.444  10.117  1.3134 -1.8244  1.5622
  107OSM    C7S10969  -0.012   1.546  10.159 -0.5682 -0.1905 -0.0902
  107OSM    H7S10970   0.023   1.644  10.120 -0.3689  0.5407  1.7872
  107OSM    H7T10971  -0.084   1.560  10.243 -1.2395 -1.7664 -0.3668
  107OSM    C8S10972  -0.095   1.482  10.047  0.2637 -0.6193 -0.2657
  107OSM    H8S10973  -0.180   1.551  10.030  0.3876 -0.5582 -0.6721
  107OSM    H8T10974  -0.148   1.393  10.086 -1.1832 -0.1322 -1.0564
  107OSM    C9S10975  -0.024   1.451   9.910 -0.0085 -0.0646 -0.4676
  107OSM    H9S10976   0.054   1.373   9.920  1.5994  1.4955 -0.2998
  107OSM    H9T10977   0.028   1.547   9.892 -0.0560  0.1109  0.3096
  107OSM   C10S10978  -0.126   1.434   9.792 -0.1676 -0.2902 -0.7830
  107OSM   H10S10979  -0.201   1.515   9.810  1.3797  0.5079  3.1154
  107OSM   H10T10980  -0.178   1.340   9.820  1.1816 -0.4242  1.5340
  107OSM   C11S10981  -0.051   1.441   9.657  0.1821  0.3656 -0.0609
  107OSM   H11S10982   0.037   1.374   9.652  0.6319  0.9629 -0.3873
  107OSM   H11T10983  -0.006   1.540   9.633 -0.6307  0.9940  0.9645
  107OSM   C12S10984  -0.149   1.409   9.543 -0.2124  0.4906  0.3011
  107OSM   H12S10985  -0.235   1.480   9.539 -1.8159 -1.3773 -4.0089
  107OSM   H12T10986  -0.191   1.307   9.550 -0.2383  0.5163  0.5374
  107OSM   C13S10987  -0.085   1.416   9.408 -0.4236 -0.4887  0.6988
  107OSM   H13S10988   0.008   1.355   9.412 -0.1106 -0.1082 -0.3864
  107OSM   H13T10989  -0.041   1.516   9.389  0.8200 -1.0021  0.8174
  107OSM   C14S10990  -0.172   1.358   9.300  0.0524 -0.6617 -0.3317
  107OSM   H14S10991  -0.275   1.383   9.332  0.5557  0.4615  0.5216
  107OSM   H14T10992  -0.166   1.248   9.316  3.3461 -0.6968 -1.1001
  107OSM   C15S10993  -0.138   1.414   9.163  0.1444 -0.1621  0.2093
  107OSM   H15S10994  -0.135   1.524   9.144 -1.1022 -0.0902  0.3475
  107OSM   H15T10995  -0.206   1.376   9.084 -0.6927  0.8493  0.4066
  107OSM   C16S10996   0.009   1.394   9.122  0.6388 -0.5789 -0.3973
  107OSM   H16S10997   0.041   1.292   9.152 -1.9861 -0.9918  1.3920
  107OSM   H16T10998   0.069   1.465   9.182 -1.9219  1.8841 -0.5308
  107OSM   C17S10999   0.017   1.418   8.970  0.1149 -0.2301 -0.3996
  107OSM   H17S11000  -0.002   1.526   8.950  3.5411  0.7869  0.9026
  107OSM   H17T11001  -0.061   1.367   8.911 -1.0552  0.1837  0.7408
  107OSM   C18S11002   0.158   1.400   8.912  0.3565  0.6210 -0.3998
  107OSM   H18S11003   0.182   1.292   8.903 -1.5052  0.1522 -0.2803
  107OSM   H18T11004   0.240   1.460   8.958 -0.1637  0.8911  0.1999
  107OSM   H18U11005   0.154   1.437   8.807 -0.3390 -0.1821 -0.6652
  107OSM    C1F11006   0.514   1.903  10.241  0.1078  0.1084 -0.0085
  107OSM     OF11007   0.618   1.845  10.246  0.3787 -0.5205  0.2101
  107OSM    C2F11008   0.511   2.010  10.144 -0.1734 -0.1487  0.3318
  107OSM    H2F11009   0.494   2.104  10.200  3.0343 -0.7970  2.7089
  107OSM    H2G11010   0.428   1.990  10.073 -0.1100  2.9458 -0.7470
  107OSM    C3F11011   0.640   2.026  10.062  0.4982 -0.2996  0.3685
  107OSM    H3F11012   0.683   1.936  10.012  1.0376  1.3810 -2.4376
  107OSM    H3G11013   0.721   2.052  10.133  0.2224 -0.9511  0.9345
  107OSM    C4F11014   0.626   2.135   9.954 -0.3347  0.3660  0.1271
  107OSM    H4F11015   0.708   2.210   9.954 -1.6748  1.9558 -2.1464
  107OSM    H4G11016   0.541   2.204   9.974 -2.5317 -2.4680  1.3547
  107OSM    C5F11017   0.602   2.072   9.816  0.0428 -0.2394  0.5086
  107OSM    H5F11018   0.513   2.004   9.815 -0.8222  0.8743 -0.6517
  107OSM    H5G11019   0.699   2.023   9.793 -0.0161 -1.9518  3.3975
  107OSM    C6F11020   0.591   2.163   9.698 -0.3856 -0.4332 -0.4903
  107OSM    H6F11021   0.680   2.229   9.687 -0.4203 -0.3530 -0.2862
  107OSM    H6G11022   0.502   2.228   9.713 -1.0822 -1.3616 -0.5150
  107OSM    C7F11023   0.579   2.087   9.572  0.5895  0.5601  1.0097
  107OSM    H7F11024   0.494   2.016   9.577 -0.7694  1.8238 -1.8866
  107OSM    H7G11025   0.665   2.016   9.561 -1.0788 -1.2002 -1.9310
  107OSM    C8F11026   0.555   2.158   9.441 -0.1699  0.2931 -0.9524
  107OSM    H8F11027   0.512   2.259   9.461 -0.2793 -0.0368  0.5119
  107OSM    H8G11028   0.483   2.098   9.381 -0.1196 -0.8382  0.0985
  107OSM    C9F11029   0.683   2.185   9.363 -0.8121  0.4169 -0.3125
  107OSM    H9F11030   0.775   2.207   9.420 -0.3165 -1.8420 -0.1291
  107OSM   C10F11031   0.712   2.158   9.234 -0.0970  0.0533 -0.4410
  107OSM   H10F11032   0.817   2.178   9.209  0.0749 -1.1606 -0.7659
  107OSM   C11F11033   0.622   2.106   9.130  0.6326  0.4095 -0.5294
  107OSM   H11F11034   0.524   2.069   9.169  0.2964  0.1428 -1.5794
  107OSM   H11G11035   0.669   2.023   9.073 -0.1129 -1.4780  1.4536
  107OSM   C12F11036   0.590   2.206   9.021 -0.5291 -0.5904  0.4886
  107OSM   H12F11037   0.676   2.241   8.961 -1.7842  0.3307 -0.8405
  107OSM   H12G11038   0.535   2.294   9.060  1.4206  1.8484 -1.8920
  107OSM   C13F11039   0.497   2.147   8.913 -0.0306  0.2941  0.8450
  107OSM   H13F11040   0.421   2.084   8.965  0.1871  0.5632  1.4858
  107OSM   H13G11041   0.560   2.076   8.855 -2.0809 -0.8413 -0.1127
  107OSM   C14F11042   0.428   2.247   8.818 -0.2162 -0.3757  0.6079
  107OSM   H14F11043   0.493   2.319   8.763 -1.5228  1.4843  1.3816
  107OSM   H14G11044   0.355   2.300   8.883 -1.5500 -0.3063 -0.8820
  107OSM   C15F11045   0.356   2.185   8.698  0.0463 -0.4253  0.1797
  107OSM   H15F11046   0.289   2.262   8.654  0.0746 -0.8315 -0.5927
  107OSM   H15G11047   0.305   2.088   8.718  2.2032 -1.8090 -0.7603
  107OSM   C16F11048   0.454   2.124   8.595 -0.0782 -0.2098  0.1464
  107OSM   H16F11049   0.508   2.040   8.646  1.3852  0.4371 -0.2856
  107OSM   H16G11050   0.530   2.200   8.567  1.8488 -2.1555 -0.1789
  107OSM   C17F11051   0.388   2.070   8.463  0.5422 -0.1760  0.2607
  107OSM   H17F11052   0.325   2.151   8.420 -0.0074 -1.3551 -1.2672
  107OSM   H17G11053   0.324   1.980   8.472  0.4898 -0.3836 -1.7318
  107OSM   C18F11054   0.503   2.051   8.373 -0.8175  1.2369  0.4684
  107OSM   H18F11055   0.466   2.009   8.277  1.4552  4.2861 -1.9439
  107OSM   H18G11056   0.567   1.972   8.418  3.9442  3.0168 -2.3460
  107OSM   H18H11057   0.558   2.146   8.357 -2.6904  2.6623  2.1670
  108OSM      N11058   3.737   6.319  11.112  0.1167  0.5818  0.2846
  108OSM    C1511059   3.635   6.216  11.138  0.2707  0.0724 -0.0348
  108OSM   H15A11060   3.641   6.184  11.241 -1.7155 -0.4989 -0.0456
  108OSM   H15B11061   3.654   6.125  11.082 -2.8159  0.0399 -1.2617
  108OSM   H15C11062   3.539   6.244  11.096  1.2572  1.8863 -1.1818
  108OSM    C1411063   3.696   6.448  11.182  0.2631 -0.8421  1.1695
  108OSM   H14A11064   3.662   6.432  11.283 -1.1620 -0.0768  0.8388
  108OSM   H14B11065   3.616   6.483  11.119  0.2668 -1.8932  0.5479
  108OSM   H14C11066   3.776   6.520  11.185  1.4197 -1.8197 -2.0652
  108OSM    C1311067   3.871   6.285  11.160 -0.0179 -0.5822  0.7144
  108OSM   H13A11068   3.869   6.279  11.268  3.0598 -2.8092  0.7660
  108OSM   H13B11069   3.935   6.365  11.127 -0.5458 -0.2466  0.4984
  108OSM   H13C11070   3.921   6.193  11.131  1.6202 -0.2290  2.2461
  108OSM    C1211071   3.740   6.351  10.957  0.5346 -0.1868 -0.1698
  108OSM   H12A11072   3.785   6.265  10.909 -0.9733 -1.2756  0.2941
  108OSM   H12B11073   3.814   6.430  10.946  0.2962  0.2760  1.2965
  108OSM    C1111074   3.617   6.401  10.889  0.1581 -0.5786 -0.7847
  108OSM   H11A11075   3.626   6.436  10.784 -1.7502  2.3201 -0.1076
  108OSM   H11B11076   3.583   6.495  10.939 -0.0370  0.2882 -2.4922
  108OSM      P11077   3.498   6.190  10.793 -0.0015 -0.2866  0.2882
  108OSM    O1311078   3.619   6.108  10.807  0.2632  0.5188  0.0273
  108OSM    O1411079   3.365   6.131  10.823  0.2543 -0.3546 -0.3282
  108OSM    O1111080   3.496   6.257  10.653  0.1541  0.4854  0.3653
  108OSM    O1211081   3.509   6.311  10.900 -0.5191  0.3016  0.7303
  108OSM    C1S11082   3.405   6.367  10.631  0.0455 -0.2184 -0.3305
  108OSM    H1S11083   3.432   6.461  10.684  2.0143 -1.3422  0.7468
  108OSM    H1T11084   3.301   6.337  10.657 -0.3525  2.4984  1.5784
  108OSM     NF11085   3.372   6.525  10.445 -0.4552 -0.3199  0.0015
  108OSM    HNF11086   3.291   6.554  10.394  1.1112  0.6333 -2.0915
  108OSM    C2S11087   3.388   6.381  10.482 -0.1767 -0.1678  0.2368
  108OSM    H2S11088   3.492   6.352  10.454  0.1842  0.4469  0.9087
  108OSM    C3S11089   3.276   6.281  10.427  0.0701  0.2260  0.1415
  108OSM    H3S11090   3.176   6.315  10.460  0.7111  0.0568  2.5277
  108OSM     O311091   3.283   6.147  10.465 -0.0965 -0.1294 -0.1427
  108OSM    HO311092   3.331   6.161  10.547  0.7592  1.5703 -0.8874
  108OSM    C4S11093   3.271   6.291  10.281  0.1698 -0.3154 -1.2650
  108OSM    H4S11094   3.231   6.389  10.253 -0.9971 -0.2943  0.3246
  108OSM    C5S11095   3.301   6.196  10.191 -0.2972 -0.4865 -0.5878
  108OSM    H5S11096   3.335   6.104  10.240  4.1464  1.4466  0.5563
  108OSM    C6S11097   3.287   6.204  10.041  0.0059 -0.1149 -0.1621
  108OSM    H6S11098   3.202   6.140  10.009  0.0966  0.3905 -1.4596
  108OSM    H6T11099   3.386   6.170  10.005  0.7784  0.2642  1.5086
  108OSM    C7S11100   3.255   6.344   9.983 -0.2939  0.2820 -0.3925
  108OSM    H7S11101   3.342   6.412   9.994  0.0774 -0.4705  1.8286
  108OSM    H7T11102   3.172   6.397  10.034 -0.9685 -1.4036  0.3070
  108OSM    C8S11103   3.213   6.332   9.835 -0.0610  0.0784 -0.4313
  108OSM    H8S11104   3.185   6.432   9.795  0.9873  0.0074 -1.4134
  108OSM    H8T11105   3.121   6.271   9.826  0.2744 -0.9302  2.1885
  108OSM    C9S11106   3.321   6.282   9.736 -0.0384 -0.3743  1.3215
  108OSM    H9S11107   3.323   6.171   9.737  1.5338 -0.4755 -1.4916
  108OSM    H9T11108   3.417   6.331   9.762  0.6079 -2.1542  2.4603
  108OSM   C10S11109   3.270   6.314   9.590 -0.4378 -0.6438  0.1474
  108OSM   H10S11110   3.238   6.420   9.586  0.9452 -0.1929  0.5357
  108OSM   H10T11111   3.182   6.250   9.568  1.3171 -2.5821 -1.6938
  108OSM   C11S11112   3.394   6.287   9.491 -0.2579 -0.2387  0.3371
  108OSM   H11S11113   3.423   6.180   9.500  0.9980  0.0477 -0.0841
  108OSM   H11T11114   3.475   6.360   9.509  0.4911 -0.3702 -2.0958
  108OSM   C12S11115   3.356   6.322   9.343 -0.2348 -0.3030  1.0342
  108OSM   H12S11116   3.332   6.430   9.331  0.6359 -0.0229  1.7568
  108OSM   H12T11117   3.263   6.267   9.316 -0.1200  0.0410 -0.1232
  108OSM   C13S11118   3.456   6.271   9.234 -0.0082 -0.4273  0.5341
  108OSM   H13S11119   3.456   6.160   9.231  0.6693 -0.4150 -1.2809
  108OSM   H13T11120   3.549   6.323   9.264 -0.0408 -0.1050  0.1002
  108OSM   C14S11121   3.434   6.345   9.099 -0.3131  0.6390 -0.3531
  108OSM   H14S11122   3.456   6.454   9.110  0.0837  0.5039  0.2268
  108OSM   H14T11123   3.326   6.339   9.075 -0.5245  0.3461  0.6347
  108OSM   C15S11124   3.515   6.298   8.979  0.6919  0.4309 -0.1169
  108OSM   H15S11125   3.500   6.189   8.962 -1.6791  0.1637  2.9318
  108OSM   H15T11126   3.623   6.310   9.005  1.2419 -1.2912 -1.4308
  108OSM   C16S11127   3.488   6.390   8.865  0.6699  0.5315  0.5170
  108OSM   H16S11128   3.524   6.490   8.896  0.8378  1.4409 -2.3387
  108OSM   H16T11129   3.377   6.387   8.851  0.8860 -1.1826 -1.1966
  108OSM   C17S11130   3.573   6.345   8.741  1.0209  0.4758  0.5181
  108OSM   H17S11131   3.675   6.330   8.783  0.6355  0.2253  1.4079
  108OSM   H17T11132   3.575   6.433   8.673 -0.1933 -0.4209 -0.7443
  108OSM   C18S11133   3.520   6.217   8.672 -0.7803  0.3417 -0.5648
  108OSM   H18S11134   3.591   6.175   8.597 -0.1769 -1.4269  0.9308
  108OSM   H18T11135   3.414   6.229   8.642 -1.6901 -0.6837  1.9775
  108OSM   H18U11136   3.510   6.130   8.740 -0.2894 -0.1775 -1.1352
  108OSM    C1F11137   3.466   6.617  10.456  0.2403 -0.5214 -0.0256
  108OSM     OF11138   3.576   6.603  10.496 -0.0296  0.1037 -0.1019
  108OSM    C2F11139   3.425   6.760  10.413 -0.3383 -0.6374 -0.4628
  108OSM    H2F11140   3.398   6.808  10.509 -1.8691 -1.6816 -0.3486
  108OSM    H2G11141   3.342   6.751  10.340  0.2245 -0.9051 -1.0769
  108OSM    C3F11142   3.541   6.837  10.340  0.9117 -0.1724  0.6108
  108OSM    H3F11143   3.621   6.863  10.413  1.0885 -0.4400  0.5110
  108OSM    H3G11144   3.489   6.928  10.303 -0.8284 -1.5232 -0.4020
  108OSM    C4F11145   3.596   6.759  10.217 -0.2112 -1.0120 -0.1446
  108OSM    H4F11146   3.642   6.666  10.257 -1.1147 -1.2524  0.3547
  108OSM    H4G11147   3.667   6.823  10.161 -1.4110 -1.4212 -2.2157
  108OSM    C5F11148   3.477   6.734  10.118 -0.1710  0.2908 -0.1043
  108OSM    H5F11149   3.419   6.825  10.089 -2.4618 -1.3402 -0.9116
  108OSM    H5G11150   3.407   6.657  10.156 -0.6890  1.3933  1.2725
  108OSM    C6F11151   3.527   6.684   9.981  0.2868 -0.3177 -0.2180
  108OSM    H6F11152   3.581   6.587   9.982  2.1846  0.6962  0.1744
  108OSM    H6G11153   3.608   6.751   9.946 -0.5072  2.3734  2.6201
  108OSM    C7F11154   3.412   6.692   9.879  0.7641 -0.2925  0.0027
  108OSM    H7F11155   3.378   6.798   9.876 -1.3206 -0.9105 -0.0367
  108OSM    H7G11156   3.322   6.639   9.917  1.0511  0.5222  1.8960
  108OSM    C8F11157   3.450   6.640   9.737 -0.0700  0.1257  0.0969
  108OSM    H8F11158   3.366   6.649   9.665  0.4776  0.6757 -0.4812
  108OSM    H8G11159   3.460   6.529   9.744  1.7968  0.0695 -2.2980
  108OSM    C9F11160   3.574   6.691   9.682 -0.2197 -0.4726  0.0617
  108OSM    H9F11161   3.657   6.646   9.739 -0.9211 -0.7214  0.9190
  108OSM   C10F11162   3.599   6.767   9.566  0.5879  0.1235  0.1573
  108OSM   H10F11163   3.699   6.802   9.538  0.1797  0.4584 -0.9367
  108OSM   C11F11164   3.490   6.822   9.470 -0.0961 -0.0883  0.1364
  108OSM   H11F11165   3.486   6.932   9.454  0.6873 -0.3120 -1.8829
  108OSM   H11G11166   3.391   6.800   9.516 -0.8632  1.4307 -0.6849
  108OSM   C12F11167   3.497   6.760   9.334  0.5332 -0.5298 -0.1134
  108OSM   H12F11168   3.493   6.650   9.350  0.9874 -0.5804 -0.3426
  108OSM   H12G11169   3.589   6.782   9.276 -0.3593 -0.9976 -1.7525
  108OSM   C13F11170   3.369   6.789   9.250  0.5772 -0.3553  0.8122
  108OSM   H13F11171   3.369   6.897   9.225  1.8262 -1.1148 -3.1793
  108OSM   H13G11172   3.281   6.766   9.314 -1.1751  1.0775 -0.9265
  108OSM   C14F11173   3.350   6.721   9.115 -0.2172 -0.1454  0.7725
  108OSM   H14F11174   3.297   6.624   9.127 -1.5076  0.5035  0.4974
  108OSM   H14G11175   3.453   6.703   9.077 -0.3812  1.6226 -0.6327
  108OSM   C15F11176   3.273   6.804   9.002 -1.3458  0.5098 -0.6976
  108OSM   H15F11177   3.317   6.906   8.999 -0.9924  0.3413 -1.7511
  108OSM   H15G11178   3.168   6.799   9.038 -0.3271  0.9344  2.6886
  108OSM   C16F11179   3.284   6.733   8.865  0.6249  0.1142  0.0111
  108OSM   H16F11180   3.212   6.650   8.848  1.0769  0.1415 -2.2771
  108OSM   H16G11181   3.383   6.683   8.864 -0.4546 -2.1075 -0.9631
  108OSM   C17F11182   3.278   6.843   8.754  0.3497 -0.1321 -0.2988
  108OSM   H17F11183   3.341   6.800   8.673  2.4029  1.6983  0.2205
  108OSM   H17G11184   3.317   6.943   8.782 -1.7443  0.4974  0.5506
  108OSM   C18F11185   3.132   6.871   8.713  0.2374 -0.3018 -0.1472
  108OSM   H18F11186   3.075   6.912   8.799 -1.7045 -1.4755 -0.8260
  108OSM   H18G11187   3.082   6.778   8.680  0.1036 -0.1089 -0.4886
  108OSM   H18H11188   3.134   6.946   8.631  0.0475 -0.8722 -0.6727
  109OSM      N11189   2.108   2.288  10.943 -1.1817 -0.1941 -0.3719
  109OSM    C1511190   2.033   2.393  10.875 -0.0274  0.2725  0.0032
  109OSM   H15A11191   1.928   2.370  10.865  0.3166 -1.2056 -0.3640
  109OSM   H15B11192   2.068   2.403  10.773  2.0820 -3.1691  0.2211
  109OSM   H15C11193   2.045   2.486  10.930 -1.7834  0.0051  0.9014
  109OSM    C1411194   2.253   2.329  10.919  0.4485  0.3365 -0.4202
  109OSM   H14A11195   2.291   2.407  10.984  0.3500 -1.0583  1.3681
  109OSM   H14B11196   2.274   2.352  10.816  0.5826  1.6482 -0.1300
  109OSM   H14C11197   2.312   2.244  10.951  0.1344  0.2163 -0.1616
  109OSM    C1311198   2.071   2.281  11.085 -0.1074 -0.5475 -0.3747
  109OSM   H13A11199   2.120   2.207  11.148 -1.0389  1.1813  2.5874
  109OSM   H13B11200   1.968   2.259  11.107  0.1156 -0.3878  0.9304
  109OSM   H13C11201   2.102   2.374  11.131 -0.3380 -1.3453  1.5073
  109OSM    C1211202   2.084   2.156  10.872 -0.1074 -0.8353 -0.1954
  109OSM   H12A11203   1.981   2.127  10.889 -0.9984  2.3888  0.4480
  109OSM   H12B11204   2.148   2.084  10.920 -1.9247 -1.5395  1.2765
  109OSM    C1111205   2.100   2.153  10.718  0.5463  0.2050  0.1459
  109OSM   H11A11206   2.036   2.213  10.651 -1.1302 -0.3175  1.1986
  109OSM   H11B11207   2.064   2.052  10.689 -1.3470  0.7361  0.4758
  109OSM      P11208   2.337   2.058  10.648  0.3670  0.1380 -0.3557
  109OSM    O1311209   2.475   2.108  10.654 -0.3129 -0.3503  0.5869
  109OSM    O1411210   2.294   1.941  10.726  0.0711  0.1680  0.0765
  109OSM    O1111211   2.301   2.023  10.501 -0.1778  0.4906 -0.4024
  109OSM    O1211212   2.235   2.180  10.676  0.6157  0.5154 -0.0810
  109OSM    C1S11213   2.238   2.098  10.405  0.3354 -0.6639  0.0269
  109OSM    H1S11214   2.305   2.184  10.385  0.1343 -0.5347 -0.0846
  109OSM    H1T11215   2.142   2.139  10.441 -0.4324  0.3374 -2.9173
  109OSM     NF11216   2.170   2.090  10.165 -0.1937 -0.0650 -0.7373
  109OSM    HNF11217   2.090   2.066  10.112  0.6770  0.9060 -2.5804
  109OSM    C2S11218   2.203   2.007  10.283  0.1257 -0.5697 -0.8955
  109OSM    H2S11219   2.296   1.950  10.261  0.6784 -0.0359  0.0080
  109OSM    C3S11220   2.081   1.912  10.323  0.2846 -0.7441  0.4836
  109OSM    H3S11221   1.986   1.969  10.332  0.0403 -0.9083 -0.8068
  109OSM     O311222   2.100   1.838  10.443 -0.2007 -0.4745 -0.3856
  109OSM    HO311223   2.185   1.870  10.475  0.0699 -1.5894  0.0523
  109OSM    C4S11224   2.051   1.823  10.200 -0.5839  0.2086 -1.3363
  109OSM    H4S11225   1.948   1.827  10.163 -0.9129 -2.6891 -0.9713
  109OSM    C5S11226   2.137   1.729  10.159  0.2521  0.6407 -0.3082
  109OSM    H5S11227   2.225   1.708  10.221 -1.0455 -0.7922  1.1490
  109OSM    C6S11228   2.111   1.635  10.037  0.0986 -0.8783 -1.0203
  109OSM    H6S11229   2.100   1.530  10.072 -0.5563 -0.6101 -0.4016
  109OSM    H6T11230   2.205   1.643   9.978  0.8914 -0.6478  0.2492
  109OSM    C7S11231   1.994   1.672   9.940  0.5527  0.1738 -0.1696
  109OSM    H7S11232   2.009   1.780   9.920  1.8699 -0.4067 -2.7842
  109OSM    H7T11233   1.898   1.666   9.995  1.5451 -2.4629  1.4760
  109OSM    C8S11234   2.000   1.602   9.807 -0.2579 -0.4220  0.1421
  109OSM    H8S11235   1.943   1.666   9.737  0.4786 -1.4011 -1.4086
  109OSM    H8T11236   1.962   1.498   9.810 -1.5269  0.0483  1.6525
  109OSM    C9S11237   2.132   1.591   9.734 -0.0892  0.4837 -0.1102
  109OSM    H9S11238   2.172   1.498   9.781  2.2098  1.4567 -0.0127
  109OSM    H9T11239   2.195   1.681   9.750 -1.5877  1.3444  1.1277
  109OSM   C10S11240   2.115   1.562   9.577  0.8112 -0.6244 -0.5241
  109OSM   H10S11241   2.037   1.483   9.576  0.9923 -0.8570  0.9488
  109OSM   H10T11242   2.207   1.516   9.535  1.0578  1.5865 -2.6047
  109OSM   C11S11243   2.075   1.684   9.491  0.2457  0.7659 -0.0456
  109OSM   H11S11244   2.105   1.776   9.546  1.1023  0.8916 -0.7071
  109OSM   H11T11245   1.967   1.683   9.468  0.0983 -0.3977  0.5981
  109OSM   C12S11246   2.158   1.680   9.359  0.5127  0.6796 -0.8404
  109OSM   H12S11247   2.260   1.676   9.402 -0.8477 -0.8105  2.6657
  109OSM   H12T11248   2.139   1.777   9.307 -1.4461  0.8574  0.0990
  109OSM   C13S11249   2.122   1.561   9.264  0.0350 -0.0028 -0.7709
  109OSM   H13S11250   2.013   1.566   9.248 -0.3399  1.6983  1.6588
  109OSM   H13T11251   2.127   1.464   9.319  0.6265  0.9169  0.8674
  109OSM   C14S11252   2.192   1.560   9.129 -0.1842  0.2712 -0.2018
  109OSM   H14S11253   2.174   1.662   9.089 -1.1407  0.9949  1.8903
  109OSM   H14T11254   2.130   1.489   9.071  0.8652  0.4165 -1.5493
  109OSM   C15S11255   2.334   1.508   9.144 -1.0591 -0.4474  0.6501
  109OSM   H15S11256   2.336   1.407   9.191 -3.3251  0.0742  2.0152
  109OSM   H15T11257   2.391   1.580   9.206 -0.7832  0.6185 -0.7757
  109OSM   C16S11258   2.407   1.495   9.009  0.4793  0.0856 -0.8474
  109OSM   H16S11259   2.516   1.476   9.021  0.0315 -1.2917  2.0322
  109OSM   H16T11260   2.386   1.587   8.952  1.0720  0.7640  0.0067
  109OSM   C17S11261   2.345   1.372   8.928 -0.0223  0.0162 -0.0198
  109OSM   H17S11262   2.234   1.386   8.930 -0.1004 -0.6022  1.4673
  109OSM   H17T11263   2.372   1.281   8.985 -0.9382  0.0375  0.4661
  109OSM   C18S11264   2.398   1.367   8.785 -1.2629 -0.0741 -0.5734
  109OSM   H18S11265   2.340   1.282   8.743 -0.7096 -0.3874 -0.7171
  109OSM   H18T11266   2.508   1.351   8.783 -1.3390 -0.7749  0.1656
  109OSM   H18U11267   2.386   1.465   8.734  0.0337  0.8103  0.7222
  109OSM    C1F11268   2.261   2.177  10.114  0.2479  0.0350  0.0473
  109OSM     OF11269   2.374   2.199  10.160  0.2018 -0.1412  0.1130
  109OSM    C2F11270   2.219   2.263   9.999  0.1690  0.3626  0.0668
  109OSM    H2F11271   2.172   2.355  10.042  1.5411  0.9284  0.4066
  109OSM    H2G11272   2.144   2.198   9.949 -1.7573  2.4309  0.1124
  109OSM    C3F11273   2.325   2.307   9.903  0.5130 -0.3780 -0.0176
  109OSM    H3F11274   2.386   2.224   9.861  1.5282  0.6074 -0.5690
  109OSM    H3G11275   2.397   2.371   9.959  1.6484 -1.6871  0.0865
  109OSM    C4F11276   2.277   2.396   9.795  0.6005 -0.3826  0.1324
  109OSM    H4F11277   2.367   2.444   9.752 -0.4986  0.8317 -0.9280
  109OSM    H4G11278   2.216   2.472   9.848  0.8817  0.2463 -0.4419
  109OSM    C5F11279   2.196   2.329   9.684 -0.3930  0.1649  0.6864
  109OSM    H5F11280   2.097   2.299   9.723 -1.2065  0.4666 -1.0522
  109OSM    H5G11281   2.254   2.243   9.644  1.2481  1.1755  0.7985
  109OSM    C6F11282   2.161   2.434   9.574 -0.0645 -0.1565  0.2306
  109OSM    H6F11283   2.255   2.463   9.522 -0.0101 -0.9494 -0.1289
  109OSM    H6G11284   2.113   2.523   9.621  1.3606  1.1588 -0.7069
  109OSM    C7F11285   2.055   2.379   9.474 -0.0284  0.1770 -0.3248
  109OSM    H7F11286   1.958   2.374   9.529 -0.3204  2.0390 -0.6246
  109OSM    H7G11287   2.081   2.279   9.432  0.2344  0.3849 -0.6612
  109OSM    C8F11288   2.033   2.478   9.361  0.2733 -0.4174  0.9639
  109OSM    H8F11289   2.128   2.483   9.302 -0.6271 -2.7452 -0.8366
  109OSM    H8G11290   2.031   2.578   9.409  1.5057 -0.3299  0.8763
  109OSM    C9F11291   1.908   2.474   9.274 -0.2839  0.7192  0.4487
  109OSM    H9F11292   1.820   2.478   9.339  1.0987  0.4417  2.4567
  109OSM   C10F11293   1.894   2.464   9.142 -0.9125  0.4694  0.5530
  109OSM   H10F11294   1.793   2.457   9.099 -0.3258 -2.9492 -0.5702
  109OSM   C11F11295   2.010   2.448   9.046 -0.1319  0.4774 -0.1958
  109OSM   H11F11296   2.043   2.342   9.059 -0.3988  0.3165 -0.8117
  109OSM   H11G11297   2.094   2.519   9.063 -0.3893  1.2683 -2.0633
  109OSM   C12F11298   1.990   2.469   8.893  0.0002  0.2211 -0.1634
  109OSM   H12F11299   2.086   2.439   8.845 -0.7901 -1.7356 -0.6018
  109OSM   H12G11300   1.990   2.579   8.872  0.4097 -0.0758 -1.8427
  109OSM   C13F11301   1.869   2.388   8.845 -0.4893  0.0784 -0.5342
  109OSM   H13F11302   1.775   2.433   8.883 -0.6458 -0.3826 -0.3687
  109OSM   H13G11303   1.861   2.293   8.902  1.9595 -1.0709 -1.9235
  109OSM   C14F11304   1.847   2.359   8.702  0.2826 -0.6566 -0.2606
  109OSM   H14F11305   1.903   2.434   8.643 -0.8933  1.2915  1.0127
  109OSM   H14G11306   1.739   2.363   8.678  0.3167 -0.5071 -0.3828
  109OSM   C15F11307   1.904   2.222   8.660 -0.0199 -0.3116 -0.4791
  109OSM   H15F11308   1.860   2.141   8.723 -0.7815  0.7386  0.3638
  109OSM   H15G11309   2.010   2.217   8.695 -0.2763  0.4159  0.4358
  109OSM   C16F11310   1.874   2.195   8.512  0.1103  0.0323  0.1682
  109OSM   H16F11311   1.779   2.248   8.489 -0.4598 -0.1177  1.9804
  109OSM   H16G11312   1.852   2.086   8.501 -2.3797  0.5290 -0.4045
  109OSM   C17F11313   1.987   2.240   8.425 -0.6091  0.0506  0.8875
  109OSM   H17F11314   2.082   2.202   8.468  0.8381 -0.2438 -2.2380
  109OSM   H17G11315   1.988   2.350   8.411  0.8333 -0.0992 -0.5671
  109OSM   C18F11316   1.981   2.163   8.284 -0.6206  0.7378  0.1634
  109OSM   H18F11317   2.038   2.216   8.204 -2.3364  0.2875 -1.4282
  109OSM   H18G11318   1.877   2.137   8.255 -1.0684 -0.4439  2.6201
  109OSM   H18H11319   2.049   2.078   8.307  2.4626  3.0997  0.4603
  110OSM      N11320   4.266   5.998  10.967 -0.0212  0.2909  0.1803
  110OSM    C1511321   4.157   5.942  10.887 -0.3213  0.4991 -0.4386
  110OSM   H15A11322   4.091   5.888  10.953  0.6197 -0.0561  0.0617
  110OSM   H15B11323   4.194   5.881  10.806 -0.2528 -0.5511  0.3747
  110OSM   H15C11324   4.087   6.017  10.852 -1.9696 -1.2381 -1.0682
  110OSM    C1411325   4.304   5.889  11.067 -0.2488 -0.2290  0.2298
  110OSM   H14A11326   4.329   5.798  11.014 -2.9335 -1.5406  1.0533
  110OSM   H14B11327   4.214   5.861  11.118 -1.1642  0.5871 -0.8728
  110OSM   H14C11328   4.386   5.920  11.131  0.0910 -0.9174  0.1354
  110OSM    C1311329   4.382   6.029  10.881 -0.0398 -0.8127  0.6794
  110OSM   H13A11330   4.481   6.027  10.926 -0.0148  0.6953  0.7451
  110OSM   H13B11331   4.370   6.129  10.843  1.0088 -0.7190  0.5613
  110OSM   H13C11332   4.379   5.968  10.793 -1.0694 -2.1497  1.6028
  110OSM    C1211333   4.216   6.124  11.043  0.1632  0.4006  0.0288
  110OSM   H12A11334   4.284   6.157  11.121 -1.0689  2.3240  0.3340
  110OSM   H12B11335   4.128   6.100  11.101  1.0980 -0.5857  1.1163
  110OSM    C1111336   4.167   6.242  10.947 -0.0776  0.2347 -0.0424
  110OSM   H11A11337   4.110   6.311  11.013  1.0819  0.1243  1.1092
  110OSM   H11B11338   4.107   6.200  10.863  0.4386 -1.3695  0.3413
  110OSM      P11339   4.273   6.432  10.790 -0.4137  0.0421 -0.1162
  110OSM    O1311340   4.216   6.541  10.876 -0.0594  1.3450  0.2643
  110OSM    O1411341   4.405   6.453  10.728 -0.7026 -0.3428  0.4571
  110OSM    O1111342   4.169   6.379  10.676  0.0994  0.0261 -0.2985
  110OSM    O1211343   4.281   6.306  10.889  1.0864 -0.5974 -0.3976
  110OSM    C1S11344   4.199   6.263  10.600 -0.1204  0.1003  0.1230
  110OSM    H1S11345   4.186   6.175  10.666 -0.4285 -0.6687 -0.9440
  110OSM    H1T11346   4.300   6.255  10.554  0.0944  0.6883  0.4813
  110OSM     NF11347   4.111   6.114  10.421 -0.3135 -0.0694 -0.1893
  110OSM    HNF11348   4.157   6.104  10.334 -0.8667  0.5697 -0.5596
  110OSM    C2S11349   4.098   6.242  10.483  0.0427 -0.3208 -0.0858
  110OSM    H2S11350   3.995   6.240  10.525 -0.7191  0.1904 -1.8673
  110OSM    C3S11351   4.112   6.358  10.381  0.2050 -0.0464  0.4492
  110OSM    H3S11352   4.216   6.362  10.341  1.0168 -0.3580  2.3719
  110OSM     O311353   4.093   6.489  10.443  0.2777 -0.3563  0.0632
  110OSM    HO311354   4.088   6.472  10.537 -0.3705 -2.2802 -0.2680
  110OSM    C4S11355   4.001   6.339  10.274 -0.5527  0.4739 -0.4424
  110OSM    H4S11356   4.043   6.285  10.189 -0.3825 -1.1825  0.6606
  110OSM    C5S11357   3.873   6.377  10.273  0.3056 -0.6774 -0.2788
  110OSM    H5S11358   3.825   6.425  10.359  0.3302 -1.9261  0.4510
  110OSM    C6S11359   3.773   6.359  10.163 -0.0975 -0.0753 -0.0283
  110OSM    H6S11360   3.710   6.447  10.140  2.5778  1.1374 -3.7557
  110OSM    H6T11361   3.692   6.285  10.179 -1.0250  0.8326 -0.3865
  110OSM    C7S11362   3.824   6.328  10.021 -0.7269 -0.6882 -0.1441
  110OSM    H7S11363   3.886   6.237  10.035 -1.9485 -1.4651  0.4023
  110OSM    H7T11364   3.894   6.402   9.976 -0.4044 -0.8640  0.0729
  110OSM    C8S11365   3.720   6.288   9.921 -0.0676  0.8306 -0.6752
  110OSM    H8S11366   3.673   6.372   9.865 -0.9274 -0.4414 -1.9194
  110OSM    H8T11367   3.637   6.242   9.979 -0.1610  1.6225 -0.1527
  110OSM    C9S11368   3.772   6.186   9.816 -0.0207  0.6280  0.0246
  110OSM    H9S11369   3.749   6.081   9.844 -1.1357  0.6080 -0.8885
  110OSM    H9T11370   3.880   6.208   9.802  0.1345 -0.1396 -0.0522
  110OSM   C10S11371   3.716   6.202   9.676  0.7750  0.4052 -0.1046
  110OSM   H10S11372   3.725   6.311   9.656  0.8917  0.2041 -1.1995
  110OSM   H10T11373   3.608   6.176   9.687  0.8448  0.9591  2.6641
  110OSM   C11S11374   3.788   6.129   9.577 -0.1238  0.5003  0.2660
  110OSM   H11S11375   3.779   6.022   9.605 -0.1184  0.5440  0.4347
  110OSM   H11T11376   3.896   6.151   9.591 -0.2139  1.4839 -0.5114
  110OSM   C12S11377   3.744   6.167   9.437 -0.3294  0.7283 -0.2430
  110OSM   H12S11378   3.720   6.275   9.442  2.2944  1.4199 -0.9614
  110OSM   H12T11379   3.658   6.100   9.416  1.5783 -1.9804 -0.0201
  110OSM   C13S11380   3.849   6.132   9.331 -0.0735 -0.1910  0.0591
  110OSM   H13S11381   3.865   6.023   9.348 -1.8017 -0.2700  1.4764
  110OSM   H13T11382   3.941   6.189   9.355  1.7261 -2.3255 -1.4454
  110OSM   C14S11383   3.798   6.166   9.191  0.1844 -0.8888  0.2568
  110OSM   H14S11384   3.790   6.276   9.194 -0.2217 -0.8459 -1.4369
  110OSM   H14T11385   3.698   6.122   9.169 -1.2782  0.9409  2.7428
  110OSM   C15S11386   3.897   6.109   9.090  0.1897  0.0621  1.0410
  110OSM   H15S11387   3.908   6.001   9.114 -3.4851 -0.0891  2.7452
  110OSM   H15T11388   3.991   6.165   9.110 -0.8996  1.7372  1.6921
  110OSM   C16S11389   3.846   6.130   8.949 -1.3916  0.1847 -0.0609
  110OSM   H16S11390   3.829   6.238   8.931  0.0583  0.1491 -2.0532
  110OSM   H16T11391   3.754   6.071   8.927 -1.8316 -0.1102  2.2984
  110OSM   C17S11392   3.953   6.096   8.846  0.3980 -0.0278  0.2740
  110OSM   H17S11393   3.983   5.989   8.859  0.3161  0.0461  1.1628
  110OSM   H17T11394   4.048   6.153   8.851  0.2784  0.3184 -1.1489
  110OSM   C18S11395   3.906   6.106   8.708 -0.9724 -0.0779  0.1866
  110OSM   H18S11396   3.827   6.029   8.693 -1.7795  0.2847  2.2085
  110OSM   H18T11397   3.982   6.100   8.627 -0.3289  0.0843  0.7707
  110OSM   H18U11398   3.869   6.210   8.695  1.6593  0.8739 -0.1266
  110OSM    C1F11399   4.076   6.000  10.490  0.2195  0.7986 -0.0546
  110OSM     OF11400   4.012   6.006  10.602 -0.0630 -0.0909  0.4844
  110OSM    C2F11401   4.117   5.872  10.435 -0.2129 -0.2054 -0.6490
  110OSM    H2F11402   4.108   5.790  10.508 -1.6389 -1.1496 -1.8436
  110OSM    H2G11403   4.227   5.883  10.419 -0.0002  2.2505  1.7187
  110OSM    C3F11404   4.065   5.829  10.300 -0.0856 -0.0145 -0.0096
  110OSM    H3F11405   4.051   5.909  10.223 -1.9919  1.7042  1.9943
  110OSM    H3G11406   3.964   5.785  10.317 -0.8367  1.1474 -1.1744
  110OSM    C4F11407   4.147   5.718  10.232  0.4870 -0.1850 -0.3580
  110OSM    H4F11408   4.165   5.641  10.310 -0.4029 -0.9270 -0.8727
  110OSM    H4G11409   4.243   5.762  10.197 -0.2041  1.6439 -0.0841
  110OSM    C5F11410   4.080   5.648  10.113 -0.3093  1.2469  0.0607
  110OSM    H5F11411   4.028   5.719  10.045  1.7214  0.3869 -2.5586
  110OSM    H5G11412   4.005   5.570  10.134 -0.8344  1.9291  0.7580
  110OSM    C6F11413   4.181   5.567  10.033  0.0444  0.3002  0.3482
  110OSM    H6F11414   4.218   5.485  10.098  0.4634 -0.0178 -0.2789
  110OSM    H6G11415   4.258   5.641  10.002  2.5371 -1.1431  2.7164
  110OSM    C7F11416   4.120   5.494   9.912  0.2827  0.0655 -0.3276
  110OSM    H7F11417   4.066   5.562   9.842 -1.0724 -1.5539 -0.9124
  110OSM    H7G11418   4.038   5.432   9.955 -1.7225  2.6202 -0.2094
  110OSM    C8F11419   4.223   5.404   9.843  0.2253 -0.3573 -0.8539
  110OSM    H8F11420   4.267   5.340   9.922  0.6985  2.0521  0.9468
  110OSM    H8G11421   4.311   5.467   9.817  2.1641 -2.4191  0.3296
  110OSM    C9F11422   4.157   5.342   9.717  0.1875  0.7176 -0.5957
  110OSM    H9F11423   4.074   5.272   9.736  0.8333 -0.4047 -1.7307
  110OSM   C10F11424   4.209   5.348   9.593 -0.2674  0.0492  0.5709
  110OSM   H10F11425   4.151   5.310   9.507 -0.9177  1.1716  0.4912
  110OSM   C11F11426   4.332   5.410   9.536 -0.0961  0.5754 -0.0959
  110OSM   H11F11427   4.384   5.328   9.482  0.5676  0.0683  1.2639
  110OSM   H11G11428   4.407   5.433   9.615  0.2912 -2.1440  0.4218
  110OSM   C12F11429   4.290   5.541   9.467 -0.2250  0.0088 -0.4290
  110OSM   H12F11430   4.383   5.597   9.443  0.7616 -1.2345  0.3177
  110OSM   H12G11431   4.242   5.608   9.541  1.3634  0.3541  0.3414
  110OSM   C13F11432   4.205   5.521   9.347 -0.3032 -0.4271 -0.0927
  110OSM   H13F11433   4.178   5.622   9.312  0.5347  0.6865  2.2442
  110OSM   H13G11434   4.109   5.466   9.359  0.1468 -0.9922  1.1142
  110OSM   C14F11435   4.270   5.442   9.233 -0.4373 -0.5155  0.1788
  110OSM   H14F11436   4.303   5.341   9.265 -0.6793 -0.8917 -0.7347
  110OSM   H14G11437   4.363   5.498   9.208  0.5129 -1.8282  0.6131
  110OSM   C15F11438   4.193   5.420   9.099 -0.3300  0.0194 -0.1017
  110OSM   H15F11439   4.169   5.521   9.060  2.2513  0.8608  0.2865
  110OSM   H15G11440   4.100   5.360   9.110 -0.4967  0.5267  1.6333
  110OSM   C16F11441   4.278   5.360   8.989 -0.9911  0.4532  0.4279
  110OSM   H16F11442   4.285   5.249   8.996 -0.3728  0.4339 -0.3589
  110OSM   H16G11443   4.382   5.395   9.004 -0.6250 -0.4861  0.1614
  110OSM   C17F11444   4.227   5.387   8.847 -0.8993 -0.1930 -0.1160
  110OSM   H17F11445   4.298   5.357   8.767 -0.9089  0.7410 -0.4913
  110OSM   H17G11446   4.214   5.497   8.834 -2.3308  0.2493  3.7427
  110OSM   C18F11447   4.092   5.318   8.815 -0.6680  0.1647  0.0462
  110OSM   H18F11448   4.114   5.255   8.727  0.7487 -2.5758  2.2041
  110OSM   H18G11449   4.009   5.388   8.791  0.2429  1.1737 -0.2670
  110OSM   H18H11450   4.075   5.245   8.897  1.3427 -2.1702 -1.4812
  111OSM      N11451   0.598   3.490  11.041  0.9854 -0.4302  0.1827
  111OSM    C1511452   0.633   3.374  11.127 -0.4043 -0.3913 -0.2836
  111OSM   H15A11453   0.646   3.397  11.231 -1.2973 -0.6650 -0.0990
  111OSM   H15B11454   0.715   3.314  11.090 -1.2362 -1.1558 -0.9448
  111OSM   H15C11455   0.552   3.303  11.134 -1.6774  0.7391 -2.3228
  111OSM    C1411456   0.459   3.539  11.097 -0.2028 -0.3105 -0.6147
  111OSM   H14A11457   0.405   3.600  11.026 -0.8301  0.5845  0.5796
  111OSM   H14B11458   0.474   3.596  11.188 -1.4797 -0.5977 -0.1975
  111OSM   H14C11459   0.385   3.461  11.109  0.0702 -0.4659  0.1241
  111OSM    C1311460   0.702   3.594  11.050  0.5061 -0.4456  0.7155
  111OSM   H13A11461   0.794   3.570  10.999  0.9152  0.7457  0.8595
  111OSM   H13B11462   0.729   3.606  11.154  0.1447 -1.4541  0.9343
  111OSM   H13C11463   0.668   3.692  11.017  3.7996  1.0295  1.3469
  111OSM    C1211464   0.576   3.433  10.904 -0.2480  0.2777 -0.0244
  111OSM   H12A11465   0.493   3.364  10.907 -0.2200  0.2530  0.1878
  111OSM   H12B11466   0.668   3.379  10.886 -0.2997  0.5077 -1.0999
  111OSM    C1111467   0.558   3.532  10.788  0.1793 -0.1868 -0.2581
  111OSM   H11A11468   0.578   3.481  10.692  0.3103  2.1973 -1.5651
  111OSM   H11B11469   0.634   3.612  10.804 -1.6793  1.8069 -0.9516
  111OSM      P11470   0.309   3.521  10.752 -0.1343  0.0517 -0.0994
  111OSM    O1311471   0.326   3.374  10.747 -0.0283  0.0428  0.1937
  111OSM    O1411472   0.206   3.582  10.846  0.3317 -0.0887  0.1077
  111OSM    O1111473   0.275   3.573  10.604  0.2675  0.0510 -0.0993
  111OSM    O1211474   0.436   3.601  10.791 -0.0257  0.7305 -0.2837
  111OSM    C1S11475   0.331   3.693  10.555 -0.1524  0.6895  0.2823
  111OSM    H1S11476   0.432   3.660  10.522 -0.4422  0.5352 -0.4762
  111OSM    H1T11477   0.333   3.774  10.632  1.0166 -0.6867  1.7813
  111OSM     NF11478   0.338   3.857  10.368  0.6272 -0.8909  0.5099
  111OSM    HNF11479   0.299   3.949  10.373  1.9404 -0.3632  2.0957
  111OSM    C2S11480   0.265   3.745  10.423 -0.7591 -0.2043  0.0024
  111OSM    H2S11481   0.272   3.659  10.353 -2.1350 -0.6716  0.4111
  111OSM    C3S11482   0.105   3.772  10.439  0.4035  0.5824 -0.1973
  111OSM    H3S11483   0.105   3.862  10.505 -0.4747  0.3348  0.1445
  111OSM     O311484   0.028   3.671  10.513 -0.0053 -0.0641 -0.1356
  111OSM    HO311485   0.099   3.613  10.543 -0.0341  0.5919  1.2826
  111OSM    C4S11486   0.041   3.796  10.305  0.0228 -0.4965  0.2701
  111OSM    H4S11487   0.052   3.712  10.235 -2.8416  1.0827 -2.3419
  111OSM    C5S11488  -0.041   3.903  10.271 -0.5746 -0.4015 -0.1083
  111OSM    H5S11489  -0.064   3.980  10.347 -0.4882  0.2375 -0.7245
  111OSM    C6S11490  -0.108   3.934  10.137  0.0207  0.4906 -0.8102
  111OSM    H6S11491  -0.151   4.036  10.143  2.0262  1.3158  0.3273
  111OSM    H6T11492  -0.194   3.864  10.129 -0.0811  0.4025  0.7415
  111OSM    C7S11493  -0.018   3.922  10.013 -0.5156 -0.2725 -0.3399
  111OSM    H7S11494   0.027   3.821  10.004  2.7127  1.1735 -1.8617
  111OSM    H7T11495   0.067   3.992  10.026 -0.7079 -0.2284  0.8746
  111OSM    C8S11496  -0.095   3.943   9.886 -0.1239 -0.0597 -0.7907
  111OSM    H8S11497  -0.122   4.050   9.874 -1.2873 -0.3528 -0.9119
  111OSM    H8T11498  -0.191   3.887   9.894  1.3055 -2.3701  2.3794
  111OSM    C9S11499  -0.035   3.892   9.759 -0.7170  0.3013  0.2857
  111OSM    H9S11500  -0.009   3.784   9.772 -0.3015  0.4646  0.9167
  111OSM    H9T11501   0.067   3.930   9.735 -0.8181 -0.2001 -1.0040
  111OSM   C10S11502  -0.111   3.929   9.630  0.4280 -0.8727 -0.0607
  111OSM   H10S11503  -0.133   4.038   9.629  0.6229 -0.8355 -0.2096
  111OSM   H10T11504  -0.208   3.875   9.628 -0.8738  1.3027  0.6661
  111OSM   C11S11505  -0.041   3.877   9.503  1.0476  0.6367 -0.1758
  111OSM   H11S11506  -0.030   3.766   9.504  3.1253  0.6085 -4.5840
  111OSM   H11T11507   0.057   3.925   9.484  1.0756  0.3967 -0.6411
  111OSM   C12S11508  -0.126   3.913   9.371  0.3894  0.0048 -0.4325
  111OSM   H12S11509  -0.112   4.021   9.349  2.3269 -0.3713 -1.2441
  111OSM   H12T11510  -0.234   3.893   9.388  0.5902 -0.7122  0.0307
  111OSM   C13S11511  -0.084   3.835   9.249 -0.2119  0.1238  1.0392
  111OSM   H13S11512  -0.088   3.724   9.259 -0.5151 -0.0454 -0.6439
  111OSM   H13T11513   0.024   3.856   9.235 -0.6508  2.8238  1.3115
  111OSM   C14S11514  -0.161   3.858   9.115  0.3531 -0.3610 -0.3431
  111OSM   H14S11515  -0.143   3.959   9.074  1.1813 -0.2954  0.1590
  111OSM   H14T11516  -0.271   3.838   9.116 -0.0498  1.6248  0.6917
  111OSM   C15S11517  -0.109   3.760   9.008  0.5717  0.1656 -0.7874
  111OSM   H15S11518  -0.100   3.652   9.033  0.7404  0.4025  0.2251
  111OSM   H15T11519  -0.012   3.805   8.977  0.2041  0.8247 -1.0106
  111OSM   C16S11520  -0.204   3.772   8.879  0.0378 -0.0831  0.1131
  111OSM   H16S11521  -0.235   3.878   8.881  0.8024  0.2077 -1.8073
  111OSM   H16T11522  -0.297   3.719   8.909  0.9952 -1.8330  0.1953
  111OSM   C17S11523  -0.136   3.727   8.748  0.0563  0.3891 -0.0993
  111OSM   H17S11524  -0.192   3.759   8.657 -0.2033 -2.4938 -1.0510
  111OSM   H17T11525  -0.136   3.616   8.749 -0.2884  0.3594 -1.3094
  111OSM   C18S11526   0.016   3.770   8.733  0.1418  0.2200  0.5559
  111OSM   H18S11527   0.062   3.745   8.636  0.7427  0.3153  0.8133
  111OSM   H18T11528   0.071   3.709   8.808 -1.2666 -1.0979  0.5811
  111OSM   H18U11529   0.023   3.874   8.771 -0.2619  0.2986  0.4193
  111OSM    C1F11530   0.462   3.853  10.324  0.1674 -0.1626 -0.3003
  111OSM     OF11531   0.496   3.749  10.265 -0.0242  0.6023 -0.5629
  111OSM    C2F11532   0.553   3.965  10.351 -0.1156  0.5062 -0.6993
  111OSM    H2F11533   0.606   3.942  10.446 -1.1321 -1.5794 -0.5744
  111OSM    H2G11534   0.492   4.058  10.354 -0.3215  0.3438  0.9235
  111OSM    C3F11535   0.655   3.988  10.237 -0.4827  0.2444 -1.0430
  111OSM    H3F11536   0.703   3.889  10.227  0.3793  0.5355 -0.0097
  111OSM    H3G11537   0.732   4.066  10.257  1.2557 -1.4491 -0.8553
  111OSM    C4F11538   0.586   4.026  10.111 -0.2256  0.7393 -0.2011
  111OSM    H4F11539   0.510   4.105  10.126 -1.3527 -0.6790  2.1573
  111OSM    H4G11540   0.522   3.943  10.072  0.5160 -1.0281  2.1008
  111OSM    C5F11541   0.686   4.074  10.005  0.6568  0.2255  0.0466
  111OSM    H5F11542   0.745   3.983   9.982  1.3676  1.1796 -2.1551
  111OSM    H5G11543   0.752   4.156  10.043 -0.0509  1.0624 -0.5005
  111OSM    C6F11544   0.619   4.128   9.880 -0.3314  0.3516  0.2579
  111OSM    H6F11545   0.561   4.220   9.904 -0.8547 -0.1163  0.8298
  111OSM    H6G11546   0.541   4.058   9.843  0.9642 -1.2260  0.4047
  111OSM    C7F11547   0.718   4.171   9.779  0.2528 -0.2709  0.1661
  111OSM    H7F11548   0.801   4.098   9.790  0.0871 -0.3923  0.6598
  111OSM    H7G11549   0.761   4.270   9.805  0.4049  0.1784 -1.6961
  111OSM    C8F11550   0.676   4.179   9.634 -0.2667  0.8807  0.0056
  111OSM    H8F11551   0.615   4.087   9.623  0.0946  0.7020 -0.5200
  111OSM    H8G11552   0.770   4.152   9.583 -0.6271 -1.1997  0.3538
  111OSM    C9F11553   0.628   4.313   9.591 -0.5327  0.4520 -0.1608
  111OSM    H9F11554   0.558   4.359   9.662 -0.1361 -0.9180  1.1693
  111OSM   C10F11555   0.677   4.383   9.487 -0.6034 -0.3106  0.4224
  111OSM   H10F11556   0.639   4.482   9.459  2.0912  0.3812 -1.1785
  111OSM   C11F11557   0.784   4.352   9.387  0.3470  0.0003 -0.2103
  111OSM   H11F11558   0.859   4.286   9.437  2.1322  1.2565 -1.1051
  111OSM   H11G11559   0.846   4.443   9.372  0.2258 -0.1631 -1.8139
  111OSM   C12F11560   0.738   4.298   9.254  0.0885 -0.0394 -0.2028
  111OSM   H12F11561   0.831   4.265   9.202 -1.6343 -3.3567 -1.4682
  111OSM   H12G11562   0.691   4.372   9.187  0.9887 -2.1235 -3.3606
  111OSM   C13F11563   0.649   4.168   9.250 -0.4753 -0.7296 -0.0832
  111OSM   H13F11564   0.603   4.163   9.351  1.8634 -0.2499  1.0835
  111OSM   H13G11565   0.726   4.087   9.244  0.5430 -0.1120  2.9292
  111OSM   C14F11566   0.546   4.166   9.139 -0.3211  0.1293 -0.4240
  111OSM   H14F11567   0.613   4.187   9.053  2.6613 -1.8776  1.2329
  111OSM   H14G11568   0.465   4.242   9.153  0.8487  1.1951  0.7840
  111OSM   C15F11569   0.491   4.026   9.124  0.2016  0.6117  0.2985
  111OSM   H15F11570   0.432   4.001   9.215  1.7818 -1.4414  0.8457
  111OSM   H15G11571   0.574   3.952   9.119  0.1614  0.5456  0.5795
  111OSM   C16F11572   0.400   4.007   8.995 -0.7925 -0.2610 -0.7888
  111OSM   H16F11573   0.319   4.082   8.984  0.6550  1.7965  1.4559
  111OSM   H16G11574   0.358   3.905   8.982 -1.3209 -0.0057 -1.0781
  111OSM   C17F11575   0.478   4.009   8.868  0.3042  0.0647  0.3627
  111OSM   H17F11576   0.572   3.950   8.870  0.0380 -0.5031 -1.5372
  111OSM   H17G11577   0.520   4.112   8.856 -1.0899  0.6684  0.4336
  111OSM   C18F11578   0.389   3.981   8.745  0.4940 -0.1570  0.0440
  111OSM   H18F11579   0.311   4.057   8.722 -1.6220 -2.0850  0.5371
  111OSM   H18G11580   0.340   3.882   8.744 -1.8841  0.9359 -1.6225
  111OSM   H18H11581   0.455   3.988   8.655  0.5342  1.0305  0.1430
  112OSM      N11582   5.448   0.060  11.250 -0.0982  0.1154  0.3151
  112OSM    C1511583   5.532   0.172  11.303  0.2213 -0.4508 -0.4950
  112OSM   H15A11584   5.619   0.196  11.243  1.2675 -0.0724  1.1107
  112OSM   H15B11585   5.577   0.162  11.401  2.6525  0.4141 -1.4629
  112OSM   H15C11586   5.464   0.256  11.305  0.5561 -0.0823 -2.5792
  112OSM    C1411587   5.524  -0.066  11.252 -0.2464  0.3547  0.2288
  112OSM   H14A11588   5.469  -0.146  11.202 -0.7725  0.6592  0.3081
  112OSM   H14B11589   5.552  -0.092  11.353 -1.1479 -0.9798  0.1664
  112OSM   H14C11590   5.618  -0.049  11.202  0.5870 -0.1841  1.5780
  112OSM    C1311591   5.346   0.040  11.350  0.3631 -0.4079  0.0344
  112OSM   H13A11592   5.285  -0.049  11.353 -0.2560  0.0247  1.1513
  112OSM   H13B11593   5.269   0.114  11.333  1.3650  0.6926  0.1433
  112OSM   H13C11594   5.383   0.057  11.450  1.1234  1.1342 -0.4852
  112OSM    C1211595   5.397   0.089  11.111  0.1379 -0.2544  0.0082
  112OSM   H12A11596   5.488   0.091  11.054  0.5647  1.7731  0.6709
  112OSM   H12B11597   5.357   0.189  11.101 -0.8550 -0.6223  0.0999
  112OSM    C1111598   5.295  -0.011  11.053 -0.0273  0.2992  0.1046
  112OSM   H11A11599   5.344  -0.111  11.063  1.7721  0.8618 -2.2002
  112OSM   H11B11600   5.293   0.004  10.943 -1.3408 -0.5551 -0.0175
  112OSM      P11601   5.078   0.116  11.100  0.6067 -0.1774  0.0934
  112OSM    O1311602   4.933   0.079  11.104  0.2961  0.5301 -0.3551
  112OSM    O1411603   5.126   0.212  11.197  0.3402  0.3584 -0.6282
  112OSM    O1111604   5.124   0.185  10.964  0.5759  0.1575 -0.3762
  112OSM    O1211605   5.165  -0.012  11.112  0.4318 -0.2665 -0.0768
  112OSM    C1S11606   5.094   0.137  10.830  0.1433  0.1945 -0.6808
  112OSM    H1S11607   4.987   0.140  10.799 -0.4879  0.6247  1.3867
  112OSM    H1T11608   5.105   0.026  10.831  0.9107  0.2568  0.9431
  112OSM     NF11609   5.191   0.111  10.587  0.1766 -0.1301 -0.1720
  112OSM    HNF11610   5.272   0.054  10.579 -0.2129 -0.6927 -0.1685
  112OSM    C2S11611   5.186   0.197  10.714 -0.0117 -0.3229  0.0214
  112OSM    H2S11612   5.139   0.294  10.687  0.9687  0.2130  0.2046
  112OSM    C3S11613   5.336   0.245  10.760  0.5760  1.0056 -0.1204
  112OSM    H3S11614   5.404   0.157  10.763 -0.3529  0.2975  1.7461
  112OSM     O311615   5.342   0.294  10.893 -0.3162 -0.3148 -0.3730
  112OSM    HO311616   5.258   0.284  10.940 -0.7816  2.4346 -0.4503
  112OSM    C4S11617   5.389   0.341  10.650  0.3635 -0.0401 -0.3082
  112OSM    H4S11618   5.365   0.448  10.659 -1.1287 -0.1673 -2.0865
  112OSM    C5S11619   5.465   0.301  10.553 -0.4678 -0.7597 -0.3226
  112OSM    H5S11620   5.490   0.194  10.543  0.7059 -0.5740  0.4711
  112OSM    C6S11621   5.519   0.386  10.442 -0.4837  0.2240 -0.1982
  112OSM    H6S11622   5.479   0.337  10.350 -2.7346  2.5013 -0.5574
  112OSM    H6T11623   5.629   0.374  10.439 -0.3421  1.3503  0.1860
  112OSM    C7S11624   5.468   0.539  10.434 -0.7827  0.0724 -0.2795
  112OSM    H7S11625   5.484   0.598  10.527 -0.5642  1.2376 -1.0317
  112OSM    H7T11626   5.360   0.541  10.407 -0.4121  2.9103 -1.9454
  112OSM    C8S11627   5.542   0.623  10.326  0.2147  0.3341  0.2207
  112OSM    H8S11628   5.647   0.653  10.348  0.0980 -0.5075  2.1410
  112OSM    H8T11629   5.490   0.721  10.314  2.2451  1.5018  0.3992
  112OSM    C9S11630   5.540   0.560  10.184  0.5318  0.2655  0.0088
  112OSM    H9S11631   5.511   0.630  10.104  1.8028 -0.6558 -1.3224
  112OSM    H9T11632   5.471   0.474  10.174  1.9116 -0.6562 -2.7912
  112OSM   C10S11633   5.672   0.499  10.142 -0.1114 -0.8100  0.3196
  112OSM   H10S11634   5.714   0.431  10.219 -0.1752 -0.3958  0.7227
  112OSM   H10T11635   5.741   0.584  10.125 -3.6572  2.0201 -1.3128
  112OSM   C11S11636   5.669   0.419  10.011  0.9343 -0.0661  0.0654
  112OSM   H11S11637   5.611   0.468   9.930  1.9884 -1.9325 -1.8959
  112OSM   H11T11638   5.621   0.321  10.032  0.7713  0.3328  1.6908
  112OSM   C12S11639   5.810   0.405   9.950 -0.2713  0.4049  0.0823
  112OSM   H12S11640   5.875   0.367  10.031 -1.0031 -0.0448  0.4783
  112OSM   H12T11641   5.841   0.509   9.927  1.8801 -0.1674  0.1956
  112OSM   C13S11642   5.817   0.311   9.827  0.4572  0.5291 -0.4966
  112OSM   H13S11643   5.784   0.209   9.853  0.3871  0.9488  1.1492
  112OSM   H13T11644   5.919   0.298   9.785  1.2337 -0.5983  1.6001
  112OSM   C14S11645   5.730   0.357   9.702  0.5179 -0.0963 -0.5955
  112OSM   H14S11646   5.750   0.466   9.690  1.7841 -0.4806 -2.5951
  112OSM   H14T11647   5.624   0.343   9.730 -0.1419  0.8655 -2.4294
  112OSM   C15S11648   5.754   0.275   9.577  0.0478  0.3739  0.2605
  112OSM   H15S11649   5.708   0.175   9.588  2.9108 -1.0347  0.3411
  112OSM   H15T11650   5.861   0.253   9.557  0.0330 -1.0858  1.5897
  112OSM   C16S11651   5.690   0.349   9.459  0.2921 -0.2546  0.5528
  112OSM   H16S11652   5.728   0.453   9.458 -0.6706  0.1243  1.2899
  112OSM   H16T11653   5.580   0.347   9.478  0.2064 -0.8018  0.0395
  112OSM   C17S11654   5.723   0.282   9.331  0.9389  0.2994  0.1873
  112OSM   H17S11655   5.684   0.178   9.339 -0.5903  0.7859 -0.5256
  112OSM   H17T11656   5.829   0.254   9.316  0.6203 -1.5690  1.1402
  112OSM   C18S11657   5.683   0.359   9.204 -0.3597  0.4859 -0.1231
  112OSM   H18S11658   5.585   0.412   9.202 -1.3775 -1.3298 -0.9736
  112OSM   H18T11659   5.679   0.292   9.116 -0.3295  1.4812 -0.8992
  112OSM   H18U11660   5.747   0.444   9.171 -0.6232  0.3897 -0.8930
  112OSM    C1F11661   5.091   0.086  10.505 -0.5264 -0.1609  0.3626
  112OSM     OF11662   4.980   0.120  10.526  0.1519 -0.2108 -0.4708
  112OSM    C2F11663   5.120   0.006  10.373  0.8422 -0.6663 -0.3899
  112OSM    H2F11664   5.154  -0.095  10.403  1.2161 -0.3972  0.1099
  112OSM    H2G11665   5.208   0.045  10.317 -0.8140 -0.0226 -2.7243
  112OSM    C3F11666   4.996   0.001  10.276  0.1028 -0.4529 -0.1825
  112OSM    H3F11667   4.956   0.104  10.266  0.2312 -0.3509  0.3266
  112OSM    H3G11668   4.914  -0.053  10.328  1.9119 -1.1970  2.0554
  112OSM    C4F11669   5.028  -0.061  10.137 -1.0979  0.8549 -0.4000
  112OSM    H4F11670   5.064  -0.166  10.147 -1.7577  0.6986  0.5347
  112OSM    H4G11671   5.105   0.001  10.087 -2.3189  1.9988 -0.9260
  112OSM    C5F11672   4.899  -0.068  10.052 -0.0470  0.3636 -0.0649
  112OSM    H5F11673   4.862   0.037  10.051 -1.6316 -0.1716 -0.2855
  112OSM    H5G11674   4.816  -0.131  10.089  0.6907 -0.0419  0.9471
  112OSM    C6F11675   4.920  -0.110   9.903 -0.3564  0.1966  0.2637
  112OSM    H6F11676   4.823  -0.095   9.850 -0.5657 -1.7259  0.0292
  112OSM    H6G11677   4.948  -0.216   9.891 -1.0267 -0.3871  3.1070
  112OSM    C7F11678   5.027  -0.027   9.825 -0.3122  0.2492 -0.0377
  112OSM    H7F11679   5.114  -0.096   9.834 -0.0015 -0.0443 -3.7887
  112OSM    H7G11680   5.034   0.069   9.880 -0.3177 -0.4839  1.2801
  112OSM    C8F11681   4.988  -0.004   9.682 -0.4771  0.0830  0.0785
  112OSM    H8F11682   5.052   0.076   9.640 -1.3247 -0.0532 -1.5875
  112OSM    H8G11683   4.883   0.033   9.674 -1.0704 -1.1720  1.5398
  112OSM    C9F11684   4.990  -0.130   9.595 -0.3779 -0.5625  0.1987
  112OSM    H9F11685   5.008  -0.230   9.637 -1.1119 -0.4605  0.7664
  112OSM   C10F11686   4.971  -0.122   9.460 -0.1638  0.0822 -1.0284
  112OSM   H10F11687   4.979  -0.219   9.407 -4.1076 -0.4638 -0.8728
  112OSM   C11F11688   4.940   0.002   9.386 -0.0107 -0.2025  0.1318
  112OSM   H11F11689   5.038   0.053   9.375 -0.9725  1.7300  0.1682
  112OSM   H11G11690   4.874   0.072   9.441 -0.3663 -0.8074  0.4938
  112OSM   C12F11691   4.891  -0.025   9.241 -0.4351 -0.6630 -0.0949
  112OSM   H12F11692   4.790  -0.069   9.234 -0.2350 -1.0827 -0.3635
  112OSM   H12G11693   4.963  -0.093   9.190 -0.9126 -2.8648  1.9686
  112OSM   C13F11694   4.894   0.105   9.161 -0.5496 -0.8466  0.1634
  112OSM   H13F11695   4.998   0.131   9.135 -0.6967  1.1992  1.3476
  112OSM   H13G11696   4.857   0.192   9.220  1.7467 -0.5313  1.2287
  112OSM   C14F11697   4.823   0.092   9.027  0.0105 -0.6382 -0.5978
  112OSM   H14F11698   4.832   0.188   8.971  0.1916 -1.0502 -1.2879
  112OSM   H14G11699   4.712   0.088   9.038 -0.1888  0.7270 -1.7552
  112OSM   C15F11700   4.880  -0.015   8.940 -0.4305  0.3410  0.4659
  112OSM   H15F11701   4.819  -0.108   8.949  0.4608 -0.8191 -3.4627
  112OSM   H15G11702   4.982  -0.044   8.972 -0.8037 -1.2908  0.2437
  112OSM   C16F11703   4.902   0.037   8.795 -0.4125 -1.0235  0.8393
  112OSM   H16F11704   4.977   0.118   8.811 -1.0321 -0.4524  0.9116
  112OSM   H16G11705   4.805   0.081   8.764 -0.5714 -2.3831 -0.7292
  112OSM   C17F11706   4.934  -0.064   8.684 -0.3267 -0.4921 -0.2504
  112OSM   H17F11707   4.857  -0.144   8.676  0.7907 -1.7211  0.8650
  112OSM   H17G11708   5.030  -0.113   8.711  0.8059 -0.4105 -3.6005
  112OSM   C18F11709   4.959  -0.009   8.545  0.6199 -0.7793 -1.0243
  112OSM   H18F11710   5.039  -0.065   8.492  2.4851 -0.2819  1.1150
  112OSM   H18G11711   4.965   0.102   8.554 -0.6423 -0.7310 -0.5775
  112OSM   H18H11712   4.870  -0.041   8.487 -0.9407 -0.6891  1.1812
  113OSM      N11713   2.314   5.192  11.014 -0.2875  0.4605 -0.3886
  113OSM    C1511714   2.439   5.132  11.056 -0.1483  0.3730  0.5123
  113OSM   H15A11715   2.457   5.137  11.162  0.4668 -2.0213  0.5826
  113OSM   H15B11716   2.522   5.180  11.006  0.4126  1.9155  2.7844
  113OSM   H15C11717   2.442   5.030  11.022 -0.6256  1.1823 -2.2158
  113OSM    C1411718   2.284   5.157  10.873  0.4885  0.7969 -0.6267
  113OSM   H14A11719   2.360   5.194  10.805  2.6072 -0.0840  1.1496
  113OSM   H14B11720   2.181   5.182  10.854  0.0589  0.0214  0.6119
  113OSM   H14C11721   2.299   5.051  10.869  3.3184  1.1395 -1.2830
  113OSM    C1311722   2.204   5.130  11.090  0.4490 -0.3579 -0.1583
  113OSM   H13A11723   2.232   5.119  11.194  1.3178  0.3421 -0.3110
  113OSM   H13B11724   2.179   5.031  11.054 -2.1350  0.1706 -0.0538
  113OSM   H13C11725   2.113   5.188  11.090  0.7675  0.1493 -0.4645
  113OSM    C1211726   2.313   5.347  11.028 -0.0859  0.9476 -0.1470
  113OSM   H12A11727   2.328   5.373  11.132 -0.7951  1.6002 -0.1974
  113OSM   H12B11728   2.213   5.377  11.000 -0.3800 -0.5348 -0.7874
  113OSM    C1111729   2.403   5.427  10.929 -0.2928 -0.2661  0.3816
  113OSM   H11A11730   2.369   5.528  10.899 -2.4054 -0.7852  0.8243
  113OSM   H11B11731   2.396   5.374  10.832  4.1734  0.1972 -0.3982
  113OSM      P11732   2.587   5.562  11.039 -0.2304 -0.1745  0.0695
  113OSM    O1311733   2.489   5.610  11.138  0.5055  0.1657  0.0174
  113OSM    O1411734   2.729   5.536  11.082  0.0344 -0.2986 -0.0882
  113OSM    O1111735   2.593   5.660  10.913  0.0070  0.0656  1.0022
  113OSM    O1211736   2.540   5.430  10.966 -0.0830  0.3443  0.2478
  113OSM    C1S11737   2.697   5.639  10.814  0.2498  0.0588  0.2859
  113OSM    H1S11738   2.673   5.551  10.751  0.9445  1.1725 -1.6186
  113OSM    H1T11739   2.798   5.623  10.857  0.1747  1.2819  0.9667
  113OSM     NF11740   2.766   5.721  10.589 -0.1349  0.0401 -0.0922
  113OSM    HNF11741   2.864   5.724  10.573 -0.0936 -1.2062 -0.1403
  113OSM    C2S11742   2.715   5.754  10.718 -0.0820  0.2911  0.2837
  113OSM    H2S11743   2.617   5.803  10.703  0.7432  1.4236 -1.9438
  113OSM    C3S11744   2.800   5.863  10.791  0.2538  0.4697  0.4477
  113OSM    H3S11745   2.898   5.813  10.801 -0.2647 -0.5178  0.7958
  113OSM     O311746   2.765   5.884  10.927 -0.1984 -0.0880 -0.5227
  113OSM    HO311747   2.688   5.831  10.950 -1.3372  1.3021 -1.0156
  113OSM    C4S11748   2.801   5.984  10.711  0.0689 -0.5578 -0.1412
  113OSM    H4S11749   2.702   5.998  10.666 -0.1661 -1.4346  0.0728
  113OSM    C5S11750   2.900   6.068  10.680  0.8377 -0.0046 -0.0325
  113OSM    H5S11751   3.006   6.053  10.705  0.7066  1.3253  1.3973
  113OSM    C6S11752   2.866   6.180  10.583 -0.2237 -0.0729  0.3494
  113OSM    H6S11753   2.918   6.278  10.588 -0.2439 -0.0514  0.1488
  113OSM    H6T11754   2.760   6.214  10.586  0.4357  2.3395 -0.9351
  113OSM    C7S11755   2.889   6.117  10.446 -0.2418 -0.2036  0.3193
  113OSM    H7S11756   2.824   6.030  10.423  0.1676 -0.0291 -1.7080
  113OSM    H7T11757   2.996   6.086  10.437  0.2663  1.5600 -0.0578
  113OSM    C8S11758   2.841   6.211  10.327 -0.2385  0.4945  0.6236
  113OSM    H8S11759   2.878   6.315  10.342 -0.6552  0.7158  0.1297
  113OSM    H8T11760   2.731   6.220  10.331 -0.2954 -0.0841  0.3510
  113OSM    C9S11761   2.893   6.158  10.195 -0.1203  0.3481  0.1092
  113OSM    H9S11762   2.910   6.048  10.191 -0.3156  0.3375 -0.5294
  113OSM    H9T11763   2.994   6.200  10.176  0.8774 -1.5225  0.9708
  113OSM   C10S11764   2.809   6.212  10.079 -0.0694  0.2299  0.9239
  113OSM   H10S11765   2.702   6.183  10.084 -0.2109  0.3403 -0.8539
  113OSM   H10T11766   2.845   6.155   9.991 -1.4066 -1.2876  1.3036
  113OSM   C11S11767   2.843   6.356  10.035 -0.7265 -0.1555 -0.6323
  113OSM   H11S11768   2.952   6.375  10.039 -0.5615 -1.3319  2.2322
  113OSM   H11T11769   2.808   6.407  10.127 -2.7540 -1.3714 -0.6829
  113OSM   C12S11770   2.776   6.410   9.907  0.4202  0.2360  0.0882
  113OSM   H12S11771   2.778   6.521   9.910 -0.7474  0.4885 -3.5682
  113OSM   H12T11772   2.669   6.380   9.904  0.4479  0.1553 -2.7997
  113OSM   C13S11773   2.832   6.353   9.778  0.1190  0.1912  0.5663
  113OSM   H13S11774   2.810   6.246   9.762  4.9519 -0.9300 -0.0199
  113OSM   H13T11775   2.942   6.369   9.786 -0.1815  2.3923  1.0832
  113OSM   C14S11776   2.778   6.433   9.657 -0.2261  0.4247  0.0893
  113OSM   H14S11777   2.798   6.542   9.663  1.0184  0.4474 -2.7550
  113OSM   H14T11778   2.667   6.426   9.654 -0.3520  1.7447  1.0263
  113OSM   C15S11779   2.835   6.391   9.524 -0.0822  0.0343  0.4444
  113OSM   H15S11780   2.809   6.285   9.506 -1.2642  0.2940  0.5696
  113OSM   H15T11781   2.945   6.394   9.539 -0.2160  1.0004  1.3291
  113OSM   C16S11782   2.810   6.489   9.405  0.2223  0.0270 -0.7741
  113OSM   H16S11783   2.842   6.592   9.428 -1.2903  0.8079 -1.9866
  113OSM   H16T11784   2.701   6.507   9.389  0.0401  1.1091  1.3562
  113OSM   C17S11785   2.886   6.450   9.277  0.7461 -0.2241  0.0444
  113OSM   H17S11786   2.847   6.498   9.185  0.4713  0.6618  0.6066
  113OSM   H17T11787   2.871   6.341   9.261  2.6642 -0.7395  1.3313
  113OSM   C18S11788   3.039   6.470   9.290 -0.1840 -0.5328  0.8398
  113OSM   H18S11789   3.085   6.416   9.204 -0.2529  1.0614 -0.2434
  113OSM   H18T11790   3.076   6.422   9.383  2.9344  1.5618  0.8358
  113OSM   H18U11791   3.066   6.577   9.286  3.4715 -1.3260  0.3196
  113OSM    C1F11792   2.703   5.654  10.496 -0.0552  0.3835 -0.0870
  113OSM     OF11793   2.590   5.613  10.508  0.2001  0.3559 -0.0909
  113OSM    C2F11794   2.769   5.655  10.360  0.2895  0.1211  0.5647
  113OSM    H2F11795   2.851   5.581  10.347  0.4288  0.6182 -2.0945
  113OSM    H2G11796   2.826   5.751  10.361 -1.4007  1.1817 -0.6338
  113OSM    C3F11797   2.665   5.649  10.246  0.0364 -0.0922  0.6934
  113OSM    H3F11798   2.600   5.738  10.255 -0.0802 -0.0726 -0.2789
  113OSM    H3G11799   2.601   5.560  10.257  0.1668 -0.5467 -1.6773
  113OSM    C4F11800   2.729   5.649  10.108  0.2027  1.3197  0.0948
  113OSM    H4F11801   2.662   5.597  10.037  0.8511  1.2088 -0.4431
  113OSM    H4G11802   2.813   5.576  10.112 -0.0236  1.0567  0.0485
  113OSM    C5F11803   2.759   5.793  10.070  0.3846 -0.5771  0.4657
  113OSM    H5F11804   2.831   5.840  10.141  1.5209  0.5632 -1.3675
  113OSM    H5G11805   2.666   5.854  10.065  0.3822 -0.5357  0.9377
  113OSM    C6F11806   2.811   5.791   9.927  0.4667 -0.2171  0.1797
  113OSM    H6F11807   2.909   5.738   9.917 -0.0342 -1.4951  1.7473
  113OSM    H6G11808   2.840   5.897   9.912  1.2604  0.0955  3.3226
  113OSM    C7F11809   2.711   5.755   9.812  0.0577 -0.0534  0.0117
  113OSM    H7F11810   2.635   5.836   9.816  2.0015  1.8643  0.0484
  113OSM    H7G11811   2.661   5.657   9.822 -0.0992 -0.0121 -0.3424
  113OSM    C8F11812   2.787   5.776   9.678 -0.4804 -0.3561  0.4643
  113OSM    H8F11813   2.826   5.881   9.684  0.1789 -0.5495 -0.3121
  113OSM    H8G11814   2.719   5.769   9.591 -0.6001 -3.9198  0.7098
  113OSM    C9F11815   2.904   5.683   9.662 -0.4191  0.9213 -0.1523
  113OSM    H9F11816   2.989   5.697   9.730 -1.0251 -0.4542  0.9437
  113OSM   C10F11817   2.905   5.575   9.574 -0.0028  0.6549 -0.4136
  113OSM   H10F11818   3.003   5.528   9.558 -1.0458 -1.6202 -0.5666
  113OSM   C11F11819   2.799   5.538   9.480  0.1075  0.1150  0.4236
  113OSM   H11F11820   2.699   5.570   9.516 -0.5361 -0.0313 -1.1429
  113OSM   H11G11821   2.790   5.427   9.477 -0.7260  0.1838  0.2268
  113OSM   C12F11822   2.798   5.574   9.324 -0.1047  0.0959 -0.3761
  113OSM   H12F11823   2.784   5.684   9.314 -0.5051  0.0188 -0.6635
  113OSM   H12G11824   2.708   5.528   9.280  0.5104 -1.9219  0.3790
  113OSM   C13F11825   2.929   5.529   9.255 -0.3860 -0.2512 -0.2884
  113OSM   H13F11826   2.929   5.419   9.244  2.4546 -0.4779  1.0193
  113OSM   H13G11827   3.011   5.561   9.322  0.4004 -2.1943 -0.2913
  113OSM   C14F11828   2.946   5.599   9.121 -0.4233 -0.5128 -0.8552
  113OSM   H14F11829   3.045   5.576   9.077  0.3262 -0.5734  0.7666
  113OSM   H14G11830   2.954   5.707   9.144  0.4311 -0.5013 -1.1505
  113OSM   C15F11831   2.836   5.580   9.020  0.2345  0.3859  0.9435
  113OSM   H15F11832   2.746   5.623   9.070  0.0951  2.0444 -0.5922
  113OSM   H15G11833   2.817   5.474   8.994  0.0837  0.7378 -0.5061
  113OSM   C16F11834   2.833   5.667   8.891 -0.8993 -0.4306 -0.0496
  113OSM   H16F11835   2.886   5.762   8.912 -1.7774 -0.0060  0.2984
  113OSM   H16G11836   2.724   5.687   8.882 -0.7760  0.1565 -0.3010
  113OSM   C17F11837   2.892   5.583   8.774  0.0178 -0.4172 -0.2990
  113OSM   H17F11838   2.821   5.500   8.753 -1.8124  0.9381  0.2919
  113OSM   H17G11839   2.992   5.543   8.800 -0.1736  0.0478  1.2572
  113OSM   C18F11840   2.915   5.661   8.646  0.3444 -0.4655  0.2532
  113OSM   H18F11841   2.943   5.608   8.553  0.8144  1.6593 -0.8942
  113OSM   H18G11842   2.996   5.735   8.664 -2.2743  2.5826  0.3238
  113OSM   H18H11843   2.822   5.719   8.628 -1.0066 -2.5881  0.0483
  114OSM      N11844   5.668   1.896  10.600  0.4072 -0.2864  0.6656
  114OSM    C1511845   5.780   1.810  10.563  0.0175 -0.4674 -0.1393
  114OSM   H15A11846   5.808   1.759  10.654 -0.6298  1.1471  0.9948
  114OSM   H15B11847   5.870   1.866  10.541  0.0655 -0.6572 -0.4291
  114OSM   H15C11848   5.767   1.732  10.489  0.3948 -1.0130  0.3619
  114OSM    C1411849   5.723   1.997  10.695 -0.4412 -0.5547  0.4037
  114OSM   H14A11850   5.643   2.063  10.726 -0.1807 -1.1607  2.5040
  114OSM   H14B11851   5.805   2.058  10.660 -1.7400  1.8523  1.3510
  114OSM   H14C11852   5.755   1.952  10.788  0.9321  1.0038  0.7194
  114OSM    C1311853   5.620   1.964  10.471  0.3672 -0.2149  0.3351
  114OSM   H13A11854   5.707   2.010  10.426 -0.8976  2.6243  0.6352
  114OSM   H13B11855   5.556   2.045  10.502 -0.7999 -0.4365 -1.3776
  114OSM   H13C11856   5.579   1.888  10.406  1.1347 -0.6395  0.3245
  114OSM    C1211857   5.554   1.810  10.653 -0.2311  0.0786  0.2627
  114OSM   H12A11858   5.578   1.796  10.758  0.7382 -0.0860  0.0273
  114OSM   H12B11859   5.549   1.712  10.609  0.7035 -0.6425  1.6750
  114OSM    C1111860   5.413   1.880  10.651 -0.3920 -0.7100  0.2045
  114OSM   H11A11861   5.335   1.807  10.681 -0.4679 -1.3545 -1.4657
  114OSM   H11B11862   5.385   1.903  10.546  0.9230 -0.4719 -0.1194
  114OSM      P11863   5.281   2.081  10.769 -0.2934 -0.0847  0.4607
  114OSM    O1311864   5.199   1.992  10.853 -0.3378 -0.1484 -0.2700
  114OSM    O1411865   5.323   2.205  10.837 -0.1502  0.1493  0.3021
  114OSM    O1111866   5.201   2.101  10.632  0.2329 -0.2584 -0.3767
  114OSM    O1211867   5.412   1.999  10.730  0.2465 -0.5735 -0.0514
  114OSM    C1S11868   5.269   2.174  10.530  0.2950 -0.1136 -0.0625
  114OSM    H1S11869   5.339   2.105  10.478 -0.0560  0.1507 -0.9063
  114OSM    H1T11870   5.322   2.267  10.559  0.2913 -0.2504  0.3766
  114OSM     NF11871   5.242   2.239  10.290  0.1649 -0.7200  0.5711
  114OSM    HNF11872   5.280   2.328  10.265 -0.2332 -1.3963 -2.9528
  114OSM    C2S11873   5.169   2.219  10.415  0.2633  0.2689 -0.2201
  114OSM    H2S11874   5.098   2.134  10.409 -1.8354  1.8306  1.0553
  114OSM    C3S11875   5.091   2.340  10.473  0.0076  0.6185  0.1434
  114OSM    H3S11876   5.167   2.417  10.500  0.6060  0.4135 -0.8976
  114OSM     O311877   5.027   2.319  10.598 -0.5943  0.3912  0.7898
  114OSM    HO311878   5.047   2.231  10.630 -0.0643  0.8303  1.7012
  114OSM    C4S11879   4.993   2.382  10.364  0.1643  0.4832  0.0451
  114OSM    H4S11880   4.903   2.319  10.361  0.1859  0.4553 -0.0135
  114OSM    C5S11881   5.008   2.488  10.281  0.0094 -0.4602  0.2035
  114OSM    H5S11882   5.099   2.549  10.291 -0.5302  1.1857 -3.5137
  114OSM    C6S11883   4.911   2.542  10.172  0.0365 -0.1809 -0.1011
  114OSM    H6S11884   4.965   2.579  10.082  0.3349 -1.2758 -0.3919
  114OSM    H6T11885   4.849   2.629  10.200  2.0895  1.8594 -1.5390
  114OSM    C7S11886   4.806   2.439  10.119  0.4336  0.0577 -0.1484
  114OSM    H7S11887   4.728   2.500  10.069  0.2894 -0.0294 -0.0319
  114OSM    H7T11888   4.763   2.390  10.209  1.6795 -3.5368 -1.3203
  114OSM    C8S11889   4.864   2.335  10.015 -0.0365  0.1289  0.6055
  114OSM    H8S11890   4.795   2.251   9.993  1.8752 -1.3230 -0.0712
  114OSM    H8T11891   4.954   2.285  10.056  0.9254  1.3734  0.0947
  114OSM    C9S11892   4.914   2.409   9.890  0.2600 -0.2231  0.2152
  114OSM    H9S11893   5.002   2.475   9.900  2.3233 -2.3588 -2.2805
  114OSM    H9T11894   4.832   2.480   9.866  0.4942  0.6070  1.7668
  114OSM   C10S11895   4.937   2.314   9.771 -0.1811  0.1938 -0.1365
  114OSM   H10S11896   4.844   2.256   9.759  0.3837 -0.5328 -1.1167
  114OSM   H10T11897   5.013   2.236   9.794  0.8029  1.6220  1.7274
  114OSM   C11S11898   4.973   2.386   9.639 -0.0194  0.0614  0.4012
  114OSM   H11S11899   5.059   2.450   9.668 -1.8680  0.8203  5.0790
  114OSM   H11T11900   4.889   2.453   9.610  2.2596  2.4145 -1.2376
  114OSM   C12S11901   5.010   2.310   9.514 -0.5325 -0.7704  0.0179
  114OSM   H12S11902   4.961   2.210   9.514  1.5753 -1.8930  1.3909
  114OSM   H12T11903   5.119   2.288   9.523 -0.2906 -0.5432 -1.9045
  114OSM   C13S11904   4.994   2.387   9.378  0.3984 -0.0979 -0.2030
  114OSM   H13S11905   5.069   2.469   9.377  1.6576 -1.2061 -2.8372
  114OSM   H13T11906   4.891   2.430   9.370 -0.2479 -1.4090  0.7177
  114OSM   C14S11907   5.034   2.292   9.264 -0.2659 -0.2307  0.3167
  114OSM   H14S11908   4.969   2.202   9.262 -0.4359 -0.1101  0.3991
  114OSM   H14T11909   5.139   2.255   9.276 -0.5630 -2.2537 -2.3494
  114OSM   C15S11910   5.022   2.365   9.130 -0.9943  0.4839  0.3983
  114OSM   H15S11911   5.080   2.459   9.140 -0.4542  0.0873  1.1236
  114OSM   H15T11912   4.915   2.389   9.116 -0.9580 -0.4498 -2.0343
  114OSM   C16S11913   5.079   2.297   9.002 -0.4510 -0.0463 -0.9319
  114OSM   H16S11914   5.035   2.195   8.992 -1.4669  0.3456 -0.6723
  114OSM   H16T11915   5.187   2.282   9.021 -0.9191 -0.3726  2.0339
  114OSM   C17S11916   5.067   2.373   8.872 -0.1274  0.8976 -0.4791
  114OSM   H17S11917   5.138   2.457   8.864 -0.1876  0.8162 -2.3494
  114OSM   H17T11918   4.959   2.394   8.853 -0.3630 -0.3116 -0.5628
  114OSM   C18S11919   5.105   2.279   8.758 -0.1361  0.7066  0.1926
  114OSM   H18S11920   5.016   2.219   8.729  0.2616  0.9292 -1.5471
  114OSM   H18T11921   5.182   2.207   8.793 -2.0923 -0.6166  2.0419
  114OSM   H18U11922   5.142   2.330   8.667  0.2661  1.6184  0.8437
  114OSM    C1F11923   5.295   2.127  10.226  0.2785 -0.6094  0.9753
  114OSM     OF11924   5.287   2.011  10.264  0.4081 -0.4762 -0.2452
  114OSM    C2F11925   5.372   2.158  10.096 -0.1565 -0.0774 -0.0055
  114OSM    H2F11926   5.379   2.068  10.032  1.2074  1.4930 -2.1885
  114OSM    H2G11927   5.477   2.180  10.123 -0.4047  1.9293 -0.4869
  114OSM    C3F11928   5.297   2.268  10.028 -0.3646  0.6552  0.0996
  114OSM    H3F11929   5.297   2.361  10.088  0.9672 -0.6660  2.2894
  114OSM    H3G11930   5.197   2.239   9.989  0.5665 -1.2195 -1.0178
  114OSM    C4F11931   5.383   2.295   9.901  0.5821  0.0230  0.0238
  114OSM    H4F11932   5.399   2.197   9.851  0.3110 -0.1849  0.3397
  114OSM    H4G11933   5.484   2.323   9.936  1.2035 -0.0918 -1.5876
  114OSM    C5F11934   5.332   2.416   9.818 -0.4994  0.0526  0.7487
  114OSM    H5F11935   5.331   2.503   9.886  1.2186  2.1097 -1.6681
  114OSM    H5G11936   5.229   2.398   9.780 -0.3130 -0.4579  0.4680
  114OSM    C6F11937   5.420   2.447   9.706  0.1374 -0.0165  0.0068
  114OSM    H6F11938   5.393   2.370   9.630 -1.2927  1.6262 -1.2475
  114OSM    H6G11939   5.526   2.455   9.738  0.7543 -1.2844 -1.5854
  114OSM    C7F11940   5.384   2.567   9.615  0.3277 -0.5056  0.1842
  114OSM    H7F11941   5.430   2.657   9.661  2.0511 -1.5470  0.5735
  114OSM    H7G11942   5.274   2.582   9.604  0.4873  1.9546  1.2321
  114OSM    C8F11943   5.450   2.547   9.480 -0.4360 -0.4546 -0.2420
  114OSM    H8F11944   5.405   2.455   9.438 -0.2787  0.0795 -1.6315
  114OSM    H8G11945   5.558   2.529   9.497 -0.5260  0.0061  0.9258
  114OSM    C9F11946   5.420   2.668   9.391  0.6060 -0.5389  0.0048
  114OSM    H9F11947   5.435   2.769   9.432 -0.0084 -0.0555 -0.9425
  114OSM   C10F11948   5.388   2.649   9.265  0.1495  1.0374 -0.1360
  114OSM   H10F11949   5.356   2.741   9.213 -0.4141  0.9344  0.0229
  114OSM   C11F11950   5.374   2.521   9.178 -0.5005 -0.1747 -0.2277
  114OSM   H11F11951   5.308   2.554   9.095 -0.5047  3.4017  1.0305
  114OSM   H11G11952   5.313   2.444   9.230  0.1522 -1.4956 -1.3428
  114OSM   C12F11953   5.506   2.483   9.117 -0.2155  0.4123  0.5262
  114OSM   H12F11954   5.511   2.375   9.092 -2.7330  0.4868 -0.6624
  114OSM   H12G11955   5.594   2.514   9.177  0.0766  0.0580  0.2787
  114OSM   C13F11956   5.523   2.545   8.973 -0.0719  0.4551 -0.0368
  114OSM   H13F11957   5.630   2.566   8.949 -0.2566  0.2769 -1.0603
  114OSM   H13G11958   5.462   2.638   8.970 -3.7571 -1.7016  2.3260
  114OSM   C14F11959   5.467   2.452   8.858  0.0870 -0.5374 -0.5483
  114OSM   H14F11960   5.378   2.395   8.894 -1.2413  0.7732 -1.6021
  114OSM   H14G11961   5.551   2.380   8.849  1.2311  0.7700 -0.5450
  114OSM   C15F11962   5.445   2.517   8.724  0.0989  0.1931 -0.6962
  114OSM   H15F11963   5.523   2.592   8.699 -0.9202  1.2484 -0.7959
  114OSM   H15G11964   5.342   2.559   8.714 -0.7310 -1.6000 -0.1846
  114OSM   C16F11965   5.462   2.419   8.606  0.4643  0.4915 -0.4483
  114OSM   H16F11966   5.406   2.326   8.631  0.6529 -0.4037 -3.0447
  114OSM   H16G11967   5.565   2.381   8.597 -0.0653 -0.9084 -0.7663
  114OSM   C17F11968   5.400   2.473   8.473  0.6058 -0.3893  0.0922
  114OSM   H17F11969   5.311   2.536   8.494  2.5477  2.8847 -0.8132
  114OSM   H17G11970   5.365   2.393   8.405 -1.7074  1.4105 -0.9790
  114OSM   C18F11971   5.497   2.563   8.405 -0.0782 -0.0851 -0.4053
  114OSM   H18F11972   5.511   2.653   8.468 -1.4548  0.1624 -0.4264
  114OSM   H18G11973   5.456   2.589   8.305  1.5970  1.1798 -0.7907
  114OSM   H18H11974   5.592   2.508   8.392  0.9006  1.5830 -0.6064
  115OSM      N11975   2.756   0.186  10.484 -0.4125 -0.1582 -0.3703
  115OSM    C1511976   2.882   0.266  10.467 -0.7746 -0.7120 -0.4597
  115OSM   H15A11977   2.910   0.321  10.556 -2.1431 -0.5080 -0.1412
  115OSM   H15B11978   2.874   0.335  10.383 -0.6431 -1.4708 -1.1074
  115OSM   H15C11979   2.973   0.209  10.454  0.8121  1.0105  2.1361
  115OSM    C1411980   2.656   0.295  10.504  0.2241  0.3109 -0.1512
  115OSM   H14A11981   2.660   0.365  10.422  1.5877  0.0178 -0.3557
  115OSM   H14B11982   2.669   0.360  10.590  3.0201  0.3457 -0.4880
  115OSM   H14C11983   2.555   0.256  10.504 -0.4798  1.9048  2.3355
  115OSM    C1311984   2.725   0.121  10.348  0.2154  0.7669 -0.3723
  115OSM   H13A11985   2.623   0.088  10.342  0.1960  0.0668  2.3808
  115OSM   H13B11986   2.788   0.034  10.343  0.6525  0.7046  3.2941
  115OSM   H13C11987   2.747   0.189  10.267  1.4281  1.0708  0.1853
  115OSM    C1211988   2.758   0.084  10.593  0.0146  0.8584  0.1821
  115OSM   H12A11989   2.786   0.129  10.687 -0.0972 -1.7995  1.6008
  115OSM   H12B11990   2.824   0.001  10.573 -0.8830  0.2488 -0.3542
  115OSM    C1111991   2.613   0.023  10.608  0.4996  0.7771 -0.2494
  115OSM   H11A11992   2.578  -0.027  10.515  0.2203  0.9365 -0.2277
  115OSM   H11B11993   2.537   0.094  10.646  0.3710  0.8628 -0.6648
  115OSM      P11994   2.687  -0.221  10.705 -0.1983  0.0115  0.0465
  115OSM    O1311995   2.793  -0.198  10.610  0.3442  0.0648 -0.4155
  115OSM    O1411996   2.720  -0.266  10.838  0.1245 -0.3216 -0.8058
  115OSM    O1111997   2.560  -0.306  10.652 -0.3882  0.4225 -0.8247
  115OSM    O1211998   2.619  -0.075  10.714  0.1116  0.5925 -0.0566
  115OSM    C1S11999   2.520  -0.298  10.512 -0.3282  0.3259 -1.0502
  115OSM    H1S12000   2.593  -0.249  10.444 -0.4986  4.7527  1.5737
  115OSM    H1T12001   2.428  -0.235  10.515  0.1147  0.9507  0.0438
  115OSM     NF12002   2.435  -0.422  10.316  0.6716  0.3131 -1.0108
  115OSM    HNF12003   2.338  -0.444  10.311  0.9219 -0.5853 -2.3640
  115OSM    C2S12004   2.494  -0.439  10.450  0.3125  0.8656  0.2195
  115OSM    H2S12005   2.592  -0.486  10.426 -1.4578 -1.5370 -3.0611
  115OSM    C3S12006   2.414  -0.526  10.556  0.3249  0.2367  0.7040
  115OSM    H3S12007   2.320  -0.471  10.579  1.4396  1.5781  2.2976
  115OSM     O312008   2.469  -0.556  10.689  0.8190 -0.0325  0.0271
  115OSM    HO312009   2.518  -0.475  10.703 -1.1264  1.8448 -2.8514
  115OSM    C4S12010   2.380  -0.655  10.491 -0.5779 -0.4263  0.1544
  115OSM    H4S12011   2.276  -0.664  10.456 -0.1274 -1.2597 -1.0345
  115OSM    C5S12012   2.476  -0.747  10.465 -0.8990  0.0017  0.5546
  115OSM    H5S12013   2.578  -0.747  10.505 -0.2686 -1.5438 -0.9337
  115OSM    C6S12014   2.448  -0.877  10.390  0.4147 -0.1558  0.1403
  115OSM    H6S12015   2.391  -0.948  10.453 -0.2615  0.1413 -0.1174
  115OSM    H6T12016   2.545  -0.924  10.365  0.6370  1.2854 -2.0629
  115OSM    C7S12017   2.369  -0.853  10.257 -0.3548 -0.2142  0.2147
  115OSM    H7S12018   2.269  -0.814  10.284 -0.0861 -0.6160  1.9296
  115OSM    H7T12019   2.344  -0.951  10.210 -1.1474  0.3111 -0.4949
  115OSM    C8S12020   2.440  -0.760  10.154 -0.5207 -0.3288 -0.0460
  115OSM    H8S12021   2.550  -0.767  10.160 -0.3503  1.0596 -0.9984
  115OSM    H8T12022   2.411  -0.654  10.172 -1.9763 -0.7629  0.2700
  115OSM    C9S12023   2.401  -0.790  10.004 -1.2144  0.2244  0.1047
  115OSM    H9S12024   2.291  -0.774   9.997 -1.3159 -0.4335  0.0821
  115OSM    H9T12025   2.417  -0.897   9.978 -1.4614 -0.3864  2.2715
  115OSM   C10S12026   2.475  -0.702   9.901  0.6795  0.7472 -0.6091
  115OSM   H10S12027   2.585  -0.720   9.906  0.3354 -1.8454 -0.9653
  115OSM   H10T12028   2.451  -0.596   9.923  1.5677  1.1910 -1.6581
  115OSM   C11S12029   2.455  -0.735   9.750 -0.5368  0.7965  0.9409
  115OSM   H11S12030   2.345  -0.749   9.745 -0.4275  0.4050 -1.2364
  115OSM   H11T12031   2.505  -0.825   9.709 -0.7813  1.4671 -0.9183
  115OSM   C12S12032   2.483  -0.625   9.646  0.5509  0.7237  0.3529
  115OSM   H12S12033   2.591  -0.597   9.642  0.7309 -0.0675 -2.3117
  115OSM   H12T12034   2.423  -0.536   9.676  1.9200  1.9591 -0.4639
  115OSM   C13S12035   2.452  -0.672   9.501  0.2840 -0.1534 -0.0882
  115OSM   H13S12036   2.457  -0.582   9.436 -0.0187 -0.1795 -0.1499
  115OSM   H13T12037   2.349  -0.713   9.493 -0.7912  2.2272  0.6122
  115OSM   C14S12038   2.556  -0.769   9.450 -0.2866 -0.2595 -0.1086
  115OSM   H14S12039   2.564  -0.862   9.510  1.8552 -0.8873 -1.2668
  115OSM   H14T12040   2.654  -0.720   9.471 -0.5025 -0.7549  2.3268
  115OSM   C15S12041   2.557  -0.783   9.296 -0.4216 -0.1863  0.6822
  115OSM   H15S12042   2.547  -0.689   9.238  1.0857 -0.4984 -0.1356
  115OSM   H15T12043   2.473  -0.851   9.268  0.4600 -1.6503  1.4447
  115OSM   C16S12044   2.676  -0.865   9.231 -0.9302  0.0571 -0.0455
  115OSM   H16S12045   2.655  -0.972   9.255  0.8106 -0.4393 -0.6108
  115OSM   H16T12046   2.772  -0.839   9.280 -0.5229  1.6847 -1.6190
  115OSM   C17S12047   2.670  -0.848   9.076  0.4052 -0.0617  0.9467
  115OSM   H17S12048   2.750  -0.905   9.023 -1.3247 -0.1500 -1.7433
  115OSM   H17T12049   2.684  -0.741   9.050  0.9141 -0.4524 -0.5145
  115OSM   C18S12050   2.536  -0.904   9.010  0.6947 -0.0842 -0.4986
  115OSM   H18S12051   2.534  -0.892   8.899  1.4672 -0.6452 -0.5747
  115OSM   H18T12052   2.442  -0.854   9.044 -1.0301 -2.0266 -2.1316
  115OSM   H18U12053   2.534  -1.011   9.038  0.2680 -0.0296 -0.3093
  115OSM    C1F12054   2.472  -0.347  10.212 -0.1984 -0.4026  0.1192
  115OSM     OF12055   2.570  -0.271  10.223 -0.1276  0.0718  0.0282
  115OSM    C2F12056   2.381  -0.347  10.087 -0.3383  0.2525  0.3783
  115OSM    H2F12057   2.279  -0.321  10.124 -0.7547 -1.2081  0.3249
  115OSM    H2G12058   2.382  -0.452  10.049 -0.0715  0.2899  0.2798
  115OSM    C3F12059   2.434  -0.245   9.979 -0.1013  0.3581 -0.8295
  115OSM    H3F12060   2.544  -0.252   9.970 -0.0761 -0.6137 -0.0458
  115OSM    H3G12061   2.405  -0.142  10.007 -0.6858  0.4860 -1.8608
  115OSM    C4F12062   2.377  -0.274   9.841  0.2458  0.1970 -0.2310
  115OSM    H4F12063   2.267  -0.269   9.847  0.1955 -0.5852 -0.4632
  115OSM    H4G12064   2.403  -0.378   9.811 -1.1335 -0.0054 -0.7825
  115OSM    C5F12065   2.450  -0.177   9.742 -0.2962 -0.0915  0.1347
  115OSM    H5F12066   2.548  -0.228   9.725 -1.2883 -1.6686 -1.0969
  115OSM    H5G12067   2.454  -0.080   9.796  0.0439  0.3662 -0.7026
  115OSM    C6F12068   2.363  -0.156   9.616 -0.2691 -0.3103 -0.1365
  115OSM    H6F12069   2.412  -0.072   9.563 -0.3625  0.0973  0.4149
  115OSM    H6G12070   2.257  -0.132   9.641 -0.4059  0.2439 -1.2076
  115OSM    C7F12071   2.336  -0.283   9.533  0.4682  0.5891 -1.0444
  115OSM    H7F12072   2.287  -0.364   9.591  1.2054 -0.0564 -1.3130
  115OSM    H7G12073   2.435  -0.312   9.492  0.6535  0.5157 -0.5505
  115OSM    C8F12074   2.237  -0.255   9.417 -0.3717  0.1836  0.9192
  115OSM    H8F12075   2.293  -0.187   9.348 -1.3848  1.0218  0.8845
  115OSM    H8G12076   2.145  -0.203   9.451 -0.8785  0.0892 -0.2604
  115OSM    C9F12077   2.193  -0.380   9.335 -0.5850  0.6428  0.2915
  115OSM    H9F12078   2.099  -0.426   9.367 -0.3930 -1.2562 -1.6680
  115OSM   C10F12079   2.231  -0.419   9.208 -0.3241  0.0508 -0.8643
  115OSM   H10F12080   2.188  -0.511   9.166  0.7211  0.2664 -2.4715
  115OSM   C11F12081   2.333  -0.343   9.120  0.3331  1.3024  0.4666
  115OSM   H11F12082   2.348  -0.238   9.154 -2.4722  2.9887 -2.8619
  115OSM   H11G12083   2.283  -0.340   9.021 -0.9895 -0.2112  1.0440
  115OSM   C12F12084   2.474  -0.396   9.110 -0.6600  0.5253 -1.2420
  115OSM   H12F12085   2.480  -0.487   9.047 -1.0118  0.3698 -1.0575
  115OSM   H12G12086   2.499  -0.420   9.216 -2.3949  0.0528 -0.9130
  115OSM   C13F12087   2.582  -0.297   9.081  0.9401  0.5963 -0.3695
  115OSM   H13F12088   2.684  -0.341   9.083  0.4683 -0.5132  0.2611
  115OSM   H13G12089   2.576  -0.214   9.154 -0.6711  1.8084 -1.8010
  115OSM   C14F12090   2.571  -0.239   8.938  0.2354 -0.3273  0.2452
  115OSM   H14F12091   2.465  -0.208   8.930  0.2083 -0.4481  0.1389
  115OSM   H14G12092   2.594  -0.312   8.858  1.5128  1.0195 -0.6799
  115OSM   C15F12093   2.647  -0.110   8.909  0.3525  0.2627  0.0738
  115OSM   H15F12094   2.755  -0.122   8.933  0.0591  0.2565  1.4695
  115OSM   H15G12095   2.621  -0.036   8.988 -1.6352 -1.2521  0.9038
  115OSM   C16F12096   2.646  -0.040   8.767  0.3464 -0.1843 -0.6857
  115OSM   H16F12097   2.660  -0.121   8.692  1.1917  0.6508 -1.4542
  115OSM   H16G12098   2.740   0.016   8.749 -0.6774  2.3118  1.1089
  115OSM   C17F12099   2.514   0.035   8.730  0.2746  0.5772  0.6512
  115OSM   H17F12100   2.494   0.113   8.807  1.2622  0.5910  0.9148
  115OSM   H17G12101   2.431  -0.038   8.741 -1.0065  1.9230  0.2438
  115OSM   C18F12102   2.524   0.092   8.585  0.1397  0.2765  0.0098
  115OSM   H18F12103   2.525   0.001   8.521 -4.5707 -0.1743  0.1713
  115OSM   H18G12104   2.607   0.162   8.566 -0.0325  0.2173 -1.0031
  115OSM   H18H12105   2.432   0.146   8.554  0.9480  1.9461  0.3895
  116OSM      N12106   4.072   2.949  11.079  0.8906  0.4319 -0.0576
  116OSM    C1512107   3.974   2.923  11.198 -0.3073  0.4194  0.4068
  116OSM   H15A12108   3.916   3.013  11.210  0.4143  1.1676 -1.3760
  116OSM   H15B12109   4.016   2.880  11.288 -1.9751  3.2015  2.6876
  116OSM   H15C12110   3.913   2.840  11.164  1.0731 -0.7574  0.6968
  116OSM    C1412111   4.158   2.834  11.081  0.0813  0.7292 -0.1528
  116OSM   H14A12112   4.096   2.747  11.096 -1.0816  1.7241  1.0009
  116OSM   H14B12113   4.224   2.837  11.167 -0.4291  0.0460  0.2684
  116OSM   H14C12114   4.206   2.829  10.984  1.6370 -0.8860  0.6313
  116OSM    C1312115   3.988   2.966  10.960  0.0272  0.1861 -0.0870
  116OSM   H13A12116   3.926   2.881  10.936  1.7005 -0.6411 -1.7463
  116OSM   H13B12117   4.049   2.997  10.877 -1.2300 -0.5759 -1.3238
  116OSM   H13C12118   3.922   3.051  10.963  2.4061  2.1420  1.0221
  116OSM    C1212119   4.150   3.079  11.093 -0.7173 -0.1117 -0.6430
  116OSM   H12A12120   4.191   3.102  11.190 -1.7292  1.2372 -0.4963
  116OSM   H12B12121   4.079   3.161  11.091  0.2362  0.9305  2.4431
  116OSM    C1112122   4.257   3.112  10.983  0.0368  0.8089  0.6328
  116OSM   H11A12123   4.349   3.049  10.986 -1.4984 -1.5841  0.2968
  116OSM   H11B12124   4.303   3.208  11.015  2.5778  0.2397 -1.0229
  116OSM      P12125   4.132   3.241  10.791  0.2166 -0.3361  0.0825
  116OSM    O1312126   3.992   3.234  10.838 -0.3205 -0.0168 -0.4124
  116OSM    O1412127   4.211   3.350  10.839 -0.1349 -0.0058 -0.0667
  116OSM    O1112128   4.137   3.224  10.634 -0.2557  0.1541  0.0558
  116OSM    O1212129   4.202   3.112  10.847  0.0367 -0.3833  0.4140
  116OSM    C1S12130   4.254   3.180  10.562 -0.0505  0.7425 -0.1019
  116OSM    H1S12131   4.321   3.126  10.632 -2.1752 -2.0849 -0.0537
  116OSM    H1T12132   4.319   3.264  10.532  1.9974 -0.1431  1.5732
  116OSM     NF12133   4.350   3.091  10.356  0.1534  0.1885  0.9233
  116OSM    HNF12134   4.358   3.139  10.269  1.1736  1.2892  1.6007
  116OSM    C2S12135   4.220   3.093  10.431 -1.4287 -0.1686 -0.2789
  116OSM    H2S12136   4.207   2.994  10.479  2.0510  0.0518  1.4659
  116OSM    C3S12137   4.107   3.146  10.344  0.6084 -0.6731 -0.1509
  116OSM    H3S12138   4.131   3.248  10.305  0.4318 -0.5658  0.0166
  116OSM     O312139   3.987   3.170  10.423  0.2417  0.4006 -0.2359
  116OSM    HO312140   4.003   3.141  10.513 -2.3254  0.2698  0.2346
  116OSM    C4S12141   4.078   3.046  10.233 -0.5358  0.3001 -0.2751
  116OSM    H4S12142   4.164   3.056  10.166  1.2938  0.0895  1.8910
  116OSM    C5S12143   3.989   2.945  10.211  0.9510 -0.8060 -0.6897
  116OSM    H5S12144   3.925   2.918  10.297  0.9017 -1.7496 -1.0136
  116OSM    C6S12145   3.994   2.859  10.085  0.4588  0.1689  0.1654
  116OSM    H6S12146   3.978   2.754  10.116  0.2893  0.7528  2.2500
  116OSM    H6T12147   4.091   2.877  10.033  0.6172  2.1570  1.0476
  116OSM    C7S12148   3.881   2.883   9.985 -0.6731 -0.6087 -0.8721
  116OSM    H7S12149   3.881   2.986   9.944 -1.7674 -0.0036  0.5884
  116OSM    H7T12150   3.777   2.879  10.021 -0.6988 -0.5658 -0.9417
  116OSM    C8S12151   3.882   2.771   9.876  0.0058  0.3944 -0.5944
  116OSM    H8S12152   3.843   2.677   9.920  1.3732 -0.0072 -0.1756
  116OSM    H8T12153   3.982   2.748   9.833  0.0453 -1.0695  0.1945
  116OSM    C9S12154   3.784   2.790   9.758  1.1284  0.3047  0.2707
  116OSM    H9S12155   3.814   2.727   9.671  0.9119  0.7125 -0.1024
  116OSM    H9T12156   3.815   2.890   9.722  0.0297 -0.1012 -2.0516
  116OSM   C10S12157   3.635   2.783   9.788  0.2531 -0.0326  0.4870
  116OSM   H10S12158   3.622   2.886   9.828 -2.5127  0.0568 -0.4204
  116OSM   H10T12159   3.596   2.717   9.869 -1.8034 -1.3689 -1.4843
  116OSM   C11S12160   3.549   2.768   9.665 -0.3439  0.7554 -0.1387
  116OSM   H11S12161   3.446   2.755   9.703  0.1755 -1.1633  0.7469
  116OSM   H11T12162   3.590   2.685   9.603  0.6280  3.5981 -3.6463
  116OSM   C12S12163   3.553   2.896   9.588 -0.5666 -0.5217 -0.4226
  116OSM   H12S12164   3.656   2.925   9.561 -1.0510 -0.2651 -2.1312
  116OSM   H12T12165   3.508   2.970   9.658 -1.2844 -0.4910 -0.9045
  116OSM   C13S12166   3.469   2.903   9.461 -0.1788  0.1734  0.1385
  116OSM   H13S12167   3.463   3.008   9.423 -0.5176  0.2683  0.4561
  116OSM   H13T12168   3.366   2.867   9.479 -0.1949 -1.2350 -2.2498
  116OSM   C14S12169   3.530   2.820   9.350  0.6001  0.1416  0.4041
  116OSM   H14S12170   3.551   2.723   9.401  1.2008  1.9502  3.8657
  116OSM   H14T12171   3.626   2.874   9.336  1.9565 -1.3511  3.0957
  116OSM   C15S12172   3.449   2.824   9.218 -0.4398  0.7301  0.4337
  116OSM   H15S12173   3.424   2.929   9.194 -2.1303  0.4416  0.8117
  116OSM   H15T12174   3.356   2.766   9.230  0.3805 -0.8566 -0.5353
  116OSM   C16S12175   3.512   2.766   9.097  0.1566 -0.1006 -0.0347
  116OSM   H16S12176   3.530   2.660   9.128  0.9730  0.3814  1.2079
  116OSM   H16T12177   3.612   2.810   9.076 -0.3090  0.5214 -0.9758
  116OSM   C17S12178   3.416   2.768   8.970 -0.0910  1.3662 -0.0340
  116OSM   H17S12179   3.313   2.736   8.997 -0.4982 -0.7234 -3.4237
  116OSM   H17T12180   3.458   2.703   8.891 -0.2737  0.7067  0.4066
  116OSM   C18S12181   3.401   2.911   8.911  0.2096  0.1870  1.0017
  116OSM   H18S12182   3.362   2.980   8.989  4.8246  3.3958  0.8815
  116OSM   H18T12183   3.342   2.919   8.817 -1.1529 -1.7691  1.6404
  116OSM   H18U12184   3.495   2.968   8.889  0.0565  0.0222 -0.1824
  116OSM    C1F12185   4.456   3.022  10.404 -0.3517 -0.5168 -0.3350
  116OSM     OF12186   4.437   2.950  10.502 -0.1003 -0.4375  0.3973
  116OSM    C2F12187   4.585   3.048  10.337  0.2039  0.6769  0.3534
  116OSM    H2F12188   4.664   3.092  10.402  1.0338 -0.5946  0.2345
  116OSM    H2G12189   4.576   3.118  10.251  3.6405  1.3893  0.4430
  116OSM    C3F12190   4.641   2.912  10.290  0.1643  0.1291 -0.2007
  116OSM    H3F12191   4.658   2.852  10.383  0.7062  1.3929  0.5361
  116OSM    H3G12192   4.737   2.927  10.237 -0.3854  1.3678 -0.8663
  116OSM    C4F12193   4.556   2.823  10.189 -0.3080  0.5647  0.2407
  116OSM    H4F12194   4.460   2.791  10.233 -0.5462 -1.0527 -1.3396
  116OSM    H4G12195   4.616   2.741  10.144 -1.1208 -0.2877  0.6806
  116OSM    C5F12196   4.505   2.893  10.066  0.4034 -0.4352  0.9520
  116OSM    H5F12197   4.593   2.935  10.013 -0.0172 -0.2896  0.3534
  116OSM    H5G12198   4.443   2.980  10.097  0.2029 -0.8627  1.7873
  116OSM    C6F12199   4.420   2.814   9.962 -0.4635 -0.2691 -0.3649
  116OSM    H6F12200   4.328   2.779  10.014  0.0780  1.2913  1.7775
  116OSM    H6G12201   4.488   2.732   9.930 -2.0337 -2.1361  0.7987
  116OSM    C7F12202   4.370   2.900   9.847 -0.8065 -0.4350 -0.1568
  116OSM    H7F12203   4.457   2.939   9.789  0.0475  0.9700  1.9318
  116OSM    H7G12204   4.319   2.988   9.893 -0.1855  1.2706 -2.5061
  116OSM    C8F12205   4.272   2.827   9.760 -0.0533 -0.0634  0.2883
  116OSM    H8F12206   4.239   2.907   9.690  0.2395  0.9191  1.2388
  116OSM    H8G12207   4.177   2.827   9.817  0.6442  0.0121  1.4851
  116OSM    C9F12208   4.318   2.705   9.684 -0.7719  0.8931 -0.5972
  116OSM    H9F12209   4.427   2.693   9.683 -0.9679 -1.5045  0.3717
  116OSM   C10F12210   4.236   2.625   9.615  0.3174  0.0618  0.2731
  116OSM   H10F12211   4.272   2.534   9.566  0.4141 -0.1744  0.7784
  116OSM   C11F12212   4.085   2.645   9.616 -0.1922  0.3381  0.0570
  116OSM   H11F12213   4.054   2.745   9.655  0.9552  0.0418  1.8825
  116OSM   H11G12214   4.055   2.563   9.684 -1.7308 -1.0325 -2.1626
  116OSM   C12F12215   4.043   2.622   9.470 -0.1951 -0.0004 -0.3728
  116OSM   H12F12216   4.099   2.535   9.432  1.3645  0.1230  1.4635
  116OSM   H12G12217   4.077   2.707   9.407  1.9026 -0.1343  0.4760
  116OSM   C13F12218   3.891   2.603   9.461  0.6951 -0.7221 -0.3454
  116OSM   H13F12219   3.857   2.705   9.489 -0.7334 -1.3751  0.3790
  116OSM   H13G12220   3.853   2.538   9.542  1.8774 -0.5629  0.3476
  116OSM   C14F12221   3.848   2.563   9.315 -0.1593  0.2289  0.4591
  116OSM   H14F12222   3.738   2.544   9.318 -0.2607  0.8229  0.8025
  116OSM   H14G12223   3.895   2.467   9.287 -1.4152 -0.3529  0.2938
  116OSM   C15F12224   3.889   2.662   9.202  0.1353  0.1262  0.0281
  116OSM   H15F12225   4.000   2.656   9.202  0.0694 -2.1742 -0.6899
  116OSM   H15G12226   3.842   2.761   9.218 -0.9576  0.1937 -3.0182
  116OSM   C16F12227   3.841   2.619   9.063 -0.9757  0.6312 -0.1471
  116OSM   H16F12228   3.740   2.573   9.070 -0.4693 -0.1781  3.5125
  116OSM   H16G12229   3.900   2.526   9.044 -0.1422  1.3355 -1.1100
  116OSM   C17F12230   3.862   2.726   8.956  0.3824 -0.1194 -0.6690
  116OSM   H17F12231   3.972   2.744   8.947  0.0023  2.2089 -1.2222
  116OSM   H17G12232   3.815   2.823   8.984  0.3054  0.6526 -3.2469
  116OSM   C18F12233   3.823   2.693   8.814 -0.9239 -0.0710  0.4792
  116OSM   H18F12234   3.846   2.773   8.740 -1.4989  0.6312  1.0436
  116OSM   H18G12235   3.712   2.689   8.806 -0.9831  1.8565 -0.2399
  116OSM   H18H12236   3.869   2.600   8.774 -1.0670 -0.9748  2.3307
  117OSM      N12237   2.203   4.497  10.732  0.3778 -0.5722  0.0494
  117OSM    C1512238   2.261   4.410  10.839 -0.1499 -0.5276 -0.0681
  117OSM   H15A12239   2.295   4.314  10.803  1.0338  0.1424 -0.8028
  117OSM   H15B12240   2.191   4.392  10.919  0.0418  0.4136  0.3215
  117OSM   H15C12241   2.341   4.463  10.889 -1.2314  0.4459  0.6644
  117OSM    C1412242   2.313   4.547  10.641  0.2273 -0.2232 -0.2372
  117OSM   H14A12243   2.282   4.612  10.561  1.7022  1.3785  0.4219
  117OSM   H14B12244   2.364   4.470  10.585  1.8651  1.1693 -0.7441
  117OSM   H14C12245   2.387   4.598  10.701 -0.1432  0.0211  0.0175
  117OSM    C1312246   2.091   4.433  10.655  0.3116  0.2086  0.6304
  117OSM   H13A12247   2.042   4.496  10.583 -0.5685 -1.7132 -0.5556
  117OSM   H13B12248   2.013   4.387  10.714 -1.7011  1.0303 -1.2339
  117OSM   H13C12249   2.137   4.351  10.600  0.3131  1.5064 -1.4128
  117OSM    C1212250   2.143   4.617  10.804  0.1141  0.1658 -0.4538
  117OSM   H12A12251   2.073   4.581  10.877  0.1216  1.0170 -0.0226
  117OSM   H12B12252   2.078   4.671  10.737  0.7075  3.2844  1.3026
  117OSM    C1112253   2.240   4.721  10.873 -0.8116  0.2616  0.5310
  117OSM   H11A12254   2.176   4.782  10.940 -0.2158  1.4650  0.0449
  117OSM   H11B12255   2.262   4.780  10.782  0.2010 -1.2742 -0.2602
  117OSM      P12256   2.486   4.738  10.942  0.2132  0.2450  0.3280
  117OSM    O1312257   2.470   4.844  11.044  0.0957  0.2606  0.0925
  117OSM    O1412258   2.598   4.644  10.965 -0.5692 -0.1223  0.5704
  117OSM    O1112259   2.492   4.802  10.792  0.3708  0.2621  0.0649
  117OSM    O1212260   2.349   4.659  10.941 -0.0086  0.4224  0.0073
  117OSM    C1S12261   2.599   4.768  10.702 -0.7023 -0.0874 -0.1496
  117OSM    H1S12262   2.598   4.659  10.681 -0.7778 -0.4995  1.8487
  117OSM    H1T12263   2.698   4.794  10.746 -0.1605 -1.7575 -0.3160
  117OSM     NF12264   2.683   4.805  10.464 -0.4492  0.2466  0.0713
  117OSM    HNF12265   2.762   4.865  10.449  0.2060 -0.2737  1.2441
  117OSM    C2S12266   2.590   4.852  10.567  0.2664 -0.2242 -0.0374
  117OSM    H2S12267   2.486   4.841  10.529  1.0648 -0.9195 -2.1617
  117OSM    C3S12268   2.609   5.009  10.596 -0.7741 -0.5242 -0.5009
  117OSM    H3S12269   2.715   5.024  10.626 -1.1485  1.7786 -0.1158
  117OSM     O312270   2.521   5.047  10.700 -0.3770 -0.6338  0.4714
  117OSM    HO312271   2.495   4.960  10.731  1.2930 -2.8750 -3.5989
  117OSM    C4S12272   2.586   5.093  10.468  0.2003 -0.3142 -1.1569
  117OSM    H4S12273   2.660   5.061  10.393  0.4398 -1.4745 -0.4583
  117OSM    C5S12274   2.501   5.192  10.446  0.0355  0.2251  0.0801
  117OSM    H5S12275   2.439   5.238  10.523  0.6393 -0.0252  0.7254
  117OSM    C6S12276   2.490   5.261  10.312  0.1359 -0.1007  0.5712
  117OSM    H6S12277   2.530   5.365  10.312  1.9758 -0.6741 -2.6937
  117OSM    H6T12278   2.384   5.262  10.277  0.3593 -1.6226 -0.2140
  117OSM    C7S12279   2.562   5.197  10.195 -0.4691 -0.5842  0.1464
  117OSM    H7S12280   2.508   5.107  10.161  0.1115 -0.7875 -0.2533
  117OSM    H7T12281   2.666   5.165  10.221 -0.4464 -0.3265  0.3759
  117OSM    C8S12282   2.580   5.293  10.078 -0.3546  0.3429  0.4244
  117OSM    H8S12283   2.638   5.376  10.124  1.4121 -0.5271 -0.1339
  117OSM    H8T12284   2.481   5.331  10.046  0.3907  0.7378 -1.5425
  117OSM    C9S12285   2.652   5.232   9.957 -0.1617  0.4896  0.8038
  117OSM    H9S12286   2.592   5.144   9.925 -1.7876  1.5270  0.8974
  117OSM    H9T12287   2.753   5.198   9.991 -1.0276 -2.0107  1.0693
  117OSM   C10S12288   2.648   5.331   9.840  0.3897 -0.6356  0.0573
  117OSM   H10S12289   2.716   5.413   9.872  0.6091 -0.9279  0.3507
  117OSM   H10T12290   2.547   5.372   9.820  1.7750  2.6451 -1.1239
  117OSM   C11S12291   2.711   5.264   9.713  0.0107 -0.4246 -0.5624
  117OSM   H11S12292   2.792   5.197   9.748  1.1956  1.5039  0.5229
  117OSM   H11T12293   2.767   5.334   9.647  1.0102 -0.5641  0.1224
  117OSM   C12S12294   2.604   5.191   9.637  0.2137  0.0273 -0.2878
  117OSM   H12S12295   2.534   5.262   9.589  0.1146 -0.1870 -0.4646
  117OSM   H12T12296   2.539   5.130   9.704 -0.8053  1.2216 -0.1569
  117OSM   C13S12297   2.664   5.087   9.535  0.9158 -0.0879  0.2826
  117OSM   H13S12298   2.585   5.011   9.520  2.0199 -0.7628 -2.9018
  117OSM   H13T12299   2.753   5.039   9.583  1.6848 -0.3656 -1.3302
  117OSM   C14S12300   2.706   5.149   9.397  0.3914  0.2445 -0.0977
  117OSM   H14S12301   2.738   5.063   9.334 -1.4089  0.8003 -1.8759
  117OSM   H14T12302   2.798   5.210   9.408 -1.0834  2.9958 -1.8792
  117OSM   C15S12303   2.587   5.207   9.317 -0.3340  0.3965 -0.1445
  117OSM   H15S12304   2.557   5.299   9.373  1.7027  0.3716  1.0728
  117OSM   H15T12305   2.507   5.130   9.316  0.3515 -0.3251 -0.7127
  117OSM   C16S12306   2.640   5.255   9.175 -0.1454  0.0518 -0.0033
  117OSM   H16S12307   2.690   5.165   9.135  1.3321  0.1175  1.5745
  117OSM   H16T12308   2.721   5.331   9.182  0.7119 -0.8299 -0.2670
  117OSM   C17S12309   2.521   5.310   9.084 -0.7347 -0.3904 -0.4341
  117OSM   H17S12310   2.570   5.314   8.984  0.1753 -0.2121  0.0036
  117OSM   H17T12311   2.495   5.412   9.119 -2.0666 -1.1505  0.8547
  117OSM   C18S12312   2.398   5.223   9.075  0.4315  0.6180  0.3217
  117OSM   H18S12313   2.328   5.249   9.157 -1.5531 -0.2577 -1.0130
  117OSM   H18T12314   2.417   5.113   9.080 -0.0820  0.5855  2.2775
  117OSM   H18U12315   2.351   5.257   8.980  1.3897  1.0253 -0.0191
  117OSM    C1F12316   2.677   4.685  10.411 -0.3440 -0.5778  0.1916
  117OSM     OF12317   2.596   4.601  10.444 -0.3209  0.0252  0.7670
  117OSM    C2F12318   2.786   4.648  10.313  0.4282  0.0824  0.2351
  117OSM    H2F12319   2.818   4.545  10.340  2.1905  0.6795  0.5161
  117OSM    H2G12320   2.873   4.716  10.301  1.7708 -1.8081 -1.4640
  117OSM    C3F12321   2.721   4.639  10.175  0.3681  0.4963  1.2807
  117OSM    H3F12322   2.640   4.563  10.185  1.3576 -1.2353 -2.1393
  117OSM    H3G12323   2.797   4.606  10.101  1.0392  0.4515  1.9771
  117OSM    C4F12324   2.669   4.768  10.111 -0.5636  0.1791 -0.3079
  117OSM    H4F12325   2.598   4.823  10.176 -0.8893 -0.9596  0.3270
  117OSM    H4G12326   2.613   4.737  10.020 -2.3550  1.6871  0.2243
  117OSM    C5F12327   2.786   4.868  10.077  0.2844  0.3153 -0.4096
  117OSM    H5F12328   2.859   4.837  10.155 -0.1551 -0.8929 -0.4600
  117OSM    H5G12329   2.752   4.968  10.113  0.8561 -0.2661  1.8969
  117OSM    C6F12330   2.840   4.868   9.935  0.5719  0.6346  0.2590
  117OSM    H6F12331   2.916   4.946   9.913 -1.1544  1.9875 -1.2112
  117OSM    H6G12332   2.754   4.900   9.873  2.4561  1.2923 -2.1737
  117OSM    C7F12333   2.872   4.721   9.884 -0.4081 -0.5651  0.0755
  117OSM    H7F12334   2.778   4.662   9.881 -0.6549 -0.1929  0.4982
  117OSM    H7G12335   2.936   4.674   9.962  1.8262 -0.0571 -1.3599
  117OSM    C8F12336   2.931   4.711   9.741 -0.3548 -0.2965  0.2062
  117OSM    H8F12337   3.041   4.719   9.758  0.1678 -0.4249 -2.7000
  117OSM    H8G12338   2.906   4.806   9.690  1.5888 -1.2623 -2.7903
  117OSM    C9F12339   2.892   4.588   9.675  0.4735 -0.5875  0.3439
  117OSM    H9F12340   2.944   4.495   9.704  1.9928 -0.1158 -0.7855
  117OSM   C10F12341   2.794   4.574   9.583  0.0050 -0.1794  1.2192
  117OSM   H10F12342   2.763   4.476   9.545 -1.2503  0.5761  0.1905
  117OSM   C11F12343   2.704   4.689   9.525  0.1665  0.2785 -0.7141
  117OSM   H11F12344   2.695   4.764   9.607  0.2339 -1.3331  0.8277
  117OSM   H11G12345   2.605   4.647   9.497  0.3446 -0.0289 -0.8844
  117OSM   C12F12346   2.751   4.754   9.393 -0.3014 -0.3451  0.4727
  117OSM   H12F12347   2.858   4.781   9.405  0.1028 -1.5759 -0.2015
  117OSM   H12G12348   2.691   4.843   9.362  1.9415  0.6108 -1.4610
  117OSM   C13F12349   2.746   4.658   9.269  0.7191 -0.7648 -0.9821
  117OSM   H13F12350   2.642   4.618   9.260 -0.2222  1.0256  0.9742
  117OSM   H13G12351   2.814   4.570   9.276 -0.9741 -2.3211 -2.8024
  117OSM   C14F12352   2.772   4.730   9.142 -0.6410 -0.1636  0.2212
  117OSM   H14F12353   2.880   4.742   9.120 -0.3937 -2.7597 -0.3003
  117OSM   H14G12354   2.726   4.829   9.158  0.2926  0.6944 -2.0390
  117OSM   C15F12355   2.711   4.669   9.014  0.5487  0.5957 -0.4296
  117OSM   H15F12356   2.610   4.628   9.035  1.3867 -0.4510  2.0004
  117OSM   H15G12357   2.786   4.592   8.986  1.7846  1.6096  0.0024
  117OSM   C16F12358   2.704   4.775   8.895 -0.3698  0.8415 -0.5657
  117OSM   H16F12359   2.789   4.846   8.895 -2.0076  2.9218  0.4145
  117OSM   H16G12360   2.616   4.838   8.920  2.5510  6.5924 -3.0456
  117OSM   C17F12361   2.693   4.712   8.756  0.0852 -0.5738  0.8412
  117OSM   H17F12362   2.786   4.664   8.719  0.2958  0.5737 -0.1668
  117OSM   H17G12363   2.699   4.789   8.676 -0.4824 -2.9285 -1.5983
  117OSM   C18F12364   2.569   4.627   8.739  0.1153  0.2604 -0.4454
  117OSM   H18F12365   2.577   4.533   8.797 -2.7187 -0.3034 -0.8543
  117OSM   H18G12366   2.550   4.596   8.634  0.3292 -0.1819 -0.3528
  117OSM   H18H12367   2.483   4.684   8.780  0.7064  0.7222  0.1897
  118OSM      N12368   3.037   5.695  11.220 -0.2490 -0.8166  1.0814
  118OSM    C1512369   3.143   5.795  11.253  0.2488 -0.4391 -0.0755
  118OSM   H15A12370   3.228   5.778  11.188  0.6286 -0.8822  0.5285
  118OSM   H15B12371   3.176   5.796  11.356 -1.2586  0.1770  0.4416
  118OSM   H15C12372   3.117   5.898  11.231 -0.2952 -0.0541  2.0875
  118OSM    C1412373   3.079   5.564  11.270  0.0621  0.1042  0.1904
  118OSM   H14A12374   3.112   5.569  11.372  1.0750  1.4199 -0.1722
  118OSM   H14B12375   3.162   5.525  11.213 -1.1124 -1.3897 -0.5437
  118OSM   H14C12376   2.995   5.499  11.252 -0.9337  1.6124 -0.8687
  118OSM    C1312377   2.912   5.737  11.300 -0.6091 -0.6894  0.1630
  118OSM   H13A12378   2.823   5.678  11.286 -1.3323 -0.1916  2.2512
  118OSM   H13B12379   2.884   5.840  11.286 -0.4176 -0.2452  2.5201
  118OSM   H13C12380   2.934   5.727  11.406  2.0057  2.3020  0.0235
  118OSM    C1212381   3.008   5.689  11.071 -0.1038  0.1846  0.1934
  118OSM   H12A12382   2.933   5.758  11.036  0.2175  1.1064  1.2703
  118OSM   H12B12383   2.961   5.592  11.057  2.1946 -0.8752 -0.7837
  118OSM    C1112384   3.136   5.692  10.978  0.4036  0.0881 -0.2426
  118OSM   H11A12385   3.180   5.795  10.978  0.6715 -0.0205  0.2996
  118OSM   H11B12386   3.085   5.666  10.883 -0.8256  1.1929  0.0830
  118OSM      P12387   3.381   5.611  10.953 -0.0479 -0.2218 -0.0219
  118OSM    O1312388   3.445   5.722  11.020 -0.3311  0.5750 -0.0150
  118OSM    O1412389   3.444   5.474  10.958  0.7436  0.6228 -0.0995
  118OSM    O1112390   3.345   5.652  10.807  1.0526 -0.2709 -0.7187
  118OSM    O1212391   3.240   5.595  11.017  0.5505 -0.2278  0.7107
  118OSM    C1S12392   3.398   5.774  10.740  0.2848  0.5169 -0.5967
  118OSM    H1S12393   3.506   5.750  10.735  0.3845  0.8843 -0.2426
  118OSM    H1T12394   3.374   5.870  10.790 -0.6858 -0.2003  0.3921
  118OSM     NF12395   3.425   5.904  10.524 -0.4867 -0.6235 -0.7543
  118OSM    HNF12396   3.370   5.987  10.529 -1.4040 -1.1631 -1.5170
  118OSM    C2S12397   3.349   5.789  10.590 -0.1473 -0.5368 -0.2261
  118OSM    H2S12398   3.385   5.700  10.534  0.3070 -1.9478  2.1947
  118OSM    C3S12399   3.195   5.796  10.575  0.0509  0.3867 -0.6190
  118OSM    H3S12400   3.171   5.889  10.631  0.3033  0.5385 -0.7616
  118OSM     O312401   3.132   5.680  10.631  0.7777 -0.5166  0.4635
  118OSM    HO312402   3.187   5.643  10.701  3.5277  1.7835 -0.2979
  118OSM    C4S12403   3.168   5.819  10.429  0.5909  0.5364  0.1732
  118OSM    H4S12404   3.164   5.924  10.396  0.7668  0.0464 -1.4759
  118OSM    C5S12405   3.148   5.727  10.332 -0.1157  0.1766  0.3473
  118OSM    H5S12406   3.152   5.618  10.349  0.5554  0.3157  1.1552
  118OSM    C6S12407   3.132   5.769  10.185 -0.1197  0.5172  0.0158
  118OSM    H6S12408   3.067   5.859  10.175 -1.7809 -0.6511  0.0378
  118OSM    H6T12409   3.071   5.690  10.137  0.3969 -0.1518  0.4503
  118OSM    C7S12410   3.256   5.787  10.099 -0.3670 -0.2814 -0.2581
  118OSM    H7S12411   3.326   5.700  10.098  0.1904  0.0849  2.2184
  118OSM    H7T12412   3.314   5.874  10.136 -1.8931  0.8111 -0.3887
  118OSM    C8S12413   3.206   5.815   9.954  0.5038  0.2337 -0.3775
  118OSM    H8S12414   3.139   5.904   9.959  1.1934  0.7157  0.4090
  118OSM    H8T12415   3.148   5.722   9.934  1.1497 -0.4021  0.5794
  118OSM    C9S12416   3.312   5.837   9.841  0.2655  0.1424 -0.0757
  118OSM    H9S12417   3.393   5.766   9.867 -2.3343 -2.4674  1.4903
  118OSM    H9T12418   3.364   5.933   9.861 -0.5310  0.2299  1.7880
  118OSM   C10S12419   3.245   5.848   9.707 -0.5356  0.6412  0.2908
  118OSM   H10S12420   3.163   5.923   9.709 -1.6852 -0.5544 -0.4538
  118OSM   H10T12421   3.206   5.747   9.683  2.1666 -0.4842  0.3483
  118OSM   C11S12422   3.350   5.880   9.598 -0.3231 -0.1171 -0.2372
  118OSM   H11S12423   3.431   5.806   9.616 -1.7012 -1.1960  1.9503
  118OSM   H11T12424   3.395   5.981   9.610  0.8209 -0.7909  1.5153
  118OSM   C12S12425   3.300   5.855   9.457 -0.3356  0.3486  0.4577
  118OSM   H12S12426   3.267   5.749   9.443  0.8873 -0.4778  3.1775
  118OSM   H12T12427   3.387   5.855   9.389  0.2190 -0.7432  1.1402
  118OSM   C13S12428   3.195   5.961   9.420 -1.0178 -0.1944  0.1953
  118OSM   H13S12429   3.219   6.069   9.434 -0.0515 -0.4597  0.7264
  118OSM   H13T12430   3.106   5.949   9.485 -1.0241 -2.4399 -0.1501
  118OSM   C14S12431   3.165   5.938   9.270 -0.0348 -0.0489 -0.5165
  118OSM   H14S12432   3.117   5.841   9.243 -1.6983  1.4791 -3.4952
  118OSM   H14T12433   3.266   5.943   9.223  0.9721 -0.9043  1.4043
  118OSM   C15S12434   3.077   6.047   9.206  0.0213 -0.5224 -0.5532
  118OSM   H15S12435   3.123   6.141   9.245 -1.4590 -0.2247  0.5484
  118OSM   H15T12436   2.968   6.035   9.222  0.2071 -1.9560 -0.1847
  118OSM   C16S12437   3.100   6.056   9.052  0.1677  0.1916 -0.2607
  118OSM   H16S12438   3.066   5.958   9.011 -2.6236  1.6011 -1.5727
  118OSM   H16T12439   3.209   6.051   9.028 -0.2147 -2.3856 -1.8802
  118OSM   C17S12440   3.018   6.165   8.976 -0.2295 -0.5515 -0.9021
  118OSM   H17S12441   3.014   6.247   9.050  2.7716 -0.5108 -0.6629
  118OSM   H17T12442   2.916   6.122   8.967 -0.1949 -1.1385  1.0743
  118OSM   C18S12443   3.091   6.214   8.855 -0.6633 -1.2719  0.2508
  118OSM   H18S12444   3.179   6.274   8.885  0.0531 -2.1974  0.0478
  118OSM   H18T12445   3.025   6.288   8.804  1.0370  0.0667 -0.0905
  118OSM   H18U12446   3.121   6.133   8.785 -1.2779 -1.8958  0.6915
  118OSM    C1F12447   3.557   5.904  10.488  0.2289 -0.2311  0.0250
  118OSM     OF12448   3.622   5.800  10.498 -0.0552 -0.1332 -0.0300
  118OSM    C2F12449   3.606   6.036  10.444  0.2895  0.2034  0.4633
  118OSM    H2F12450   3.651   6.086  10.532  2.5395 -1.2643  0.2246
  118OSM    H2G12451   3.521   6.097  10.407  0.6935  1.1892  1.1262
  118OSM    C3F12452   3.700   6.013  10.327  0.4239  0.2419  0.8928
  118OSM    H3F12453   3.788   5.951  10.354  1.9158  1.8848  0.0105
  118OSM    H3G12454   3.735   6.118  10.311  1.7520 -0.2167  0.6669
  118OSM    C4F12455   3.636   5.943  10.195  0.1375  0.3877 -0.1123
  118OSM    H4F12456   3.566   6.013  10.144  0.5106  2.1407  1.6656
  118OSM    H4G12457   3.578   5.851  10.217 -0.2938 -0.1553 -3.0708
  118OSM    C5F12458   3.744   5.909  10.101 -1.4710 -0.2780  0.4355
  118OSM    H5F12459   3.815   5.842  10.154  1.1240  1.6126 -0.4432
  118OSM    H5G12460   3.803   5.999  10.075  0.3221 -1.1493  1.3277
  118OSM    C6F12461   3.688   5.847   9.975 -0.3615  1.0549 -0.0842
  118OSM    H6F12462   3.626   5.917   9.915 -1.3321  1.2371  1.0908
  118OSM    H6G12463   3.614   5.772  10.011 -0.8251  0.5726 -1.9399
  118OSM    C7F12464   3.782   5.782   9.875 -0.6508 -0.8243 -0.1138
  118OSM    H7F12465   3.824   5.696   9.932  2.3078  0.4968 -0.1141
  118OSM    H7G12466   3.867   5.853   9.861  0.2080 -1.7880  0.0756
  118OSM    C8F12467   3.728   5.743   9.743  0.1996 -0.8097  0.6436
  118OSM    H8F12468   3.681   5.838   9.709  2.6120  1.4422  3.0586
  118OSM    H8G12469   3.657   5.658   9.758 -0.3853 -0.7039 -1.3171
  118OSM    C9F12470   3.848   5.704   9.661 -0.8039 -0.3333  0.4424
  118OSM    H9F12471   3.937   5.669   9.715 -0.9953 -0.7178  0.5119
  118OSM   C10F12472   3.843   5.700   9.525  0.1909 -0.8242 -0.1074
  118OSM   H10F12473   3.927   5.660   9.467 -0.5334  0.8326 -2.4979
  118OSM   C11F12474   3.717   5.744   9.448 -0.1919  0.2385  0.1039
  118OSM   H11F12475   3.713   5.852   9.425 -1.2376 -0.1228 -1.6055
  118OSM   H11G12476   3.615   5.727   9.487 -0.6745  3.2716  0.4224
  118OSM   C12F12477   3.706   5.677   9.307  0.2396  0.4143  0.4970
  118OSM   H12F12478   3.610   5.717   9.266  0.3702 -0.2190 -0.4733
  118OSM   H12G12479   3.690   5.567   9.309  0.4010  0.3469  4.1378
  118OSM   C13F12480   3.818   5.712   9.214  0.1460 -0.3739 -0.1779
  118OSM   H13F12481   3.899   5.638   9.231  1.1423  0.4282 -1.2833
  118OSM   H13G12482   3.863   5.812   9.230 -0.0727 -0.2376 -0.4114
  118OSM   C14F12483   3.779   5.706   9.064 -0.3396 -0.1333  0.4758
  118OSM   H14F12484   3.723   5.793   9.024 -2.0065 -2.1603 -1.8440
  118OSM   H14G12485   3.733   5.608   9.039 -1.7802  0.8192 -0.7977
  118OSM   C15F12486   3.901   5.704   8.972 -0.3912 -0.1258 -0.1155
  118OSM   H15F12487   3.975   5.631   9.011 -0.5492  0.6469  1.7119
  118OSM   H15G12488   3.933   5.811   8.975  0.2368 -0.1632 -2.8410
  118OSM   C16F12489   3.855   5.669   8.834 -0.2711  0.1259  0.1918
  118OSM   H16F12490   3.758   5.717   8.811  0.7524  1.1705 -2.2187
  118OSM   H16G12491   3.833   5.560   8.827 -0.9658  0.0695  2.3813
  118OSM   C17F12492   3.963   5.711   8.729  0.0068 -0.6054 -0.3430
  118OSM   H17F12493   4.058   5.660   8.754 -0.3822 -1.6522 -0.9630
  118OSM   H17G12494   3.981   5.820   8.741  1.4959 -0.8368 -0.3341
  118OSM   C18F12495   3.931   5.675   8.591 -0.6157  0.7083  0.7948
  118OSM   H18F12496   3.895   5.571   8.577  2.8344 -0.2365 -3.0819
  118OSM   H18G12497   4.015   5.687   8.520 -2.9498  0.2346 -2.2842
  118OSM   H18H12498   3.854   5.748   8.558  0.9321  2.5355  1.1181
  119OSM      N12499   2.819   4.902  11.180 -0.3683 -0.2256  0.0993
  119OSM    C1512500   2.707   4.822  11.249  0.9616  0.2413  0.4600
  119OSM   H15A12501   2.711   4.839  11.355  0.1841  0.4911  0.4597
  119OSM   H15B12502   2.706   4.718  11.220  0.2000  0.9070 -2.1515
  119OSM   H15C12503   2.609   4.861  11.227  0.3150  0.6426  3.6188
  119OSM    C1412504   2.826   5.030  11.246 -0.1241 -0.0296  0.4404
  119OSM   H14A12505   2.730   5.079  11.256 -0.1150  0.4874 -1.5638
  119OSM   H14B12506   2.893   5.101  11.200 -0.2090  0.4292  1.0114
  119OSM   H14C12507   2.852   5.021  11.350  0.7221  3.3324  0.6421
  119OSM    C1312508   2.949   4.835  11.208  0.1291 -0.2424  0.4510
  119OSM   H13A12509   2.953   4.740  11.156 -1.6225  0.1367 -0.4377
  119OSM   H13B12510   2.956   4.823  11.315 -2.7748 -0.3004  0.7017
  119OSM   H13C12511   3.039   4.880  11.168  1.4084 -3.1308 -0.1792
  119OSM    C1212512   2.783   4.918  11.031 -0.0867 -0.4504  0.2740
  119OSM   H12A12513   2.679   4.942  11.015  0.4429  0.2488 -2.6776
  119OSM   H12B12514   2.793   4.826  10.975 -2.2500 -0.6941  0.1979
  119OSM    C1112515   2.880   5.012  10.954 -0.2121  0.0959 -0.7095
  119OSM   H11A12516   2.895   5.105  11.012  0.7399  1.0716 -2.4615
  119OSM   H11B12517   2.843   5.039  10.853 -0.9689 -0.2411 -0.5371
  119OSM      P12518   3.036   4.856  10.828  0.0387  0.1452  0.6665
  119OSM    O1312519   3.171   4.805  10.812 -0.6365  0.0198 -0.7848
  119OSM    O1412520   2.926   4.755  10.837  0.0320  0.1074  0.1405
  119OSM    O1112521   3.011   4.932  10.693 -0.2273 -0.3049 -0.1166
  119OSM    O1212522   3.012   4.954  10.941  0.1169  0.3670  0.1715
  119OSM    C1S12523   3.057   5.068  10.679  0.1289 -0.4093 -0.5217
  119OSM    H1S12524   3.139   5.088  10.751 -0.9591 -0.6381  0.8140
  119OSM    H1T12525   2.970   5.132  10.705 -0.9251 -1.0067 -2.3808
  119OSM     NF12526   3.169   5.229  10.542  0.5521 -0.1775  0.3908
  119OSM    HNF12527   3.110   5.306  10.519  0.0908 -1.0287 -1.4829
  119OSM    C2S12528   3.104   5.100  10.537  0.5771 -0.0652  0.2285
  119OSM    H2S12529   3.180   5.024  10.510  0.8148  0.5972 -1.0762
  119OSM    C3S12530   2.976   5.091  10.447 -0.4165 -0.7179  0.3249
  119OSM    H3S12531   2.901   5.163  10.488 -1.1527 -0.7237 -0.9547
  119OSM     O312532   2.913   4.963  10.430 -0.2653 -0.0675 -0.6004
  119OSM    HO312533   2.974   4.915  10.487 -0.4647 -0.2594 -0.5486
  119OSM    C4S12534   3.011   5.134  10.301 -0.5201 -0.0150 -0.0129
  119OSM    H4S12535   3.084   5.065  10.256 -0.4455 -0.8080  1.2670
  119OSM    C5S12536   2.962   5.240  10.233  0.3205  0.3627 -0.2303
  119OSM    H5S12537   2.887   5.303  10.283 -0.1073 -0.2835 -0.0547
  119OSM    C6S12538   2.993   5.292  10.102 -0.1367  0.4922  0.5411
  119OSM    H6S12539   2.929   5.382  10.089  1.7067  1.7324 -0.4719
  119OSM    H6T12540   2.966   5.215  10.027 -0.1858  0.5541  0.4954
  119OSM    C7S12541   3.136   5.335  10.097 -0.6951  0.4842  0.1299
  119OSM    H7S12542   3.194   5.241  10.112 -4.4975 -2.3393 -1.1033
  119OSM    H7T12543   3.167   5.411  10.172 -0.3927 -0.6242  1.1645
  119OSM    C8S12544   3.179   5.381   9.952  0.0467  0.3781 -0.8281
  119OSM    H8S12545   3.140   5.484   9.932 -0.1290  0.2287 -1.2699
  119OSM    H8T12546   3.138   5.311   9.876 -0.3556  0.9736 -1.1683
  119OSM    C9S12547   3.328   5.393   9.924  0.5547 -0.4094  1.4972
  119OSM    H9S12548   3.392   5.302   9.915  0.6296 -0.2342 -0.1543
  119OSM    H9T12549   3.370   5.463   9.999 -0.4236  1.0523  0.7307
  119OSM   C10S12550   3.338   5.476   9.785  0.1848 -0.0435 -0.4057
  119OSM   H10S12551   3.439   5.523   9.793  0.4751 -0.7179 -0.0772
  119OSM   H10T12552   3.269   5.563   9.772  1.2008  0.9224  0.3820
  119OSM   C11S12553   3.328   5.390   9.663 -0.8767 -0.7152  0.3466
  119OSM   H11S12554   3.233   5.333   9.662 -2.5086  1.8677 -0.9164
  119OSM   H11T12555   3.409   5.314   9.671 -1.4783 -1.7685 -2.4714
  119OSM   C12S12556   3.347   5.465   9.534  0.0867 -1.1094 -0.0605
  119OSM   H12S12557   3.443   5.521   9.546 -0.1765 -0.8786  1.1388
  119OSM   H12T12558   3.260   5.534   9.524  0.6421 -0.6461 -2.2721
  119OSM   C13S12559   3.337   5.381   9.405 -0.2597  0.0804  0.1223
  119OSM   H13S12560   3.235   5.337   9.406  0.4241 -1.7427  2.8422
  119OSM   H13T12561   3.402   5.293   9.419 -0.2551  0.0532 -0.0695
  119OSM   C14S12562   3.359   5.460   9.271 -0.4908  0.4393  0.0292
  119OSM   H14S12563   3.466   5.468   9.242 -0.7351  1.9477 -0.5502
  119OSM   H14T12564   3.313   5.561   9.271 -0.3713  0.5936  3.3170
  119OSM   C15S12565   3.279   5.378   9.163 -0.4172  0.3065 -0.2010
  119OSM   H15S12566   3.170   5.387   9.187 -0.3417 -0.7002  0.5605
  119OSM   H15T12567   3.315   5.273   9.162 -0.4659  0.2744  0.4502
  119OSM   C16S12568   3.305   5.440   9.027 -0.3745  0.4434 -0.4980
  119OSM   H16S12569   3.413   5.442   9.003 -0.0749  0.2364  0.7334
  119OSM   H16T12570   3.268   5.544   9.018 -2.7065  0.1425  3.2937
  119OSM   C17S12571   3.226   5.368   8.915  0.6475  0.3403 -0.1992
  119OSM   H17S12572   3.117   5.380   8.931  0.3664 -1.4294 -0.6021
  119OSM   H17T12573   3.232   5.257   8.926 -0.3412  0.2978  0.0060
  119OSM   C18S12574   3.265   5.425   8.774 -0.4667  0.1536  0.0421
  119OSM   H18S12575   3.370   5.405   8.746 -1.0068 -0.3879 -1.7234
  119OSM   H18T12576   3.251   5.536   8.781 -1.1722 -0.0125  2.0044
  119OSM   H18U12577   3.205   5.383   8.690  0.3973  1.8634 -1.5012
  119OSM    C1F12578   3.281   5.248  10.606 -0.2610 -0.1041 -0.3053
  119OSM     OF12579   3.350   5.151  10.637  0.0027 -0.5302  0.1512
  119OSM    C2F12580   3.307   5.390  10.642  0.6791 -0.0541  0.2919
  119OSM    H2F12581   3.330   5.402  10.750 -1.8149  2.1701  0.6721
  119OSM    H2G12582   3.214   5.447  10.622  0.8129 -0.2539 -1.0467
  119OSM    C3F12583   3.442   5.429  10.575 -0.0529  0.1249 -0.4092
  119OSM    H3F12584   3.526   5.362  10.604 -1.0817 -1.6822 -1.4026
  119OSM    H3G12585   3.482   5.528  10.607 -0.8159  0.4716 -0.4915
  119OSM    C4F12586   3.440   5.424  10.425  0.5244 -0.3018 -0.1815
  119OSM    H4F12587   3.359   5.489  10.387 -0.0779 -0.7268  0.3398
  119OSM    H4G12588   3.423   5.317  10.399 -2.2517  0.1570 -0.5209
  119OSM    C5F12589   3.574   5.457  10.370  0.6040 -0.1914  0.5967
  119OSM    H5F12590   3.638   5.368  10.385 -0.0036 -1.2537 -2.3996
  119OSM    H5G12591   3.613   5.545  10.425  0.3442 -1.0147  2.1498
  119OSM    C6F12592   3.570   5.477  10.209  0.6546 -0.8861 -0.4946
  119OSM    H6F12593   3.543   5.583  10.194 -0.6699 -1.5075 -2.9451
  119OSM    H6G12594   3.499   5.404  10.164 -1.5248 -0.2660  1.6757
  119OSM    C7F12595   3.708   5.481  10.138  0.0768  0.2171 -0.0806
  119OSM    H7F12596   3.764   5.567  10.180  0.5543 -0.4981  0.8002
  119OSM    H7G12597   3.692   5.505  10.031  1.4627  0.3614 -0.2811
  119OSM    C8F12598   3.789   5.353  10.150 -0.6422 -0.3632  0.3933
  119OSM    H8F12599   3.820   5.330  10.254  0.0438  2.2128  0.8442
  119OSM    H8G12600   3.878   5.360  10.084  1.3735 -1.2145  2.8689
  119OSM    C9F12601   3.708   5.240  10.086  0.3017  0.4742 -0.8975
  119OSM    H9F12602   3.645   5.190  10.161 -0.6046  1.2825 -1.1053
  119OSM   C10F12603   3.712   5.198   9.953  0.1290  0.2847  0.2669
  119OSM   H10F12604   3.653   5.107   9.931 -0.1261  0.4591  0.2285
  119OSM   C11F12605   3.796   5.255   9.835  0.4536  0.3760 -0.2429
  119OSM   H11F12606   3.894   5.204   9.827 -0.5748 -1.5895 -1.2667
  119OSM   H11G12607   3.806   5.365   9.841  2.1075  0.2762 -0.6279
  119OSM   C12F12608   3.729   5.224   9.702 -0.0602  0.5247  0.0505
  119OSM   H12F12609   3.633   5.280   9.700 -0.0785  0.6390  2.0901
  119OSM   H12G12610   3.710   5.117   9.679  3.1927  0.2658 -2.0703
  119OSM   C13F12611   3.820   5.252   9.583 -0.0533 -1.3579 -0.2687
  119OSM   H13F12612   3.901   5.177   9.576 -0.6498 -1.9990 -0.4482
  119OSM   H13G12613   3.876   5.348   9.579 -0.2362 -1.2404 -0.0783
  119OSM   C14F12614   3.736   5.250   9.460 -0.2302 -0.2013  0.1816
  119OSM   H14F12615   3.667   5.336   9.450 -0.4026 -0.5915 -3.2538
  119OSM   H14G12616   3.677   5.156   9.459 -1.2718  0.3751  2.5111
  119OSM   C15F12617   3.832   5.242   9.335  0.7071  0.1305  0.3035
  119OSM   H15F12618   3.898   5.153   9.337 -0.9842 -1.2548 -1.6822
  119OSM   H15G12619   3.894   5.334   9.329  1.0155 -0.1047 -0.2414
  119OSM   C16F12620   3.747   5.249   9.210  0.3256 -0.3427  0.0647
  119OSM   H16F12621   3.695   5.348   9.211 -1.5830 -1.2932 -0.5152
  119OSM   H16G12622   3.664   5.176   9.199  0.7495 -1.0626  1.4058
  119OSM   C17F12623   3.840   5.243   9.083 -0.1603 -0.1525 -0.5356
  119OSM   H17F12624   3.914   5.161   9.102 -1.1163 -0.8973  0.0680
  119OSM   H17G12625   3.912   5.327   9.082  2.5720 -2.3271 -0.8907
  119OSM   C18F12626   3.761   5.235   8.952 -0.1787  0.6551  0.4620
  119OSM   H18F12627   3.814   5.262   8.858  1.7027 -2.2234  0.5917
  119OSM   H18G12628   3.676   5.304   8.975 -0.9215 -0.3348  0.7350
  119OSM   H18H12629   3.716   5.135   8.940 -0.0062  0.4723  1.2969
  120OSM      N12630   2.685   1.947  10.953  0.3436  0.2453 -0.2661
  120OSM    C1512631   2.536   1.927  10.953 -0.3615  0.3767 -0.4581
  120OSM   H15A12632   2.509   1.828  10.917  2.4339 -1.3013  1.6889
  120OSM   H15B12633   2.488   2.004  10.895 -0.5405  0.0223 -0.7909
  120OSM   H15C12634   2.508   1.937  11.057  1.6307  1.1813  0.0384
  120OSM    C1412635   2.692   2.082  11.012  0.2637 -0.4314 -0.2951
  120OSM   H14A12636   2.796   2.110  11.018 -0.0497  0.6960  0.1839
  120OSM   H14B12637   2.663   2.094  11.115 -3.2354  0.2446 -1.2281
  120OSM   H14C12638   2.628   2.157  10.967  0.7503  0.1518 -0.0329
  120OSM    C1312639   2.751   1.841  11.028  0.1872  0.1735  0.5510
  120OSM   H13A12640   2.859   1.840  11.025  0.2243  1.9966  0.0710
  120OSM   H13B12641   2.729   1.745  10.983 -0.2515 -0.6202  2.3604
  120OSM   H13C12642   2.721   1.829  11.131 -3.0067  0.6014 -0.2317
  120OSM    C1212643   2.733   1.953  10.805 -0.0707 -0.8535  0.3602
  120OSM   H12A12644   2.837   1.984  10.797 -0.5497  1.1694  1.3419
  120OSM   H12B12645   2.666   2.028  10.766 -1.4677 -0.5215  3.1635
  120OSM    C1112646   2.709   1.834  10.716  0.4032 -1.5356  0.4552
  120OSM   H11A12647   2.711   1.872  10.611 -1.2195  0.5092  1.0959
  120OSM   H11B12648   2.601   1.810  10.720  0.2729 -0.8018  1.7910
  120OSM      P12649   2.745   1.581  10.716 -0.3689 -0.1087  0.0034
  120OSM    O1312650   2.860   1.490  10.720 -0.5781 -0.1266 -0.4344
  120OSM    O1412651   2.641   1.557  10.817  0.6320 -1.0751 -0.0690
  120OSM    O1112652   2.692   1.583  10.568  0.0003  0.3875 -0.3786
  120OSM    O1212653   2.799   1.731  10.732 -0.4562  0.0804 -0.2905
  120OSM    C1S12654   2.782   1.591  10.459  0.0767  0.0748 -0.1038
  120OSM    H1S12655   2.844   1.499  10.451  0.7433  0.1785  2.9092
  120OSM    H1T12656   2.854   1.672  10.482  1.6913 -1.1480 -0.6517
  120OSM     NF12657   2.807   1.593  10.204  0.5458 -0.1410  0.0670
  120OSM    HNF12658   2.822   1.677  10.154  1.8392 -0.6929 -0.5079
  120OSM    C2S12659   2.719   1.609  10.315 -0.1221 -0.8168  0.5070
  120OSM    H2S12660   2.643   1.529  10.304  0.0866 -0.9824  0.2806
  120OSM    C3S12661   2.641   1.743  10.311  0.4241 -1.1618 -0.6555
  120OSM    H3S12662   2.712   1.828  10.320 -0.0801 -0.9462  2.5447
  120OSM     O312663   2.554   1.769  10.424 -0.1507 -0.0658 -0.3261
  120OSM    HO312664   2.585   1.712  10.495 -1.9003 -0.7770 -0.0625
  120OSM    C4S12665   2.552   1.756  10.192  0.1376 -0.3903  0.1663
  120OSM    H4S12666   2.478   1.678  10.170  0.3427 -0.4588 -0.2748
  120OSM    C5S12667   2.550   1.857  10.103 -0.4914 -0.0096  0.3840
  120OSM    H5S12668   2.619   1.942  10.114 -0.6235  0.2628 -0.7658
  120OSM    C6S12669   2.455   1.884   9.985  0.4526  0.5357  0.0773
  120OSM    H6S12670   2.377   1.951  10.027  1.8897  0.4699  3.1048
  120OSM    H6T12671   2.388   1.798   9.965  2.1611 -1.5961  2.8149
  120OSM    C7S12672   2.519   1.934   9.855 -0.7821  0.3435 -0.6661
  120OSM    H7S12673   2.593   1.859   9.821  0.1568  0.2410  1.4389
  120OSM    H7T12674   2.581   2.026   9.871  0.4316 -0.8801  2.3840
  120OSM    C8S12675   2.419   1.961   9.737  0.5736  0.0316 -0.4314
  120OSM    H8S12676   2.339   2.026   9.777  1.6005  1.8128 -1.1745
  120OSM    H8T12677   2.368   1.865   9.714  0.8740 -0.4242  0.7491
  120OSM    C9S12678   2.482   2.036   9.625  0.0997 -0.3257 -0.3684
  120OSM    H9S12679   2.583   1.992   9.613  0.0391 -0.4230 -0.5284
  120OSM    H9T12680   2.479   2.145   9.648 -1.6004  0.1765 -2.5194
  120OSM   C10S12681   2.395   2.004   9.505 -0.1904 -0.2003  0.2361
  120OSM   H10S12682   2.291   2.037   9.524 -1.0373 -3.2796  1.5750
  120OSM   H10T12683   2.389   1.894   9.491 -2.1812  0.0903 -1.9238
  120OSM   C11S12684   2.453   2.077   9.379  0.4147  0.1028 -0.4781
  120OSM   H11S12685   2.564   2.074   9.372  0.6418  1.9747  1.3336
  120OSM   H11T12686   2.435   2.185   9.397  3.2158  0.2107  2.5753
  120OSM   C12S12687   2.382   2.031   9.249  0.0319  0.3055  0.4013
  120OSM   H12S12688   2.272   2.023   9.260  0.0266 -1.2757 -0.4171
  120OSM   H12T12689   2.407   1.923   9.246  0.4876  0.4244 -1.7970
  120OSM   C13S12690   2.418   2.104   9.129 -0.3658  0.4949  0.4866
  120OSM   H13S12691   2.418   2.024   9.052 -0.7613 -1.8374  2.7852
  120OSM   H13T12692   2.515   2.158   9.128 -0.5305  0.8089  1.0983
  120OSM   C14S12693   2.310   2.194   9.083  0.9401 -0.5392 -0.1950
  120OSM   H14S12694   2.282   2.265   9.164  1.6422  1.5519 -1.7074
  120OSM   H14T12695   2.222   2.134   9.051 -0.1644  1.2099 -0.5490
  120OSM   C15S12696   2.359   2.278   8.964  0.6195  0.2574 -0.0461
  120OSM   H15S12697   2.429   2.359   8.994  0.6366  1.1060 -2.1407
  120OSM   H15T12698   2.265   2.325   8.926  1.1954  0.2516 -1.5801
  120OSM   C16S12699   2.429   2.204   8.853  0.9170  0.4603 -0.3090
  120OSM   H16S12700   2.382   2.103   8.850  1.6938  0.1109 -1.0124
  120OSM   H16T12701   2.532   2.184   8.888  0.5800 -0.0930  0.4092
  120OSM   C17S12702   2.427   2.266   8.715 -0.1149 -0.0125  0.7538
  120OSM   H17S12703   2.324   2.284   8.678 -0.4340  0.1903  1.7182
  120OSM   H17T12704   2.475   2.195   8.644  0.8546  0.5642  0.8129
  120OSM   C18S12705   2.494   2.402   8.697 -0.3392 -0.3142  0.5725
  120OSM   H18S12706   2.450   2.493   8.742  1.5447  2.6740 -3.0102
  120OSM   H18T12707   2.509   2.412   8.587  1.3835  1.8420  0.9239
  120OSM   H18U12708   2.596   2.397   8.740 -0.3012  0.3311  0.5749
  120OSM    C1F12709   2.876   1.484  10.176 -0.2205  0.0898  0.3537
  120OSM     OF12710   2.874   1.383  10.253 -0.4188  0.3075  0.2518
  120OSM    C2F12711   2.956   1.478  10.047  0.4781 -0.0252 -0.0501
  120OSM    H2F12712   3.054   1.519  10.077  0.0299  1.8679 -1.0286
  120OSM    H2G12713   2.904   1.534   9.966  3.3028  2.3971 -0.3702
  120OSM    C3F12714   2.986   1.334  10.006 -0.0630 -0.2505  0.3085
  120OSM    H3F12715   2.889   1.294   9.970  0.0354  1.4214 -2.0372
  120OSM    H3G12716   3.014   1.275  10.096  0.6250  1.4802  1.2835
  120OSM    C4F12717   3.082   1.319   9.892 -0.2809  0.3720  0.5922
  120OSM    H4F12718   3.106   1.212   9.875 -0.3661  0.4361  0.0542
  120OSM    H4G12719   3.169   1.374   9.933 -1.2774  1.7173  0.9947
  120OSM    C5F12720   3.040   1.383   9.759  0.7611  0.2555 -0.4915
  120OSM    H5F12721   3.029   1.492   9.776  2.4201  0.4674 -0.5631
  120OSM    H5G12722   2.936   1.354   9.732 -0.3269  2.1249  1.3869
  120OSM    C6F12723   3.148   1.369   9.645 -0.4883 -0.2718  0.6428
  120OSM    H6F12724   3.161   1.260   9.628  1.1181  0.0313 -0.3539
  120OSM    H6G12725   3.247   1.408   9.680  0.6107 -1.0765 -1.3733
  120OSM    C7F12726   3.109   1.441   9.513  0.0406  0.4494 -0.3321
  120OSM    H7F12727   3.087   1.542   9.553 -0.5521  0.1040  0.2411
  120OSM    H7G12728   3.021   1.394   9.462  1.0733 -1.3583 -0.5301
  120OSM    C8F12729   3.220   1.444   9.407  0.1018  0.2528  0.0433
  120OSM    H8F12730   3.262   1.347   9.372  0.8053  0.9169 -1.0067
  120OSM    H8G12731   3.304   1.496   9.460  1.4602  1.2853 -2.9019
  120OSM    C9F12732   3.164   1.528   9.298 -0.1828 -0.3879  0.2104
  120OSM    H9F12733   3.141   1.628   9.338  2.9910  0.6481 -0.2203
  120OSM   C10F12734   3.151   1.498   9.170  0.1617  0.8491  0.4936
  120OSM   H10F12735   3.095   1.574   9.113 -2.8476 -0.3891  1.6147
  120OSM   C11F12736   3.182   1.368   9.105  0.4696  0.1019  0.4892
  120OSM   H11F12737   3.089   1.330   9.057 -0.5580  0.1097  2.3632
  120OSM   H11G12738   3.215   1.296   9.183  0.1885  1.3451  1.7922
  120OSM   C12F12739   3.290   1.389   8.994  0.4765 -0.3081 -0.7198
  120OSM   H12F12740   3.394   1.380   9.032  0.0350 -1.8356  0.1878
  120OSM   H12G12741   3.277   1.494   8.957  1.0412  0.3488  0.8820
  120OSM   C13F12742   3.260   1.288   8.875  0.1353  0.3963  1.2582
  120OSM   H13F12743   3.157   1.301   8.835 -0.1172 -2.2298  0.8816
  120OSM   H13G12744   3.263   1.185   8.917 -1.6560 -0.1112  0.2797
  120OSM   C14F12745   3.368   1.290   8.770  0.1579 -0.6241  0.3037
  120OSM   H14F12746   3.469   1.270   8.811  0.7695  0.9888 -0.3345
  120OSM   H14G12747   3.384   1.393   8.731  1.8525 -0.5361  1.1546
  120OSM   C15F12748   3.357   1.180   8.662 -0.0600  0.4924  0.4056
  120OSM   H15F12749   3.271   1.197   8.595 -0.2688 -4.2603 -0.8344
  120OSM   H15G12750   3.347   1.078   8.704  0.6879 -0.3275 -1.2934
  120OSM   C16F12751   3.483   1.186   8.577  0.3029  0.3451 -0.6227
  120OSM   H16F12752   3.571   1.182   8.645  0.4831 -0.0940 -0.8791
  120OSM   H16G12753   3.501   1.287   8.536  0.2506  0.5651 -0.1110
  120OSM   C17F12754   3.503   1.091   8.466  0.5815  0.2001 -0.5009
  120OSM   H17F12755   3.606   1.054   8.447  0.1578 -1.0782 -0.3995
  120OSM   H17G12756   3.472   1.137   8.370 -2.1957 -1.5947 -0.5732
  120OSM   C18F12757   3.431   0.960   8.471  0.0162 -0.2601 -0.0469
  120OSM   H18F12758   3.395   0.928   8.571  1.3395  0.7773  0.7956
  120OSM   H18G12759   3.498   0.881   8.431 -1.8235 -1.7087 -0.4027
  120OSM   H18H12760   3.339   0.960   8.409 -0.9137 -0.8661  1.2817
  121OSM      N12761   1.299   6.184  11.230  0.3742  0.0479  0.6592
  121OSM    C1512762   1.173   6.117  11.278 -0.2442  0.0939 -0.4000
  121OSM   H15A12763   1.105   6.186  11.326 -1.3691 -1.7449  0.7617
  121OSM   H15B12764   1.199   6.049  11.358 -1.9600 -1.5876 -1.1788
  121OSM   H15C12765   1.126   6.058  11.200  0.6724  0.4681 -1.2609
  121OSM    C1412766   1.266   6.285  11.128 -0.2626  0.3779 -0.3297
  121OSM   H14A12767   1.358   6.326  11.088 -0.0787  0.3006  0.0193
  121OSM   H14B12768   1.224   6.377  11.166  1.7976  1.0915  0.3410
  121OSM   H14C12769   1.208   6.246  11.046 -0.8242  0.5866 -0.0355
  121OSM    C1312770   1.358   6.252  11.350 -0.0598  0.0732 -0.8875
  121OSM   H13A12771   1.395   6.190  11.430  3.1079  0.1694 -2.1101
  121OSM   H13B12772   1.283   6.325  11.378 -0.6034 -0.6464 -0.4411
  121OSM   H13C12773   1.444   6.314  11.327  0.6630 -0.9946 -1.1259
  121OSM    C1212774   1.395   6.088  11.168 -0.0355 -0.1256 -0.3499
  121OSM   H12A12775   1.393   6.005  11.237 -0.5287  0.8997  0.9177
  121OSM   H12B12776   1.497   6.122  11.179 -0.2458  1.3885 -2.4771
  121OSM    C1112777   1.369   6.036  11.025  0.4518  0.6235  0.3231
  121OSM   H11A12778   1.451   5.968  10.994 -0.8438 -1.4585  1.2676
  121OSM   H11B12779   1.388   6.118  10.952 -0.4718  0.9841  0.4665
  121OSM      P12780   1.214   5.832  11.052  0.1632 -0.1521 -0.1299
  121OSM    O1312781   1.330   5.791  11.132  0.0591  0.2868 -0.1340
  121OSM    O1412782   1.082   5.812  11.112 -0.2688  0.0521  0.1297
  121OSM    O1112783   1.210   5.767  10.905  0.2569  0.3162 -0.2690
  121OSM    O1212784   1.234   5.988  11.010  0.7249  0.5511 -0.1406
  121OSM    C1S12785   1.148   5.845  10.804  0.3422  0.7590  0.0281
  121OSM    H1S12786   1.196   5.943  10.785 -1.4695  1.4684 -1.2102
  121OSM    H1T12787   1.043   5.877  10.821  0.3593  2.9763 -3.0973
  121OSM     NF12788   1.103   5.846  10.557 -0.1463 -0.0599  0.8070
  121OSM    HNF12789   1.017   5.817  10.514 -0.5027  1.3200  0.5102
  121OSM    C2S12790   1.152   5.768  10.667  0.0500  0.1461 -0.2531
  121OSM    H2S12791   1.262   5.763  10.651  0.5008  1.4206  1.9811
  121OSM    C3S12792   1.096   5.622  10.675 -0.5486  0.1323 -0.1311
  121OSM    H3S12793   0.986   5.634  10.679 -0.6925 -1.0734 -0.0983
  121OSM     O312794   1.139   5.550  10.794  0.5283 -0.1947  0.4683
  121OSM    HO312795   1.199   5.612  10.836 -1.4969  1.8733  0.4575
  121OSM    C4S12796   1.133   5.554  10.544 -0.3107 -0.7633 -0.0256
  121OSM    H4S12797   1.046   5.547  10.479 -1.0933 -0.2657  0.9403
  121OSM    C5S12798   1.254   5.499  10.505 -0.3382 -0.0086  0.1566
  121OSM    H5S12799   1.343   5.493  10.569 -1.4923  1.8797  2.0636
  121OSM    C6S12800   1.276   5.434  10.375 -0.2319  0.5206 -0.5047
  121OSM    H6S12801   1.328   5.336  10.377 -1.5284 -0.2104 -1.2069
  121OSM    H6T12802   1.356   5.500  10.335  1.2877 -0.1852  1.2276
  121OSM    C7S12803   1.170   5.432  10.260 -0.4965 -0.4546 -0.0136
  121OSM    H7S12804   1.121   5.532  10.255 -3.1411 -1.7336 -3.3953
  121OSM    H7T12805   1.085   5.363  10.281  0.7742 -2.0263  0.1304
  121OSM    C8S12806   1.233   5.393  10.127  0.4561  0.5423  0.0400
  121OSM    H8S12807   1.297   5.303  10.138  0.9473  0.8310 -0.3850
  121OSM    H8T12808   1.309   5.472  10.109  0.4403  0.3347 -0.9897
  121OSM    C9S12809   1.138   5.377  10.004  0.3679  0.0253  0.3468
  121OSM    H9S12810   1.104   5.479   9.975  0.2213 -0.0780  0.1464
  121OSM    H9T12811   1.047   5.320  10.031  0.4037 -0.3641 -0.3254
  121OSM   C10S12812   1.191   5.302   9.879  0.2564 -0.8785  0.5269
  121OSM   H10S12813   1.232   5.204   9.913 -2.3981 -2.2203  0.1464
  121OSM   H10T12814   1.265   5.368   9.829  0.1690  0.7074  2.3971
  121OSM   C11S12815   1.092   5.281   9.769  0.1571  0.3947  0.0527
  121OSM   H11S12816   1.046   5.376   9.735 -3.4069 -1.4760 -0.8554
  121OSM   H11T12817   1.010   5.231   9.825  1.1623 -2.2986 -0.7379
  121OSM   C12S12818   1.134   5.211   9.647 -0.4990  0.2026  0.0708
  121OSM   H12S12819   1.154   5.105   9.672 -1.9374 -0.2380 -0.5608
  121OSM   H12T12820   1.238   5.250   9.638 -0.7196  0.7564 -0.1469
  121OSM   C13S12821   1.050   5.222   9.522  0.8788 -0.2265  0.5700
  121OSM   H13S12822   0.996   5.319   9.527 -1.2193 -1.2366 -0.6810
  121OSM   H13T12823   0.967   5.148   9.528 -0.3113  0.9839 -0.2842
  121OSM   C14S12824   1.114   5.204   9.384  0.1896  0.4868  0.2564
  121OSM   H14S12825   1.171   5.110   9.370 -0.7414  0.2631 -2.8871
  121OSM   H14T12826   1.181   5.289   9.361 -0.2097  0.0388 -3.0598
  121OSM   C15S12827   1.017   5.197   9.264 -0.1287 -0.1352  0.4932
  121OSM   H15S12828   0.932   5.268   9.262 -1.0362 -1.1001  2.3840
  121OSM   H15T12829   0.971   5.096   9.266  0.2911 -0.3070  2.2089
  121OSM   C16S12830   1.108   5.213   9.137 -0.4474  0.6919  0.5258
  121OSM   H16S12831   1.067   5.142   9.063 -1.4341  0.2188  1.4991
  121OSM   H16T12832   1.215   5.188   9.151  0.3724  4.0073  1.0686
  121OSM   C17S12833   1.120   5.342   9.056  0.7191  0.4757 -0.4572
  121OSM   H17S12834   1.220   5.350   9.009  0.1356  0.3154 -1.7832
  121OSM   H17T12835   1.108   5.426   9.128  1.8868 -0.6800  1.1599
  121OSM   C18S12836   1.006   5.356   8.949 -0.2676 -0.0148  0.1519
  121OSM   H18S12837   0.902   5.345   8.987 -0.7692 -2.7818 -1.7155
  121OSM   H18T12838   1.020   5.273   8.876  0.7361  2.2373 -2.4289
  121OSM   H18U12839   1.020   5.445   8.884  1.8635 -1.0200 -0.8698
  121OSM    C1F12840   1.157   5.966  10.525  0.0161  0.2708 -0.2131
  121OSM     OF12841   1.269   5.988  10.560 -0.0030 -0.2821  0.2526
  121OSM    C2F12842   1.086   6.055  10.431 -0.2395 -0.9740 -0.3176
  121OSM    H2F12843   1.069   6.147  10.492  1.7201 -0.7183 -0.0856
  121OSM    H2G12844   0.983   6.020  10.411 -1.9619  1.9025  2.5231
  121OSM    C3F12845   1.165   6.108  10.306 -0.0550  0.5526 -0.1641
  121OSM    H3F12846   1.196   6.017  10.251 -1.0504 -0.5025  0.9526
  121OSM    H3G12847   1.255   6.162  10.342 -1.4051  2.8082 -0.0022
  121OSM    C4F12848   1.083   6.202  10.221  0.1965 -1.0518 -0.0302
  121OSM    H4F12849   1.064   6.292  10.283 -1.4959 -0.1005 -1.7785
  121OSM    H4G12850   0.988   6.167  10.174  0.3330  0.5470 -1.6411
  121OSM    C5F12851   1.176   6.261  10.111 -0.4771  0.3910 -0.3021
  121OSM    H5F12852   1.263   6.304  10.166  1.3781 -0.8076 -2.1736
  121OSM    H5G12853   1.129   6.348  10.060  1.0675  2.0003  0.8609
  121OSM    C6F12854   1.223   6.155  10.007 -0.7474  0.2043 -0.3633
  121OSM    H6F12855   1.132   6.104   9.968 -0.9585  2.6677 -3.4992
  121OSM    H6G12856   1.302   6.085  10.042 -0.4195  1.0280  0.6108
  121OSM    C7F12857   1.280   6.224   9.887  0.4830 -0.2302  0.0475
  121OSM    H7F12858   1.345   6.309   9.917 -1.1197  0.9851  0.1973
  121OSM    H7G12859   1.199   6.281   9.837  2.0298  0.5728 -1.6689
  121OSM    C8F12860   1.350   6.128   9.783  0.0139 -0.5315 -0.4679
  121OSM    H8F12861   1.277   6.054   9.745 -1.2200  0.7265 -0.5824
  121OSM    H8G12862   1.427   6.069   9.839  0.3464 -0.0817 -0.4425
  121OSM    C9F12863   1.416   6.201   9.670  0.0047  0.3775  0.0622
  121OSM    H9F12864   1.516   6.242   9.691 -0.3070  0.6612  1.0480
  121OSM   C10F12865   1.367   6.217   9.549 -0.2681  0.1453  1.3804
  121OSM   H10F12866   1.424   6.271   9.471  0.6833 -2.6692 -0.0133
  121OSM   C11F12867   1.232   6.164   9.504  0.2649 -0.0336 -0.4750
  121OSM   H11F12868   1.148   6.208   9.563  0.1562 -0.8142 -0.0308
  121OSM   H11G12869   1.227   6.057   9.534  0.1580  0.5196  1.6409
  121OSM   C12F12870   1.199   6.190   9.353 -0.5482  0.0789  0.3314
  121OSM   H12F12871   1.204   6.297   9.326  0.2136 -0.5028 -2.0757
  121OSM   H12G12872   1.099   6.149   9.327  0.8450 -2.4734 -1.3867
  121OSM   C13F12873   1.298   6.116   9.253 -0.5133 -0.1861  0.9776
  121OSM   H13F12874   1.291   6.008   9.279 -0.2520 -0.0957  1.4390
  121OSM   H13G12875   1.405   6.147   9.258 -0.4032 -0.2063 -0.7297
  121OSM   C14F12876   1.243   6.138   9.109 -0.2871  0.3512  0.6138
  121OSM   H14F12877   1.282   6.234   9.069  2.0648 -0.5608  0.5529
  121OSM   H14G12878   1.133   6.152   9.109 -0.0333  2.8499  0.8077
  121OSM   C15F12879   1.286   6.023   9.010  0.4574 -1.0247 -1.2676
  121OSM   H15F12880   1.229   5.933   9.040  0.7767 -0.7996  0.0799
  121OSM   H15G12881   1.395   6.005   9.024  1.1505  1.0511 -3.3100
  121OSM   C16F12882   1.275   6.073   8.861  0.3158 -0.1021  0.3980
  121OSM   H16F12883   1.303   5.987   8.797  1.6922 -0.6116  1.6323
  121OSM   H16G12884   1.341   6.155   8.827 -0.3509 -0.0756 -0.9024
  121OSM   C17F12885   1.136   6.130   8.823 -0.1293  0.3888  0.1123
  121OSM   H17F12886   1.110   6.209   8.897  0.9964  0.7666  0.1194
  121OSM   H17G12887   1.068   6.043   8.832 -2.4545  1.9473 -1.2991
  121OSM   C18F12888   1.122   6.173   8.675 -0.2906 -0.7034  0.2717
  121OSM   H18F12889   1.199   6.251   8.655  0.2479 -1.3715 -0.3388
  121OSM   H18G12890   1.023   6.220   8.656  0.9886  2.0485 -0.1750
  121OSM   H18H12891   1.147   6.088   8.608  1.4844 -1.0029  1.2665
  122OSM      N12892   4.110   3.657  10.629  0.1540  0.6861 -0.3386
  122OSM    C1512893   4.160   3.641  10.772 -0.0775  0.0765  0.3144
  122OSM   H15A12894   4.219   3.550  10.774 -1.1083 -0.6592 -1.1251
  122OSM   H15B12895   4.083   3.622  10.844  1.1877 -0.4854  1.5644
  122OSM   H15C12896   4.216   3.729  10.801  0.0892  0.6510 -1.6143
  122OSM    C1412897   4.042   3.523  10.588 -0.5849 -0.5040 -0.0243
  122OSM   H14A12898   3.994   3.534  10.492  3.0480  0.3581 -1.9234
  122OSM   H14B12899   3.966   3.506  10.662  0.1817  0.7853  1.1206
  122OSM   H14C12900   4.116   3.444  10.589  1.0919  0.9464  2.4052
  122OSM    C1312901   4.023   3.775  10.617 -0.2324  0.6269  0.2033
  122OSM   H13A12902   4.078   3.864  10.643  1.5701 -0.3032 -0.2897
  122OSM   H13B12903   3.936   3.761  10.680 -0.6547 -0.3872 -0.5818
  122OSM   H13C12904   3.990   3.787  10.515  0.1438  1.0739  0.1305
  122OSM    C1212905   4.231   3.675  10.535 -0.6949  0.2749 -0.1010
  122OSM   H12A12906   4.287   3.765  10.554  1.6736 -1.0364 -0.5716
  122OSM   H12B12907   4.187   3.700  10.439 -2.0469 -2.2707 -0.2256
  122OSM    C1112908   4.334   3.564  10.529 -0.3819 -0.4727 -0.6099
  122OSM   H11A12909   4.289   3.473  10.484 -3.0040  0.2387  0.4013
  122OSM   H11B12910   4.367   3.537  10.632  0.1577 -0.8902 -0.8932
  122OSM      P12911   4.530   3.534  10.358  0.0049  0.0136  0.0259
  122OSM    O1312912   4.607   3.627  10.273  0.3212  0.2616 -0.0057
  122OSM    O1412913   4.595   3.430  10.442 -0.0949 -0.3356  0.6800
  122OSM    O1112914   4.419   3.461  10.274 -0.6984 -0.1724 -0.4534
  122OSM    O1212915   4.445   3.617  10.461 -0.6294  0.6928  0.0708
  122OSM    C1S12916   4.315   3.532  10.208  0.8699 -0.1921  0.0889
  122OSM    H1S12917   4.334   3.641  10.212 -0.1936 -0.0219  0.6704
  122OSM    H1T12918   4.226   3.510  10.270 -0.0395  0.2823 -1.0148
  122OSM     NF12919   4.160   3.540  10.013  0.3194  0.8516  0.4015
  122OSM    HNF12920   4.071   3.497  10.021 -1.4267  3.4836 -2.3919
  122OSM    C2S12921   4.283   3.477  10.064  0.2322 -0.1460 -0.1489
  122OSM    H2S12922   4.365   3.513   9.997 -0.1491 -0.2472 -0.6716
  122OSM    C3S12923   4.289   3.324  10.058  0.8327  0.1621  0.4066
  122OSM    H3S12924   4.195   3.289  10.106 -0.0368 -0.4260 -1.5988
  122OSM     O312925   4.398   3.261  10.125 -0.6921  0.7837 -0.0670
  122OSM    HO312926   4.423   3.337  10.178  0.9292  2.1166 -2.5677
  122OSM    C4S12927   4.303   3.283   9.913  0.2453  0.2459 -0.8081
  122OSM    H4S12928   4.405   3.303   9.879  0.8809 -3.0575 -1.1947
  122OSM    C5S12929   4.210   3.258   9.818 -0.0697 -0.2054  0.1454
  122OSM    H5S12930   4.110   3.278   9.858  0.2420 -0.2966  0.9965
  122OSM    C6S12931   4.217   3.225   9.669 -0.6106 -0.0218 -0.1758
  122OSM    H6S12932   4.296   3.149   9.652 -0.7142 -0.5147  1.3326
  122OSM    H6T12933   4.254   3.310   9.608 -0.8713 -1.3503 -2.2678
  122OSM    C7S12934   4.082   3.181   9.629 -0.4252 -0.4327 -0.9879
  122OSM    H7S12935   4.009   3.263   9.647  1.3324  0.9554  0.1364
  122OSM    H7T12936   4.048   3.088   9.680  1.7733 -0.8238 -0.1263
  122OSM    C8S12937   4.069   3.169   9.478 -0.1540 -0.2341  0.7291
  122OSM    H8S12938   4.103   3.266   9.435  3.1990 -1.9333 -0.8736
  122OSM    H8T12939   3.959   3.175   9.471 -0.1936  0.7010  1.8433
  122OSM    C9S12940   4.133   3.045   9.421  0.1758 -0.0010 -0.2043
  122OSM    H9S12941   4.108   2.958   9.486  4.7695 -1.0465  0.5283
  122OSM    H9T12942   4.242   3.064   9.415  0.7903 -2.3201  1.9143
  122OSM   C10S12943   4.087   2.999   9.292  0.6616  0.2907  0.2897
  122OSM   H10S12944   3.976   3.007   9.288  0.7304  1.1240 -0.1573
  122OSM   H10T12945   4.126   2.896   9.277  0.3666  0.6419 -4.4676
  122OSM   C11S12946   4.135   3.096   9.178 -0.6358 -0.2583  0.4208
  122OSM   H11S12947   4.241   3.125   9.198 -1.2033  0.9912  1.8366
  122OSM   H11T12948   4.075   3.190   9.169  0.2416  0.1713 -1.5961
  122OSM   C12S12949   4.151   3.013   9.048  0.7853 -0.3804  0.2120
  122OSM   H12S12950   4.050   2.984   9.013  0.4691  1.7428 -0.7486
  122OSM   H12T12951   4.214   2.925   9.075  2.5351  0.0515 -2.1613
  122OSM   C13S12952   4.214   3.083   8.934  0.5390 -0.5567 -0.3980
  122OSM   H13S12953   4.318   3.110   8.964 -0.0725  0.2553  1.1485
  122OSM   H13T12954   4.155   3.175   8.915 -2.8713 -2.8679 -1.9977
  122OSM   C14S12955   4.219   3.003   8.805  0.2039  0.3512 -0.0614
  122OSM   H14S12956   4.283   3.050   8.727 -0.8517 -1.3832 -2.0562
  122OSM   H14T12957   4.117   3.000   8.762  1.7784 -0.3591 -4.1688
  122OSM   C15S12958   4.261   2.859   8.810 -0.0899 -0.1695  0.2056
  122OSM   H15S12959   4.184   2.799   8.864 -1.9192 -0.2131 -2.2847
  122OSM   H15T12960   4.349   2.847   8.877 -1.8319 -0.5695  2.5175
  122OSM   C16S12961   4.299   2.800   8.675 -0.3106  0.2309  0.4714
  122OSM   H16S12962   4.363   2.710   8.687 -0.8150 -0.1461  0.3696
  122OSM   H16T12963   4.358   2.878   8.622 -1.3709  0.3647 -0.5499
  122OSM   C17S12964   4.182   2.761   8.585  0.0525 -0.2914 -0.1195
  122OSM   H17S12965   4.215   2.762   8.479  0.0233  0.6494 -0.1254
  122OSM   H17T12966   4.100   2.836   8.592 -0.4621 -0.9510  1.2785
  122OSM   C18S12967   4.119   2.625   8.623  0.1684 -0.0118  0.2136
  122OSM   H18S12968   4.025   2.624   8.562  0.6138 -0.1710 -0.4859
  122OSM   H18T12969   4.097   2.632   8.731  1.0667  1.8621  0.3076
  122OSM   H18U12970   4.177   2.534   8.597  1.2905  0.1299  2.0754
  122OSM    C1F12971   4.154   3.668   9.982 -0.3580  0.0971  0.8438
  122OSM     OF12972   4.246   3.744  10.005 -0.2638  0.2772 -0.0102
  122OSM    C2F12973   4.037   3.706   9.909  0.1193  0.0948 -0.2130
  122OSM    H2F12974   4.013   3.808   9.947  0.5185  0.3473 -0.6197
  122OSM    H2G12975   3.951   3.640   9.930 -0.4563  0.6225 -0.8811
  122OSM    C3F12976   4.061   3.709   9.750  0.3738  0.2721  0.3343
  122OSM    H3F12977   4.166   3.735   9.724 -0.0438  0.5969 -1.0864
  122OSM    H3G12978   3.987   3.781   9.708  1.2599  0.6317 -0.6549
  122OSM    C4F12979   4.037   3.572   9.686 -0.4038  0.5252 -0.1122
  122OSM    H4F12980   3.941   3.535   9.727 -0.3488  1.8234  1.3001
  122OSM    H4G12981   4.114   3.505   9.730 -0.6953  2.1656  3.2419
  122OSM    C5F12982   4.040   3.562   9.532  0.5169  0.2532 -0.1148
  122OSM    H5F12983   3.952   3.618   9.494  1.2411 -0.1013 -2.4950
  122OSM    H5G12984   4.032   3.456   9.502 -1.6156 -0.0547  1.3057
  122OSM    C6F12985   4.164   3.626   9.465  0.2868  0.2936 -0.5308
  122OSM    H6F12986   4.250   3.621   9.535  0.7808 -1.1891 -1.2076
  122OSM    H6G12987   4.135   3.733   9.456 -2.5125 -0.4650 -1.7465
  122OSM    C7F12988   4.212   3.565   9.334  0.4288  0.5446  0.1245
  122OSM    H7F12989   4.238   3.459   9.355  1.2416  0.7684  0.3138
  122OSM    H7G12990   4.304   3.612   9.292  0.8797  1.0319  1.6117
  122OSM    C8F12991   4.109   3.560   9.222  0.6448 -0.0544  0.3768
  122OSM    H8F12992   4.086   3.665   9.196 -1.5267 -0.3926  0.7491
  122OSM    H8G12993   4.012   3.528   9.267 -0.7671  3.6343  0.2418
  122OSM    C9F12994   4.147   3.477   9.100  0.4659 -0.6642  0.3663
  122OSM    H9F12995   4.243   3.424   9.104 -0.2687 -2.0929 -0.0263
  122OSM   C10F12996   4.070   3.468   8.996  0.3972  1.2938 -0.0477
  122OSM   H10F12997   4.104   3.417   8.905  2.6947 -3.3657  3.0117
  122OSM   C11F12998   3.935   3.543   8.988 -0.4523 -0.2398 -0.7950
  122OSM   H11F12999   3.897   3.570   9.089  0.9900 -3.3281  0.7055
  122OSM   H11G13000   3.855   3.473   8.953 -2.7785  1.5699  0.6168
  122OSM   C12F13001   3.924   3.651   8.880 -0.7239  0.2587  0.1169
  122OSM   H12F13002   3.995   3.731   8.909  0.1928 -0.1483 -0.9344
  122OSM   H12G13003   3.821   3.694   8.884 -0.2612  1.2873  1.3240
  122OSM   C13F13004   3.969   3.608   8.739 -0.1232  0.7461  0.5869
  122OSM   H13F13005   3.912   3.516   8.711  1.0895  0.5435 -1.3712
  122OSM   H13G13006   4.074   3.575   8.728 -0.5783 -0.5112 -0.2588
  122OSM   C14F13007   3.947   3.716   8.632  0.3922  0.0733 -0.1347
  122OSM   H14F13008   4.011   3.802   8.662  0.2144  0.1216  0.1070
  122OSM   H14G13009   3.849   3.766   8.647  0.6911  0.1011  2.2262
  122OSM   C15F13010   3.973   3.676   8.489 -0.7880 -0.1888  0.0487
  122OSM   H15F13011   3.891   3.612   8.449  0.2344  1.7187 -6.1853
  122OSM   H15G13012   4.064   3.616   8.469 -0.9144  0.2934 -2.2265
  122OSM   C16F13013   3.980   3.789   8.392  0.2895  0.1841  0.6448
  122OSM   H16F13014   4.074   3.848   8.400  1.9375 -1.8499 -1.8914
  122OSM   H16G13015   3.890   3.850   8.413  0.1542  0.0738  0.3813
  122OSM   C17F13016   3.980   3.749   8.241  0.0059 -0.5486  0.7841
  122OSM   H17F13017   3.902   3.676   8.213 -1.5231  1.0926  0.5762
  122OSM   H17G13018   4.079   3.713   8.207  0.3609  2.1837 -1.5261
  122OSM   C18F13019   3.946   3.876   8.150  0.0307 -0.2501  0.6767
  122OSM   H18F13020   3.857   3.925   8.195  0.3104  1.4736 -0.5409
  122OSM   H18G13021   3.919   3.835   8.050 -0.7152 -0.9494  1.1501
  122OSM   H18H13022   4.021   3.958   8.153 -0.2798  0.0180  1.3737
  123OSM      N13023   1.418   2.064   6.173  0.0438 -0.4543 -0.0990
  123OSM    C1513024   1.293   2.038   6.254 -0.5060  0.2886  0.3686
  123OSM   H15A13025   1.219   1.989   6.192  0.9126  0.0660 -1.2149
  123OSM   H15B13026   1.265   2.138   6.285  0.5819  1.1150 -1.1508
  123OSM   H15C13027   1.303   1.973   6.339  1.4680 -0.1170 -0.1334
  123OSM    C1413028   1.377   2.167   6.074  0.7898  0.0428  0.5841
  123OSM   H14A13029   1.467   2.202   6.025  1.5119 -1.5374  0.7279
  123OSM   H14B13030   1.350   2.256   6.128  2.3343  0.0880  1.3382
  123OSM   H14C13031   1.309   2.131   5.998  0.6998  1.1357  0.1203
  123OSM    C1313032   1.522   2.124   6.265  0.5178  0.3788 -0.7380
  123OSM   H13A13033   1.512   2.079   6.363  1.0929 -1.1641 -1.3521
  123OSM   H13B13034   1.505   2.228   6.287 -2.6690 -0.1313 -0.1637
  123OSM   H13C13035   1.619   2.110   6.221  0.6857  2.6398 -1.1889
  123OSM    C1213036   1.469   1.943   6.104  0.3271  0.0836  0.3802
  123OSM   H12A13037   1.392   1.899   6.043 -1.4247  0.0685  2.4971
  123OSM   H12B13038   1.496   1.875   6.183  5.2989  2.2712  0.9720
  123OSM    C1113039   1.591   1.963   6.017 -0.2395 -0.5664  0.2102
  123OSM   H11A13040   1.561   2.042   5.945  0.5930  0.9034  1.4045
  123OSM   H11B13041   1.608   1.874   5.953  1.2964  1.7588 -2.8294
  123OSM      P13042   1.857   1.964   6.024 -0.1409  0.0372  0.0114
  123OSM    O1313043   1.853   1.865   5.913  0.2796  0.6397 -0.4257
  123OSM    O1413044   1.924   2.094   5.987 -0.2370 -0.2764 -0.2952
  123OSM    O1113045   1.926   1.899   6.150 -0.6517 -0.6027  0.4109
  123OSM    O1213046   1.712   1.999   6.084  0.0089 -0.7521  0.1630
  123OSM    C1S13047   1.862   1.864   6.271 -0.2238  0.0148  0.2986
  123OSM    H1S13048   1.858   1.753   6.265  2.7816 -0.3489  2.8445
  123OSM    H1T13049   1.761   1.909   6.283  0.3216  1.4670 -0.3544
  123OSM     NF13050   1.925   1.828   6.510 -0.2827 -0.1974  0.4907
  123OSM    HNF13051   1.873   1.864   6.587  1.9363  1.5675  1.2849
  123OSM    C2S13052   1.966   1.902   6.388 -0.6824 -0.2508 -0.0270
  123OSM    H2S13053   2.065   1.861   6.358 -0.0926 -0.2474  1.8028
  123OSM    C3S13054   1.964   2.052   6.402 -0.0319 -0.5020 -0.0467
  123OSM    H3S13055   1.861   2.087   6.425 -0.2802 -1.8892  1.0616
  123OSM     O313056   1.994   2.126   6.280 -0.3754 -0.3589  0.0129
  123OSM    HO313057   1.986   2.061   6.210 -0.6959  0.4087 -0.6865
  123OSM    C4S13058   2.065   2.096   6.503 -0.1714  0.5564 -0.4837
  123OSM    H4S13059   2.164   2.046   6.502  0.5889  1.9078 -3.1909
  123OSM    C5S13060   2.044   2.192   6.595 -0.4136 -0.0716 -0.3846
  123OSM    H5S13061   1.945   2.240   6.589 -0.3092  0.0134 -1.9526
  123OSM    C6S13062   2.140   2.222   6.704 -0.0396  0.1834 -0.0059
  123OSM    H6S13063   2.154   2.332   6.708  3.3640 -0.1123 -0.6674
  123OSM    H6T13064   2.239   2.172   6.697 -0.3600 -0.4227 -0.2117
  123OSM    C7S13065   2.097   2.175   6.847  0.3638  0.6435  0.2738
  123OSM    H7S13066   2.072   2.067   6.849 -1.5752  1.0137 -1.1587
  123OSM    H7T13067   2.003   2.229   6.869 -1.0281 -0.4899 -2.4394
  123OSM    C8S13068   2.209   2.204   6.950  0.4351  0.4080  0.0747
  123OSM    H8S13069   2.234   2.312   6.941 -1.5298  0.8391 -0.7691
  123OSM    H8T13070   2.302   2.147   6.928  0.4205  0.9455 -1.5681
  123OSM    C9S13071   2.159   2.188   7.094  0.2279  1.1212  0.0794
  123OSM    H9S13072   2.147   2.078   7.098  2.8766  0.7247 -0.6090
  123OSM    H9T13073   2.063   2.245   7.100 -0.2230  0.2913  0.9195
  123OSM   C10S13074   2.243   2.242   7.209 -0.2182  0.7853 -0.6459
  123OSM   H10S13075   2.229   2.349   7.234  0.8243  0.9391 -0.6645
  123OSM   H10T13076   2.351   2.234   7.181 -0.5333 -0.9919 -1.5237
  123OSM   C11S13077   2.227   2.164   7.340 -0.0019 -0.2393  0.0569
  123OSM   H11S13078   2.286   2.071   7.328 -0.6036 -0.3199 -3.4116
  123OSM   H11T13079   2.123   2.132   7.364 -0.3978  0.3831 -0.7891
  123OSM   C12S13080   2.283   2.238   7.460 -0.3989  0.5953  0.2764
  123OSM   H12S13081   2.258   2.347   7.464 -0.1752  0.8275 -2.5107
  123OSM   H12T13082   2.393   2.247   7.452 -0.3134 -0.1752  0.5664
  123OSM   C13S13083   2.267   2.168   7.593  0.3969  0.6944 -0.3111
  123OSM   H13S13084   2.275   2.058   7.584 -1.1876  0.3090  1.9541
  123OSM   H13T13085   2.166   2.178   7.638  0.6925 -1.1719  0.8692
  123OSM   C14S13086   2.376   2.212   7.698 -0.3381  0.2812  0.2594
  123OSM   H14S13087   2.420   2.312   7.681  2.3981 -0.2483  3.1958
  123OSM   H14T13088   2.461   2.140   7.695  2.1621  3.0403 -0.4085
  123OSM   C15S13089   2.322   2.198   7.841 -0.6405  0.0428  0.8932
  123OSM   H15S13090   2.288   2.092   7.836 -1.9386  0.4751 -0.3525
  123OSM   H15T13091   2.234   2.261   7.866 -1.4604 -1.2268  1.3022
  123OSM   C16S13092   2.435   2.210   7.938  0.2556 -0.4438 -0.4020
  123OSM   H16S13093   2.480   2.312   7.945 -1.7541  0.4667  0.0164
  123OSM   H16T13094   2.514   2.138   7.907 -1.1684 -1.5006 -1.7072
  123OSM   C17S13095   2.373   2.178   8.081 -0.2221  0.2321  0.7409
  123OSM   H17S13096   2.375   2.067   8.080  2.7641  0.1634 -1.8890
  123OSM   H17T13097   2.273   2.222   8.103 -0.4683  0.4085 -0.6282
  123OSM   C18S13098   2.479   2.224   8.184  0.1052  0.3616 -0.1139
  123OSM   H18S13099   2.583   2.198   8.153 -0.4618 -0.7758 -1.1584
  123OSM   H18T13100   2.450   2.175   8.279  1.8462 -0.0833  0.2315
  123OSM   H18U13101   2.472   2.335   8.179  0.3821  0.3341 -1.4309
  123OSM    C1F13102   1.969   1.703   6.519 -0.2100 -1.1899  0.0720
  123OSM     OF13103   2.014   1.644   6.418 -0.3706 -0.2727 -0.2423
  123OSM    C2F13104   1.961   1.654   6.655 -0.2082 -0.0562 -0.5658
  123OSM    H2F13105   1.853   1.644   6.682  0.2631 -2.7493  0.7375
  123OSM    H2G13106   2.008   1.722   6.728 -0.5054 -1.7711  1.3089
  123OSM    C3F13107   2.016   1.507   6.681 -0.2899  0.2450  0.3513
  123OSM    H3F13108   2.127   1.510   6.689 -0.1634  0.0821 -1.0579
  123OSM    H3G13109   1.980   1.439   6.600 -2.5142  2.2682 -0.4600
  123OSM    C4F13110   1.958   1.440   6.803  0.1918  0.5480  0.4030
  123OSM    H4F13111   1.986   1.333   6.806 -0.9738  0.2066 -0.2418
  123OSM    H4G13112   1.847   1.442   6.803 -0.0109 -2.7782  2.7411
  123OSM    C5F13113   1.996   1.500   6.936  0.4915 -0.0839 -0.1219
  123OSM    H5F13114   1.974   1.608   6.939  1.1299  0.0727 -0.7185
  123OSM    H5G13115   2.107   1.498   6.936  0.5435 -0.2134  2.5663
  123OSM    C6F13116   1.953   1.431   7.056  0.0002 -0.0902  0.2707
  123OSM    H6F13117   1.982   1.324   7.049  0.9802  0.1873 -0.0528
  123OSM    H6G13118   1.842   1.433   7.063 -0.0466 -2.6619  1.4564
  123OSM    C7F13119   2.016   1.488   7.187  0.2948 -0.2749  0.5372
  123OSM    H7F13120   1.993   1.595   7.204  1.3082 -0.0540  0.5907
  123OSM    H7G13121   2.124   1.473   7.165  0.1039 -1.6784  0.4633
  123OSM    C8F13122   1.979   1.415   7.313  0.2539  0.5814  0.4089
  123OSM    H8F13123   1.975   1.309   7.278 -0.7362  0.4036  1.0096
  123OSM    H8G13124   1.873   1.444   7.334  0.4909  0.0528  2.6525
  123OSM    C9F13125   2.064   1.419   7.433  0.0192 -0.0538 -0.0773
  123OSM    H9F13126   2.171   1.406   7.408 -0.4800  0.6480 -2.9142
  123OSM   C10F13127   2.022   1.423   7.562 -0.2473 -0.7171  0.1114
  123OSM   H10F13128   2.102   1.430   7.637  0.7913 -0.1162 -1.0188
  123OSM   C11F13129   1.877   1.436   7.612 -0.0228 -0.5210  0.0832
  123OSM   H11F13130   1.806   1.455   7.530 -0.4305 -0.2602  0.4909
  123OSM   H11G13131   1.875   1.524   7.681 -0.4780 -1.4464  1.2966
  123OSM   C12F13132   1.829   1.316   7.683  0.5630  0.2219 -0.7218
  123OSM   H12F13133   1.857   1.235   7.612  1.6111  0.4326 -0.5752
  123OSM   H12G13134   1.719   1.322   7.687  0.3603 -2.4685 -0.3534
  123OSM   C13F13135   1.885   1.291   7.820 -0.0992 -0.7740  0.2650
  123OSM   H13F13136   1.995   1.279   7.807  0.1459 -0.3201  1.7495
  123OSM   H13G13137   1.844   1.194   7.854 -0.6145 -0.4307  0.6415
  123OSM   C14F13138   1.851   1.395   7.931  0.0746 -0.0706 -0.2107
  123OSM   H14F13139   1.745   1.375   7.958 -0.2126  0.3716 -0.9621
  123OSM   H14G13140   1.850   1.491   7.875  2.0003 -1.1392 -2.2276
  123OSM   C15F13141   1.954   1.403   8.042 -0.8892 -0.3380 -0.4509
  123OSM   H15F13142   2.049   1.446   8.002 -1.2412  2.1660  1.1951
  123OSM   H15G13143   1.980   1.300   8.074 -0.7226 -0.2060 -0.1545
  123OSM   C16F13144   1.918   1.495   8.158 -0.4078  0.1981 -0.4735
  123OSM   H16F13145   1.819   1.474   8.203  0.4078 -3.3417 -0.0926
  123OSM   H16G13146   1.907   1.596   8.112  0.4775  0.4528 -0.1436
  123OSM   C17F13147   2.022   1.484   8.275 -0.2501  0.2575 -0.5238
  123OSM   H17F13148   2.132   1.488   8.258  0.3777 -2.8581  1.9212
  123OSM   H17G13149   1.999   1.385   8.320 -1.2408 -0.2870 -2.1159
  123OSM   C18F13150   1.994   1.594   8.387  0.1647 -1.1985 -0.0430
  123OSM   H18F13151   1.894   1.584   8.435  1.1146 -0.3664  2.2263
  123OSM   H18G13152   2.007   1.695   8.342 -1.2098 -0.6441  0.7600
  123OSM   H18H13153   2.062   1.582   8.474  0.4470  1.5104  0.1976
  124OSM      N13154   4.725   4.411   6.139  0.1800  0.8749 -0.8634
  124OSM    C1513155   4.833   4.327   6.073  0.1326  0.0217 -0.4287
  124OSM   H15A13156   4.923   4.385   6.058  1.6784 -2.2219 -0.3017
  124OSM   H15B13157   4.799   4.297   5.976 -0.8676 -0.0868 -0.0550
  124OSM   H15C13158   4.867   4.238   6.123 -1.3936  0.4107  1.4562
  124OSM    C1413159   4.794   4.451   6.267  0.2063  0.1973 -0.4759
  124OSM   H14A13160   4.736   4.524   6.323 -1.8983 -0.4917 -1.6506
  124OSM   H14B13161   4.895   4.485   6.250 -0.2642  2.0511  0.1879
  124OSM   H14C13162   4.785   4.371   6.339  1.3196  2.1845  2.0590
  124OSM    C1313163   4.692   4.531   6.059  0.1827  0.3953 -0.4211
  124OSM   H13A13164   4.682   4.510   5.953 -0.3032  1.9031 -0.7003
  124OSM   H13B13165   4.764   4.611   6.068  0.4645 -0.0333  1.4254
  124OSM   H13C13166   4.602   4.581   6.092  1.5615  1.3289  2.1423
  124OSM    C1213167   4.605   4.315   6.160 -0.7016 -0.0659  0.5422
  124OSM   H12A13168   4.636   4.235   6.225 -0.2668  0.1050  0.5507
  124OSM   H12B13169   4.588   4.264   6.066 -0.0134 -1.3092  1.0691
  124OSM    C1113170   4.470   4.371   6.215 -1.1818  0.5882 -0.0248
  124OSM   H11A13171   4.504   4.426   6.306  2.1768 -1.6538  0.2414
  124OSM   H11B13172   4.399   4.293   6.251 -0.5959  1.1423  2.5639
  124OSM      P13173   4.331   4.568   6.147  0.1186 -0.0671 -0.2565
  124OSM    O1313174   4.427   4.678   6.139 -0.0437  0.0295  0.1936
  124OSM    O1413175   4.209   4.579   6.064 -0.1108 -1.0122  0.2184
  124OSM    O1113176   4.280   4.544   6.305 -0.0226 -0.2395  0.1677
  124OSM    O1213177   4.407   4.436   6.104  0.4669 -0.6122 -0.0001
  124OSM    C1S13178   4.220   4.654   6.375 -0.7294 -0.0340  0.2420
  124OSM    H1S13179   4.118   4.681   6.340 -0.8287 -0.3216  0.3025
  124OSM    H1T13180   4.289   4.740   6.375 -0.0114 -0.5974  0.9720
  124OSM     NF13181   4.105   4.701   6.581  0.4124  0.0659  0.2852
  124OSM    HNF13182   4.138   4.784   6.626 -0.8765  1.2612 -0.8859
  124OSM    C2S13183   4.212   4.617   6.527  0.8860 -0.1907  0.1777
  124OSM    H2S13184   4.186   4.510   6.542  0.1719  0.0993  1.1201
  124OSM    C3S13185   4.351   4.637   6.589  0.5923  0.0009 -0.0142
  124OSM    H3S13186   4.386   4.727   6.535 -1.5474 -0.1960 -1.8388
  124OSM     O313187   4.445   4.535   6.544 -0.4555  0.4149  0.3608
  124OSM    HO313188   4.406   4.499   6.464 -0.7666 -0.6117  0.9545
  124OSM    C4S13189   4.350   4.639   6.745  0.1555 -0.3007 -0.5347
  124OSM    H4S13190   4.295   4.720   6.795 -2.9687 -1.6671 -1.4949
  124OSM    C5S13191   4.405   4.551   6.834  0.0977  0.2140 -0.1285
  124OSM    H5S13192   4.452   4.461   6.791 -0.7872  0.3116 -1.3559
  124OSM    C6S13193   4.402   4.554   6.986  0.1814  0.9154  0.2920
  124OSM    H6S13194   4.334   4.474   7.023  1.8919 -0.6804  0.1960
  124OSM    H6T13195   4.361   4.652   7.016  0.0562  1.1025 -0.4937
  124OSM    C7S13196   4.528   4.532   7.067 -0.6832 -0.1140 -0.4263
  124OSM    H7S13197   4.504   4.548   7.174 -3.1807 -0.0372 -0.9442
  124OSM    H7T13198   4.605   4.601   7.026 -3.4219  1.4333 -3.4653
  124OSM    C8S13199   4.586   4.386   7.066  0.4627  0.2442 -0.3531
  124OSM    H8S13200   4.682   4.382   7.121  0.7887  0.2130 -0.9218
  124OSM    H8T13201   4.601   4.348   6.963  2.2608  0.6483 -0.2692
  124OSM    C9S13202   4.487   4.284   7.127 -0.2040  0.4586  0.0163
  124OSM    H9S13203   4.444   4.224   7.044 -0.9614  1.3930 -0.2853
  124OSM    H9T13204   4.405   4.336   7.181  0.0591  0.8580  0.0364
  124OSM   C10S13205   4.551   4.203   7.244  0.7627 -0.5541 -0.5494
  124OSM   H10S13206   4.587   4.265   7.329  0.1003 -0.2810 -0.4664
  124OSM   H10T13207   4.636   4.148   7.197  1.0233  0.5570 -1.3941
  124OSM   C11S13208   4.452   4.105   7.313  0.2768  0.3957  0.1685
  124OSM   H11S13209   4.419   4.038   7.230  1.8942  1.8823 -1.7756
  124OSM   H11T13210   4.365   4.161   7.355 -0.7049 -1.1450  0.2729
  124OSM   C12S13211   4.516   4.012   7.418  0.6953 -0.5708 -0.0906
  124OSM   H12S13212   4.609   3.973   7.372  3.7535  3.3188  2.2564
  124OSM   H12T13213   4.452   3.928   7.453  1.2022 -0.8546  0.1661
  124OSM   C13S13214   4.554   4.098   7.546  0.3243  1.2912 -0.0534
  124OSM   H13S13215   4.470   4.153   7.593  0.1223  0.4704  0.5418
  124OSM   H13T13216   4.636   4.167   7.515 -0.4929  1.9504 -0.8326
  124OSM   C14S13217   4.607   4.008   7.661  0.4867 -0.1697  0.0368
  124OSM   H14S13218   4.527   3.940   7.698 -0.7770  1.8668  1.2478
  124OSM   H14T13219   4.617   4.078   7.747 -1.2614  0.6438 -0.3666
  124OSM   C15S13220   4.737   3.937   7.634 -0.1921 -0.8196  0.5303
  124OSM   H15S13221   4.723   3.876   7.542  0.5459 -2.5665  1.5299
  124OSM   H15T13222   4.754   3.866   7.718 -1.7761 -1.4501  0.3517
  124OSM   C16S13223   4.855   4.035   7.609  0.1850 -0.5517  0.2249
  124OSM   H16S13224   4.870   4.110   7.689 -0.4253  0.9827 -1.0597
  124OSM   H16T13225   4.830   4.095   7.519  2.0955  3.1426  1.9682
  124OSM   C17S13226   4.984   3.961   7.571  0.3293 -0.3757  0.1701
  124OSM   H17S13227   5.018   3.892   7.652  0.1409  0.0090  0.5849
  124OSM   H17T13228   5.055   4.046   7.571  0.2044 -0.2641  0.6490
  124OSM   C18S13229   4.981   3.894   7.435  0.3717 -0.5844  0.4221
  124OSM   H18S13230   5.078   3.846   7.411 -0.4432 -2.3391  0.5130
  124OSM   H18T13231   4.961   3.968   7.355  1.4381 -0.4434  0.2608
  124OSM   H18U13232   4.903   3.815   7.437  1.0032 -1.2092  1.0990
  124OSM    C1F13233   3.972   4.677   6.565  0.3896 -0.5046  0.5691
  124OSM     OF13234   3.939   4.577   6.506 -0.2090 -0.7375  0.2451
  124OSM    C2F13235   3.872   4.779   6.620  0.5044 -0.4090  0.2512
  124OSM    H2F13236   3.796   4.807   6.544  0.0016  0.2885  0.9921
  124OSM    H2G13237   3.919   4.868   6.668 -0.8150 -0.2842  1.3877
  124OSM    C3F13238   3.805   4.712   6.744 -0.5196  0.1471 -0.2016
  124OSM    H3F13239   3.878   4.662   6.811  0.6870 -1.2690 -2.4386
  124OSM    H3G13240   3.745   4.628   6.703 -1.2465  0.9834 -0.8900
  124OSM    C4F13241   3.715   4.812   6.817 -1.1181  0.1901 -0.9837
  124OSM    H4F13242   3.639   4.845   6.744 -0.5124  2.7321 -0.5896
  124OSM    H4G13243   3.771   4.904   6.845 -1.7064  1.0494 -2.5490
  124OSM    C5F13244   3.636   4.759   6.937  0.6206  0.0845 -0.2600
  124OSM    H5F13245   3.599   4.657   6.914  1.0242 -0.1387  0.0637
  124OSM    H5G13246   3.549   4.827   6.953  0.1178 -0.5725 -0.1476
  124OSM    C6F13247   3.728   4.755   7.060  0.4977 -0.1173 -0.5483
  124OSM    H6F13248   3.756   4.859   7.087  0.9709  0.0142 -1.5282
  124OSM    H6G13249   3.821   4.698   7.042 -0.3681 -1.2313 -1.7332
  124OSM    C7F13250   3.653   4.697   7.179  0.0460 -0.2475  0.0937
  124OSM    H7F13251   3.632   4.590   7.159  0.5877 -0.6065  1.3519
  124OSM    H7G13252   3.559   4.756   7.191  0.7948  1.3800 -1.5499
  124OSM    C8F13253   3.723   4.692   7.317 -0.3575 -0.0853 -0.0878
  124OSM    H8F13254   3.825   4.654   7.295 -0.3882  0.4572 -1.2454
  124OSM    H8G13255   3.679   4.606   7.372  1.2528 -1.3218 -0.6389
  124OSM    C9F13256   3.731   4.813   7.408 -0.0389 -0.6230 -0.2376
  124OSM    H9F13257   3.783   4.898   7.361 -0.1649  0.0071  0.7432
  124OSM   C10F13258   3.669   4.833   7.530  0.2074  0.3652  0.2731
  124OSM   H10F13259   3.682   4.929   7.583  0.1865 -0.7095  2.3502
  124OSM   C11F13260   3.589   4.743   7.625 -0.1191  0.0252 -0.2942
  124OSM   H11F13261   3.646   4.741   7.720  0.2990  0.7299 -0.5225
  124OSM   H11G13262   3.597   4.637   7.594  0.6825 -0.9427  2.8941
  124OSM   C12F13263   3.448   4.799   7.647 -0.6370 -0.2426  0.1662
  124OSM   H12F13264   3.400   4.807   7.547  1.7657  1.4066 -0.9460
  124OSM   H12G13265   3.444   4.905   7.681 -1.9086  0.3713 -1.7580
  124OSM   C13F13266   3.365   4.720   7.747 -0.0001  0.7936  0.4853
  124OSM   H13F13267   3.348   4.615   7.712  0.8420  0.5796  0.6998
  124OSM   H13G13268   3.265   4.767   7.756 -0.4917  0.0794 -0.9295
  124OSM   C14F13269   3.422   4.718   7.888 -0.5649 -0.2622  0.0448
  124OSM   H14F13270   3.450   4.823   7.910 -2.1591  0.3016 -0.4837
  124OSM   H14G13271   3.503   4.643   7.896 -0.5018 -0.2417 -0.4161
  124OSM   C15F13272   3.327   4.679   8.005  0.6846  0.5485  0.7536
  124OSM   H15F13273   3.264   4.589   7.986  2.8946 -0.7119 -1.1188
  124OSM   H15G13274   3.250   4.756   8.028 -2.0740 -1.5276 -0.8097
  124OSM   C16F13275   3.418   4.642   8.131  0.2301 -0.0627 -0.0168
  124OSM   H16F13276   3.470   4.737   8.153 -0.1342  0.1400 -0.0194
  124OSM   H16G13277   3.491   4.564   8.101 -0.3659 -0.8882  0.6157
  124OSM   C17F13278   3.340   4.581   8.247 -0.5134  0.1468 -0.9020
  124OSM   H17F13279   3.294   4.490   8.203 -0.7646 -1.1424  1.8164
  124OSM   H17G13280   3.269   4.662   8.274 -0.4647  0.4140 -1.5455
  124OSM   C18F13281   3.427   4.531   8.370 -0.2415 -0.1508  0.0678
  124OSM   H18F13282   3.509   4.602   8.398  1.1094 -1.4333 -0.5147
  124OSM   H18G13283   3.467   4.432   8.341  1.6717  0.8893 -1.0918
  124OSM   H18H13284   3.367   4.528   8.464 -2.1572 -0.4780 -1.1254
  125OSM      N13285   3.306   0.593   6.149 -0.1159 -0.2162  0.5888
  125OSM    C1513286   3.391   0.482   6.087  0.4189 -0.2950 -0.7214
  125OSM   H15A13287   3.460   0.449   6.163  0.4645  0.2418 -0.5275
  125OSM   H15B13288   3.448   0.519   6.003  0.0834  0.9482 -0.4167
  125OSM   H15C13289   3.332   0.401   6.046  1.2628 -1.2744 -0.0643
  125OSM    C1413290   3.403   0.676   6.230  0.0651  0.2335 -0.1461
  125OSM   H14A13291   3.372   0.779   6.238 -1.0396  0.0999 -2.0198
  125OSM   H14B13292   3.498   0.677   6.180  0.5754 -0.9835  0.7471
  125OSM   H14C13293   3.405   0.643   6.333  0.1744 -3.2863 -1.1665
  125OSM    C1313294   3.248   0.672   6.037  0.3221 -0.2500  0.2525
  125OSM   H13A13295   3.181   0.741   6.085 -0.9914 -0.1719 -1.5774
  125OSM   H13B13296   3.199   0.603   5.970  1.1091 -0.2070 -0.3772
  125OSM   H13C13297   3.328   0.730   5.992  0.4601  0.0384  0.8606
  125OSM    C1213298   3.186   0.525   6.227 -0.3084  0.0125 -0.8872
  125OSM   H12A13299   3.123   0.476   6.153 -2.0539  1.3089 -0.3258
  125OSM   H12B13300   3.128   0.607   6.267  0.4536  1.7130 -3.0540
  125OSM    C1113301   3.207   0.416   6.326 -0.1051  0.2872  0.3814
  125OSM   H11A13302   3.115   0.395   6.384 -0.7696  0.7658 -0.4683
  125OSM   H11B13303   3.281   0.460   6.396 -1.9174  3.4064  0.5497
  125OSM      P13304   3.157   0.197   6.191 -0.1478  0.0046 -0.3405
  125OSM    O1313305   3.091   0.267   6.082 -0.0379 -0.0634  0.3545
  125OSM    O1413306   3.227   0.073   6.166 -0.1622 -0.5039  0.4268
  125OSM    O1113307   3.048   0.159   6.297 -0.1245  0.2413 -0.0779
  125OSM    O1213308   3.266   0.297   6.266  0.5159 -0.4856  0.1040
  125OSM    C1S13309   3.069   0.049   6.385 -0.0687  0.5516 -0.2692
  125OSM    H1S13310   3.179   0.040   6.403  0.0770  2.0687 -0.2993
  125OSM    H1T13311   3.026  -0.043   6.339 -2.7393  1.4312  0.3128
  125OSM     NF13312   3.070  -0.032   6.621  0.0613 -0.3500  0.0489
  125OSM    HNF13313   3.020  -0.118   6.620  1.7518 -1.3695 -0.8239
  125OSM    C2S13314   3.022   0.079   6.532 -0.3544  0.6880 -0.0536
  125OSM    H2S13315   3.069   0.174   6.564  0.1925  0.3302  0.2156
  125OSM    C3S13316   2.868   0.075   6.531  0.2937 -0.0420  0.4895
  125OSM    H3S13317   2.828  -0.017   6.483  0.5208 -0.2465  0.6937
  125OSM     O313318   2.821   0.189   6.457  0.1265 -0.6748 -0.4003
  125OSM    HO313319   2.885   0.240   6.407 -1.3801 -0.6518 -2.4444
  125OSM    C4S13320   2.806   0.084   6.662  0.4364  0.3606  0.4568
  125OSM    H4S13321   2.792   0.185   6.701 -1.4220  0.9746 -1.5861
  125OSM    C5S13322   2.764  -0.019   6.731  0.4750 -0.0056  0.0420
  125OSM    H5S13323   2.778  -0.121   6.692  1.0492  0.1204 -0.0752
  125OSM    C6S13324   2.697  -0.006   6.870  0.2290  0.4002 -0.5376
  125OSM    H6S13325   2.762  -0.060   6.941  0.2252  0.9309 -0.1204
  125OSM    H6T13326   2.601  -0.063   6.863  0.7371 -0.6137  0.5331
  125OSM    C7S13327   2.649   0.135   6.926 -0.4149  0.2388 -0.1892
  125OSM    H7S13328   2.569   0.172   6.858 -1.2652 -0.4828  0.3865
  125OSM    H7T13329   2.730   0.210   6.937 -0.8390  0.5644  0.8663
  125OSM    C8S13330   2.585   0.122   7.067  0.5478  0.3233  0.9154
  125OSM    H8S13331   2.665   0.097   7.139  0.8859  1.7063  1.0548
  125OSM    H8T13332   2.519   0.033   7.057  0.8433  0.2098 -0.2432
  125OSM    C9S13333   2.489   0.232   7.111  0.7084  0.0775  0.0381
  125OSM    H9S13334   2.420   0.260   7.029  1.4132 -0.5616 -0.7855
  125OSM    H9T13335   2.549   0.321   7.141  0.3266  1.2646 -2.4278
  125OSM   C10S13336   2.411   0.192   7.242 -0.2371  0.5030 -0.1994
  125OSM   H10S13337   2.369   0.089   7.244 -0.4279  0.5874  0.7543
  125OSM   H10T13338   2.326   0.264   7.247 -0.7984  0.0817 -2.5549
  125OSM   C11S13339   2.485   0.213   7.376 -0.5962  0.2213  0.4278
  125OSM   H11S13340   2.514   0.320   7.388  0.8820 -0.3027  1.9450
  125OSM   H11T13341   2.577   0.152   7.366 -2.1318 -1.8219 -3.4204
  125OSM   C12S13342   2.404   0.166   7.499 -0.3981 -0.2128  0.8288
  125OSM   H12S13343   2.359   0.066   7.484 -2.5216  0.5332  1.7850
  125OSM   H12T13344   2.314   0.230   7.500  0.0550  1.0061 -4.7732
  125OSM   C13S13345   2.494   0.181   7.621 -0.6487 -0.1820  0.2724
  125OSM   H13S13346   2.511   0.288   7.645  1.0454 -0.1164 -1.0652
  125OSM   H13T13347   2.587   0.125   7.594  0.7489  2.8601 -1.7243
  125OSM   C14S13348   2.444   0.128   7.756  0.2020  0.7090  0.0402
  125OSM   H14S13349   2.443   0.021   7.726  2.2802 -0.1831  2.7139
  125OSM   H14T13350   2.343   0.159   7.790  0.9426  2.4436  0.7752
  125OSM   C15S13351   2.558   0.162   7.860  0.6673 -0.1259  0.0751
  125OSM   H15S13352   2.570   0.273   7.867 -0.1436 -0.1449  3.2824
  125OSM   H15T13353   2.650   0.116   7.820  0.8494 -1.3511  1.8155
  125OSM   C16S13354   2.517   0.099   7.998 -0.3452 -0.0657 -0.9567
  125OSM   H16S13355   2.479  -0.005   7.986 -0.2202 -0.3323  0.6396
  125OSM   H16T13356   2.435   0.157   8.045 -0.2624 -0.8772  0.2612
  125OSM   C17S13357   2.642   0.096   8.090 -0.2346 -0.8767 -0.3033
  125OSM   H17S13358   2.693   0.194   8.105  1.5635 -1.5899 -1.4309
  125OSM   H17T13359   2.710   0.041   8.022 -0.9938 -1.6074 -0.4892
  125OSM   C18S13360   2.631   0.011   8.223  1.0584 -0.1538  0.4220
  125OSM   H18S13361   2.606  -0.095   8.201  1.1727 -0.0759 -0.0800
  125OSM   H18T13362   2.559   0.068   8.286 -0.1392  1.4304 -2.2014
  125OSM   H18U13363   2.736   0.013   8.260  1.9454  0.1094 -1.9682
  125OSM    C1F13364   3.192  -0.030   6.681  0.1246  0.0861  0.6990
  125OSM     OF13365   3.272   0.060   6.665  1.3443  0.5890 -0.2979
  125OSM    C2F13366   3.235  -0.150   6.760 -0.1623  0.3239 -0.4128
  125OSM    H2F13367   3.341  -0.138   6.791  0.1181 -0.4323 -1.0731
  125OSM    H2G13368   3.222  -0.247   6.708 -0.8819  0.9631 -1.4577
  125OSM    C3F13369   3.159  -0.157   6.897  0.3678 -0.0727 -0.4088
  125OSM    H3F13370   3.051  -0.143   6.877 -0.5345 -2.2750  2.2707
  125OSM    H3G13371   3.186  -0.071   6.963 -1.4399  0.1396  0.1040
  125OSM    C4F13372   3.177  -0.294   6.965  0.1849 -0.2124 -0.1906
  125OSM    H4F13373   3.164  -0.373   6.888  0.6933 -0.0214 -0.4707
  125OSM    H4G13374   3.092  -0.309   7.035 -0.0508  0.0744 -0.4119
  125OSM    C5F13375   3.309  -0.314   7.040  0.1923 -0.4555  1.5681
  125OSM    H5F13376   3.339  -0.215   7.081 -1.0766  1.3280 -1.4754
  125OSM    H5G13377   3.387  -0.333   6.962  0.1354  2.4109  0.6824
  125OSM    C6F13378   3.309  -0.415   7.151  0.2253 -0.1112 -0.5292
  125OSM    H6F13379   3.410  -0.418   7.197 -0.2047  1.2659  0.5969
  125OSM    H6G13380   3.281  -0.517   7.117  2.3783 -0.7878 -0.3952
  125OSM    C7F13381   3.215  -0.362   7.269  0.2197 -0.0370 -0.2016
  125OSM    H7F13382   3.114  -0.347   7.224 -0.1129  0.4053  0.6802
  125OSM    H7G13383   3.247  -0.263   7.306  1.4016 -0.9489  1.3142
  125OSM    C8F13384   3.216  -0.457   7.392  0.0579  0.2705  0.4083
  125OSM    H8F13385   3.322  -0.460   7.428 -0.3643  0.4053  1.7105
  125OSM    H8G13386   3.162  -0.547   7.356 -1.9335  1.3541  0.5609
  125OSM    C9F13387   3.133  -0.403   7.509  0.2223  0.9924 -0.7348
  125OSM    H9F13388   3.025  -0.411   7.491  0.0396  0.8292  0.3556
  125OSM   C10F13389   3.179  -0.347   7.627 -0.5542  0.2018  0.1029
  125OSM   H10F13390   3.104  -0.317   7.701  0.3906  0.3728  1.0067
  125OSM   C11F13391   3.325  -0.317   7.657 -0.0528 -0.1443 -0.4919
  125OSM   H11F13392   3.330  -0.218   7.708 -0.5602 -0.7368  0.7742
  125OSM   H11G13393   3.367  -0.300   7.556 -2.4233 -0.1543 -1.5472
  125OSM   C12F13394   3.397  -0.424   7.744 -0.4842  0.2252 -1.2980
  125OSM   H12F13395   3.499  -0.384   7.762 -0.3605 -0.7123  0.2791
  125OSM   H12G13396   3.398  -0.516   7.681  1.3204 -2.4035  2.2244
  125OSM   C13F13397   3.337  -0.451   7.888  0.2096 -0.4842  0.4941
  125OSM   H13F13398   3.243  -0.503   7.861  0.6908 -0.4958 -1.3264
  125OSM   H13G13399   3.294  -0.356   7.926  2.4646  0.9073 -0.1998
  125OSM   C14F13400   3.435  -0.534   7.969  0.0805  0.5477 -0.5299
  125OSM   H14F13401   3.539  -0.498   7.959  1.9495 -3.1634  2.7780
  125OSM   H14G13402   3.431  -0.635   7.923 -1.2348 -0.5288  1.7958
  125OSM   C15F13403   3.414  -0.562   8.120 -0.3344 -0.2386 -0.4833
  125OSM   H15F13404   3.477  -0.641   8.167  0.0137 -0.4951 -1.3732
  125OSM   H15G13405   3.308  -0.593   8.129 -0.6088  0.0185 -2.4160
  125OSM   C16F13406   3.421  -0.444   8.207  0.5428  0.0748 -1.3991
  125OSM   H16F13407   3.364  -0.367   8.151  0.5187 -0.2291 -1.7932
  125OSM   H16G13408   3.526  -0.408   8.216  0.7843 -0.7843 -0.6099
  125OSM   C17F13409   3.361  -0.469   8.341  0.1072  0.4061 -0.6556
  125OSM   H17F13410   3.421  -0.546   8.394  1.3786  2.5658  1.2375
  125OSM   H17G13411   3.254  -0.495   8.328  0.3900 -0.5911 -1.0757
  125OSM   C18F13412   3.368  -0.345   8.422 -0.0591 -0.5838 -0.0249
  125OSM   H18F13413   3.322  -0.365   8.521  0.6975  4.2816  1.5644
  125OSM   H18G13414   3.320  -0.256   8.375  3.5715  0.9256 -1.2068
  125OSM   H18H13415   3.474  -0.312   8.422 -0.0542 -0.5956  0.8514
  126OSM      N13416   0.165   6.652   6.014  0.5768  0.6837  0.7760
  126OSM    C1513417   0.317   6.661   5.998  0.2607  0.0992  0.6830
  126OSM   H15A13418   0.355   6.636   6.096 -0.7280  2.1978  1.6742
  126OSM   H15B13419   0.336   6.762   5.966 -2.0456  0.6408  0.8175
  126OSM   H15C13420   0.355   6.600   5.917 -0.0620 -0.0190  0.6185
  126OSM    C1413421   0.106   6.700   5.890 -0.2458 -0.0960  0.1168
  126OSM   H14A13422   0.151   6.646   5.808  0.6374  0.2506  0.3621
  126OSM   H14B13423   0.142   6.797   5.862 -2.1617  0.2607 -1.2794
  126OSM   H14C13424  -0.001   6.687   5.891 -0.1897 -0.7253 -0.9929
  126OSM    C1313425   0.126   6.506   6.039 -0.0059  0.1045  0.0494
  126OSM   H13A13426   0.167   6.465   6.130  0.2256  1.3859  0.5359
  126OSM   H13B13427   0.154   6.446   5.954  0.5010 -0.3429  0.5287
  126OSM   H13C13428   0.018   6.501   6.050  0.0717  0.2648  0.8988
  126OSM    C1213429   0.122   6.738   6.133  0.2316  1.1595 -0.2958
  126OSM   H12A13430   0.015   6.745   6.149  0.4448 -0.3423  2.4243
  126OSM   H12B13431   0.155   6.838   6.111 -1.4031  3.1350  4.8311
  126OSM    C1113432   0.183   6.723   6.276  0.0678  0.1674 -0.6002
  126OSM   H11A13433   0.147   6.807   6.339 -0.5278  0.2934 -1.0951
  126OSM   H11B13434   0.292   6.731   6.259  0.2508  0.3227  0.5806
  126OSM      P13435   0.009   6.562   6.399  0.0093 -0.2049 -0.2517
  126OSM    O1313436  -0.093   6.580   6.294  0.0352 -0.8878 -0.3524
  126OSM    O1413437   0.006   6.437   6.472 -0.7908 -0.3871  0.0911
  126OSM    O1113438  -0.008   6.683   6.500  0.0889 -0.7275 -0.5563
  126OSM    O1213439   0.154   6.596   6.340  0.5941 -0.0055 -0.1980
  126OSM    C1S13440  -0.081   6.658   6.626  0.4897  0.2010  1.0779
  126OSM    H1S13441  -0.145   6.567   6.620  0.4236  0.1646  2.0992
  126OSM    H1T13442  -0.153   6.741   6.641  1.7567  1.3138  1.2023
  126OSM     NF13443  -0.068   6.615   6.880  0.6442  0.1921  0.5096
  126OSM    HNF13444  -0.113   6.694   6.919  0.9764 -0.7554  2.9893
  126OSM    C2S13445   0.010   6.644   6.755  0.0267 -0.4481 -0.1476
  126OSM    H2S13446   0.078   6.560   6.731  1.5127  0.1406  1.7230
  126OSM    C3S13447   0.101   6.775   6.759 -0.2106  0.3119 -0.7683
  126OSM    H3S13448   0.043   6.870   6.768  0.4315  0.5955  0.8037
  126OSM     O313449   0.181   6.787   6.642 -0.6945  0.0043 -0.5369
  126OSM    HO313450   0.126   6.726   6.593 -0.2294 -2.1721  1.4348
  126OSM    C4S13451   0.190   6.777   6.878 -0.0696  0.1291 -0.4617
  126OSM    H4S13452   0.173   6.848   6.960  1.7381 -3.3145  3.2379
  126OSM    C5S13453   0.296   6.697   6.901  0.1127  1.0321  0.0279
  126OSM    H5S13454   0.325   6.616   6.831 -0.6775  0.4973  0.3002
  126OSM    C6S13455   0.391   6.707   7.020  0.1168 -0.3415  0.2167
  126OSM    H6S13456   0.367   6.800   7.076 -2.6413 -0.9490  0.2040
  126OSM    H6T13457   0.494   6.719   6.980  0.5991 -1.8461  0.9378
  126OSM    C7S13458   0.393   6.594   7.124  0.0965  0.4176  0.1650
  126OSM    H7S13459   0.486   6.610   7.183  0.5138 -1.1913 -0.0262
  126OSM    H7T13460   0.407   6.497   7.073 -2.7033  0.3806 -0.7016
  126OSM    C8S13461   0.264   6.578   7.206  0.5329 -0.5739  0.0681
  126OSM    H8S13462   0.180   6.554   7.136 -0.1369  2.8102 -0.4840
  126OSM    H8T13463   0.228   6.680   7.230  1.8446 -0.5614  2.1542
  126OSM    C9S13464   0.271   6.482   7.327 -0.3739  0.6405 -0.1547
  126OSM    H9S13465   0.352   6.517   7.395 -0.5047  1.4172 -0.3810
  126OSM    H9T13466   0.295   6.379   7.294 -1.4019  0.6874 -1.0911
  126OSM   C10S13467   0.146   6.496   7.421 -0.5096  0.0532  0.1708
  126OSM   H10S13468   0.058   6.465   7.360 -0.8116  0.6624  0.2901
  126OSM   H10T13469   0.142   6.600   7.458  0.9580 -0.2397  1.2374
  126OSM   C11S13470   0.163   6.398   7.541 -0.3370 -0.4245 -0.0931
  126OSM   H11S13471   0.264   6.407   7.586 -0.6015  0.3497  0.3499
  126OSM   H11T13472   0.155   6.297   7.496  0.4770 -0.5123 -0.0585
  126OSM   C12S13473   0.069   6.413   7.662  0.0776 -0.3929  0.3669
  126OSM   H12S13474  -0.036   6.385   7.641 -0.2668 -0.2139  1.7529
  126OSM   H12T13475   0.074   6.524   7.670 -2.4709 -0.1251 -0.8342
  126OSM   C13S13476   0.127   6.356   7.796 -0.2826  0.0515 -0.0901
  126OSM   H13S13477   0.228   6.399   7.808 -0.5385  0.4813  0.5805
  126OSM   H13T13478   0.133   6.245   7.785 -0.4056  0.1467 -1.2364
  126OSM   C14S13479   0.051   6.387   7.925  0.3983 -0.1858  0.0698
  126OSM   H14S13480  -0.054   6.384   7.889  0.6491  0.6819 -0.7604
  126OSM   H14T13481   0.061   6.490   7.968 -2.6998  0.9991 -1.6697
  126OSM   C15S13482   0.087   6.290   8.040 -0.7928  0.1807  0.3581
  126OSM   H15S13483   0.196   6.303   8.054 -0.5370 -1.9638  0.7265
  126OSM   H15T13484   0.081   6.185   8.005  0.4839 -0.4839  1.9744
  126OSM   C16S13485   0.003   6.321   8.163 -0.2672  0.1252 -0.1896
  126OSM   H16S13486  -0.100   6.280   8.150  0.2961 -1.0194 -1.2580
  126OSM   H16T13487  -0.012   6.427   8.193 -1.1451 -0.1321  0.3238
  126OSM   C17S13488   0.052   6.231   8.278  0.3899  0.2421  0.2947
  126OSM   H17S13489   0.153   6.266   8.309 -0.6721  2.1407  1.8512
  126OSM   H17T13490   0.053   6.123   8.255  2.9383 -0.3398  2.5766
  126OSM   C18S13491  -0.038   6.238   8.400  0.0302  0.2372 -0.7044
  126OSM   H18S13492  -0.034   6.334   8.456 -2.4865 -0.7069  1.3189
  126OSM   H18T13493  -0.012   6.156   8.472  0.5153  2.1836  1.4533
  126OSM   H18U13494  -0.146   6.234   8.376 -0.2656 -1.9370  0.6688
  126OSM    C1F13495  -0.120   6.498   6.893  0.0838  0.2555 -0.6685
  126OSM     OF13496  -0.064   6.396   6.849  0.0852 -0.3423  0.2740
  126OSM    C2F13497  -0.250   6.491   6.972 -0.3873  0.2602 -0.1698
  126OSM    H2F13498  -0.331   6.478   6.898 -0.6599 -1.5634  0.3868
  126OSM    H2G13499  -0.264   6.589   7.021 -0.4446 -0.0223  0.3947
  126OSM    C3F13500  -0.247   6.373   7.074 -0.9580 -0.2932  0.1907
  126OSM    H3F13501  -0.147   6.369   7.123 -1.0557 -1.6841  0.3026
  126OSM    H3G13502  -0.273   6.276   7.028 -2.6546  0.3102 -0.1870
  126OSM    C4F13503  -0.334   6.394   7.194  0.9066 -0.0101  0.0111
  126OSM    H4F13504  -0.328   6.299   7.252  1.5852  0.4692  0.7387
  126OSM    H4G13505  -0.442   6.408   7.173  0.4285  1.9976  3.2178
  126OSM    C5F13506  -0.294   6.509   7.290  0.0591 -0.5661 -0.1710
  126OSM    H5F13507  -0.345   6.607   7.275  1.5531  0.1477 -0.7672
  126OSM    H5G13508  -0.187   6.532   7.275 -0.1687  0.0358 -0.9759
  126OSM    C6F13509  -0.309   6.477   7.438  0.0437 -0.4590  0.0717
  126OSM    H6F13510  -0.224   6.416   7.477  1.2251  0.4499 -0.9830
  126OSM    H6G13511  -0.409   6.430   7.447  0.9861 -2.5405  0.1154
  126OSM    C7F13512  -0.312   6.607   7.518  0.7401  0.0534  0.3770
  126OSM    H7F13513  -0.405   6.664   7.499  0.0160 -1.4932 -0.9449
  126OSM    H7G13514  -0.227   6.670   7.485  0.3957  1.1253  1.4621
  126OSM    C8F13515  -0.306   6.580   7.670 -0.4341 -0.2116 -0.0506
  126OSM    H8F13516  -0.213   6.537   7.711 -0.4068  0.0823  0.2002
  126OSM    H8G13517  -0.390   6.510   7.689  0.3664 -1.7666 -1.9420
  126OSM    C9F13518  -0.331   6.716   7.741  0.3785 -0.1226  0.0372
  126OSM    H9F13519  -0.303   6.809   7.690 -0.5255 -0.6244 -1.4515
  126OSM   C10F13520  -0.394   6.718   7.862 -0.1267  0.3248  0.5209
  126OSM   H10F13521  -0.405   6.810   7.921 -2.9809 -0.2089  0.9705
  126OSM   C11F13522  -0.446   6.595   7.936 -0.1717  0.3718  0.3707
  126OSM   H11F13523  -0.407   6.496   7.907 -2.5939 -0.2124 -1.1739
  126OSM   H11G13524  -0.557   6.586   7.929  0.0817 -2.4898 -1.2769
  126OSM   C12F13525  -0.402   6.608   8.087  1.2377 -0.2449  0.1796
  126OSM   H12F13526  -0.296   6.637   8.099  0.8271  0.3647  3.3041
  126OSM   H12G13527  -0.418   6.511   8.139 -0.0906 -0.2517 -0.2126
  126OSM   C13F13528  -0.483   6.714   8.166 -0.3789  0.1554 -0.0734
  126OSM   H13F13529  -0.587   6.676   8.174 -0.5351  0.4815 -0.5169
  126OSM   H13G13530  -0.507   6.810   8.115  0.6117  0.2693 -0.3386
  126OSM   C14F13531  -0.424   6.732   8.305 -0.3460 -0.6073  0.2376
  126OSM   H14F13532  -0.320   6.770   8.295  0.5461 -2.9569  0.0461
  126OSM   H14G13533  -0.426   6.643   8.371 -1.2385 -1.7828 -1.3212
  126OSM   C15F13534  -0.502   6.837   8.390  0.6114  0.4934  0.0726
  126OSM   H15F13535  -0.541   6.926   8.337 -3.3008 -1.4532 -0.6713
  126OSM   H15G13536  -0.438   6.873   8.474  0.1203 -0.8492  1.0513
  126OSM   C16F13537  -0.627   6.776   8.452  1.1183  0.7937 -0.1011
  126OSM   H16F13538  -0.614   6.674   8.495  1.4874 -0.4512 -2.9777
  126OSM   H16G13539  -0.695   6.755   8.367  0.4192  0.5340  0.5063
  126OSM   C17F13540  -0.709   6.861   8.556 -0.3687  1.0382 -0.0426
  126OSM   H17F13541  -0.802   6.800   8.563  1.0425 -1.2356 -0.1266
  126OSM   H17G13542  -0.727   6.956   8.501  1.5180  1.0693 -0.6653
  126OSM   C18F13543  -0.643   6.881   8.698  0.6531 -0.1195 -0.2092
  126OSM   H18F13544  -0.537   6.913   8.693 -0.3642  4.3642  1.6178
  126OSM   H18G13545  -0.644   6.783   8.750 -0.2289 -0.1462 -0.2607
  126OSM   H18H13546  -0.695   6.963   8.753 -0.9266  0.2007 -2.0739
  127OSM      N13547   1.759   5.073   5.818 -0.0827  0.3620  0.2118
  127OSM    C1513548   1.646   5.162   5.774  0.1028 -0.2315 -0.5017
  127OSM   H15A13549   1.662   5.261   5.815  1.1522  0.2026 -1.8692
  127OSM   H15B13550   1.549   5.120   5.796  0.1591  0.4183  1.1443
  127OSM   H15C13551   1.654   5.175   5.667  0.8842  0.1298 -0.4074
  127OSM    C1413552   1.756   4.947   5.742  0.6209 -0.0878 -0.4468
  127OSM   H14A13553   1.855   4.906   5.748 -0.4726 -3.1653 -1.1965
  127OSM   H14B13554   1.750   4.962   5.635 -0.3827 -0.9036 -0.5294
  127OSM   H14C13555   1.677   4.882   5.779  0.6455  0.5961  0.8454
  127OSM    C1313556   1.882   5.142   5.783 -0.2901 -0.3284 -0.2014
  127OSM   H13A13557   1.968   5.097   5.831 -0.0882  2.1932  2.0596
  127OSM   H13B13558   1.874   5.244   5.820 -1.5339 -1.2423  2.3226
  127OSM   H13C13559   1.898   5.153   5.677 -1.3301 -0.5930 -0.3903
  127OSM    C1213560   1.763   5.064   5.971  0.1483  0.5170  0.0822
  127OSM   H12A13561   1.777   5.162   6.013 -0.3355  0.0806  1.3009
  127OSM   H12B13562   1.852   5.007   5.994 -0.3164 -0.9114 -1.4353
  127OSM    C1113563   1.643   4.995   6.034 -0.1523 -0.3770 -0.1554
  127OSM   H11A13564   1.658   4.992   6.144  1.0850  0.4789 -0.2750
  127OSM   H11B13565   1.644   4.896   5.983  1.5474  0.0786 -1.0648
  127OSM      P13566   1.464   5.173   6.098 -0.1808 -0.0731  0.0641
  127OSM    O1313567   1.570   5.266   6.127  0.5016 -0.4433 -0.0159
  127OSM    O1413568   1.336   5.227   6.040 -0.2207 -0.2934  0.1518
  127OSM    O1113569   1.425   5.097   6.230 -0.6770 -0.3850  0.4519
  127OSM    O1213570   1.514   5.061   5.996 -0.1425  0.2951 -0.2023
  127OSM    C1S13571   1.451   5.168   6.358 -0.2005 -0.1768  0.2396
  127OSM    H1S13572   1.395   5.264   6.358 -0.7320 -0.4706  1.6931
  127OSM    H1T13573   1.560   5.186   6.370 -0.1349 -1.0357  0.9646
  127OSM     NF13574   1.428   5.156   6.611  0.3173  0.7105  0.0097
  127OSM    HNF13575   1.518   5.158   6.653  0.5550  0.1088 -0.4588
  127OSM    C2S13576   1.418   5.082   6.485 -0.0434 -0.1735 -0.2776
  127OSM    H2S13577   1.315   5.046   6.465  0.2291 -1.3418  0.3046
  127OSM    C3S13578   1.509   4.951   6.472  0.1719  0.2119 -0.2053
  127OSM    H3S13579   1.607   5.001   6.489 -0.4683  1.5988 -0.4769
  127OSM     O313580   1.508   4.876   6.353  0.0459  0.0932  0.3579
  127OSM    HO313581   1.462   4.931   6.289  1.3946  0.4603 -0.3234
  127OSM    C4S13582   1.486   4.867   6.589 -0.7010 -0.4432 -0.1210
  127OSM    H4S13583   1.567   4.873   6.664  0.6343 -3.2178 -1.1699
  127OSM    C5S13584   1.383   4.786   6.614  0.1998  0.4376  0.1680
  127OSM    H5S13585   1.294   4.790   6.550  2.9537  1.4025 -4.0274
  127OSM    C6S13586   1.364   4.697   6.731 -0.0165 -0.7253  0.5334
  127OSM    H6S13587   1.356   4.590   6.704  2.1742 -1.3076  1.8844
  127OSM    H6T13588   1.264   4.729   6.767 -0.6005 -1.3413 -0.4971
  127OSM    C7S13589   1.459   4.703   6.852 -0.1912  0.3444  0.4841
  127OSM    H7S13590   1.471   4.805   6.894 -1.9992  0.6038  0.4494
  127OSM    H7T13591   1.564   4.678   6.826  1.0279  2.8230  2.5357
  127OSM    C8S13592   1.415   4.613   6.970  0.4011 -1.1138 -0.4325
  127OSM    H8S13593   1.426   4.504   6.953  0.1752 -1.7248  2.7182
  127OSM    H8T13594   1.311   4.626   7.007  1.0111 -1.7407  1.6419
  127OSM    C9S13595   1.499   4.644   7.100 -0.5504  0.1671  0.1718
  127OSM    H9S13596   1.493   4.748   7.137  3.5892  0.9185 -0.6987
  127OSM    H9T13597   1.604   4.624   7.068 -0.6229 -0.6956  0.4450
  127OSM   C10S13598   1.472   4.541   7.210  1.1008 -0.1763  0.4186
  127OSM   H10S13599   1.468   4.445   7.155 -0.0354 -0.6550  1.3110
  127OSM   H10T13600   1.367   4.557   7.242  1.2996 -0.4399  1.2371
  127OSM   C11S13601   1.555   4.542   7.331 -0.4249 -0.3451 -0.6523
  127OSM   H11S13602   1.522   4.623   7.401 -0.2229  0.9157 -1.9742
  127OSM   H11T13603   1.649   4.598   7.311  0.8541 -2.0596  0.3250
  127OSM   C12S13604   1.570   4.402   7.399 -0.3909 -0.3789  0.3488
  127OSM   H12S13605   1.641   4.343   7.336  0.4109  0.3611  0.5271
  127OSM   H12T13606   1.473   4.349   7.399  0.0723 -1.2822  1.8089
  127OSM   C13S13607   1.642   4.419   7.533  1.3101 -0.0260 -0.1200
  127OSM   H13S13608   1.589   4.486   7.602 -0.1854 -2.5401  1.3113
  127OSM   H13T13609   1.738   4.470   7.506  0.9788  0.3945 -0.5218
  127OSM   C14S13610   1.667   4.289   7.603  0.0564  0.1711  0.8217
  127OSM   H14S13611   1.742   4.227   7.550  0.1879  0.9246  0.0955
  127OSM   H14T13612   1.571   4.233   7.603 -0.2768  0.6894 -0.6345
  127OSM   C15S13613   1.720   4.316   7.746  0.9698 -0.4602 -0.0642
  127OSM   H15S13614   1.673   4.407   7.790  0.1999 -0.7915 -0.1914
  127OSM   H15T13615   1.831   4.318   7.738  1.0289 -2.2999  0.0485
  127OSM   C16S13616   1.688   4.200   7.836 -0.1094  0.3688 -0.1242
  127OSM   H16S13617   1.743   4.111   7.801 -0.5638 -0.1037  0.3492
  127OSM   H16T13618   1.579   4.186   7.850  0.0071  0.5636  1.1526
  127OSM   C17S13619   1.751   4.222   7.979 -0.3070 -1.0542 -0.1709
  127OSM   H17S13620   1.860   4.230   7.962 -0.0609 -0.5330  1.4323
  127OSM   H17T13621   1.742   4.143   8.057  1.8904  0.4917  1.8083
  127OSM   C18S13622   1.703   4.351   8.045  0.3176 -0.3699 -0.1451
  127OSM   H18S13623   1.592   4.346   8.054 -0.0461  3.4899 -0.8535
  127OSM   H18T13624   1.724   4.437   7.979 -2.5286 -0.5452 -1.4235
  127OSM   H18U13625   1.744   4.357   8.148 -2.6748 -2.5449  1.3370
  127OSM    C1F13626   1.345   5.240   6.652 -0.2825 -1.1890  0.1700
  127OSM     OF13627   1.246   5.271   6.581  0.2801 -0.2912  0.5311
  127OSM    C2F13628   1.368   5.292   6.793  0.2842  0.4765 -0.3882
  127OSM    H2F13629   1.474   5.293   6.823  0.5003  1.7823 -1.1474
  127OSM    H2G13630   1.320   5.222   6.865  0.3063  0.3678 -0.4778
  127OSM    C3F13631   1.302   5.425   6.807 -0.0049  0.0336  0.3267
  127OSM    H3F13632   1.193   5.419   6.788  0.1933 -1.4325 -0.4798
  127OSM    H3G13633   1.340   5.507   6.742  1.0377  0.4797  1.4555
  127OSM    C4F13634   1.320   5.480   6.950 -0.2065 -0.0032  0.3828
  127OSM    H4F13635   1.255   5.420   7.018  0.2307 -1.4734 -0.4553
  127OSM    H4G13636   1.282   5.584   6.938  1.7658  0.7636  0.4944
  127OSM    C5F13637   1.455   5.474   7.018  0.2978 -0.0578  0.2387
  127OSM    H5F13638   1.539   5.497   6.949  1.2816  1.3224  1.7936
  127OSM    H5G13639   1.468   5.368   7.048  1.2857  0.7160  2.9400
  127OSM    C6F13640   1.468   5.549   7.150 -0.5747  1.0495  0.1412
  127OSM    H6F13641   1.454   5.657   7.125 -2.4751  0.4181 -1.8316
  127OSM    H6G13642   1.568   5.529   7.194 -1.0646 -2.0161  0.0503
  127OSM    C7F13643   1.356   5.515   7.244  0.3698 -0.7004 -0.4649
  127OSM    H7F13644   1.343   5.404   7.248  0.7720 -0.7144  1.4192
  127OSM    H7G13645   1.259   5.544   7.198 -0.2501  0.8013  1.6540
  127OSM    C8F13646   1.373   5.585   7.378  0.5333  0.4129 -0.4953
  127OSM    H8F13647   1.280   5.597   7.437  0.4072 -0.1249 -0.5795
  127OSM    H8G13648   1.397   5.692   7.357  0.0228  0.3000 -1.7585
  127OSM    C9F13649   1.483   5.537   7.470  0.5602 -0.2797  1.0855
  127OSM    H9F13650   1.583   5.582   7.459  0.2812  0.1252  0.0901
  127OSM   C10F13651   1.462   5.443   7.558  0.2273  0.3433  0.8138
  127OSM   H10F13652   1.547   5.402   7.614  1.3663  0.4490 -0.7730
  127OSM   C11F13653   1.335   5.370   7.591 -0.1445  0.1284 -0.4386
  127OSM   H11F13654   1.330   5.270   7.543  1.1773 -0.9988  1.6171
  127OSM   H11G13655   1.241   5.419   7.559 -0.8174 -0.7873  0.0796
  127OSM   C12F13656   1.328   5.348   7.747  0.5449  0.3939 -0.6300
  127OSM   H12F13657   1.370   5.439   7.794  0.7857  0.5971 -1.2233
  127OSM   H12G13658   1.392   5.263   7.779 -0.1483  0.4771  1.1021
  127OSM   C13F13659   1.185   5.327   7.805 -0.4914 -0.5941  0.1389
  127OSM   H13F13660   1.139   5.234   7.764 -0.3741 -0.1088 -1.1508
  127OSM   H13G13661   1.124   5.410   7.764  0.3068  0.4919  1.0919
  127OSM   C14F13662   1.184   5.345   7.959 -0.3714  0.2847 -0.2711
  127OSM   H14F13663   1.081   5.364   7.997 -0.8442 -1.2049 -0.7602
  127OSM   H14G13664   1.237   5.441   7.975  1.3392 -0.8646  1.3261
  127OSM   C15F13665   1.256   5.240   8.043  0.5918 -0.3814  0.5010
  127OSM   H15F13666   1.366   5.237   8.032  0.6656 -3.3495  1.2533
  127OSM   H15G13667   1.216   5.149   7.995 -0.8639  1.1894 -1.4288
  127OSM   C16F13668   1.203   5.244   8.190 -0.6495  0.0082 -0.5039
  127OSM   H16F13669   1.101   5.285   8.202 -0.9748 -1.0498  0.5372
  127OSM   H16G13670   1.270   5.317   8.242  0.3289  0.5822 -2.4764
  127OSM   C17F13671   1.196   5.114   8.264 -0.1165 -0.0915  0.3814
  127OSM   H17F13672   1.301   5.078   8.276  0.7205  1.5295 -1.5166
  127OSM   H17G13673   1.153   5.048   8.186  0.8531  0.4267 -0.6290
  127OSM   C18F13674   1.115   5.113   8.393  0.3968  0.7969  0.3909
  127OSM   H18F13675   1.176   5.157   8.475  1.2308 -0.4023  0.4354
  127OSM   H18G13676   1.091   5.010   8.427 -1.1248  0.4391 -1.5636
  127OSM   H18H13677   1.021   5.172   8.380  1.4666  2.4856 -0.0545
  128OSM      N13678   5.149   0.698   5.939 -0.4937  0.5914  0.0484
  128OSM    C1513679   5.059   0.810   5.927 -0.2183 -0.5958 -0.7159
  128OSM   H15A13680   5.085   0.871   5.841  0.9560  0.7310  0.5212
  128OSM   H15B13681   5.054   0.879   6.010  0.9536  0.4957 -1.5105
  128OSM   H15C13682   4.960   0.770   5.908 -0.6555 -1.8937  3.3003
  128OSM    C1413683   5.118   0.592   5.836  0.0999  0.2455  0.1182
  128OSM   H14A13684   5.171   0.612   5.744  0.3499 -0.2189  0.1552
  128OSM   H14B13685   5.014   0.567   5.824  0.5788 -1.5654 -0.6059
  128OSM   H14C13686   5.168   0.506   5.879 -0.0766  1.4757  3.0561
  128OSM    C1313687   5.284   0.760   5.916  0.1426 -0.7680  0.0016
  128OSM   H13A13688   5.357   0.681   5.903 -0.5004 -1.5838  1.2242
  128OSM   H13B13689   5.313   0.838   5.983  1.8050  0.1631 -1.6981
  128OSM   H13C13690   5.287   0.814   5.822  2.1417  1.8477  1.4320
  128OSM    C1213691   5.140   0.647   6.085 -0.2610 -0.2465 -0.2735
  128OSM   H12A13692   5.036   0.627   6.109 -1.3012  2.2027 -2.2863
  128OSM   H12B13693   5.162   0.726   6.155 -0.0172  1.4246 -2.1584
  128OSM    C1113694   5.232   0.526   6.126  0.1514 -0.0881 -0.5179
  128OSM   H11A13695   5.201   0.444   6.058 -2.5700  0.5500 -0.1952
  128OSM   H11B13696   5.203   0.497   6.229 -2.6469  1.1502 -0.8567
  128OSM      P13697   5.490   0.465   6.083  0.0667  0.0970  0.2122
  128OSM    O1313698   5.448   0.364   5.982 -0.4944  0.1154 -0.6213
  128OSM    O1413699   5.603   0.551   6.046 -0.3510 -0.7508 -0.1629
  128OSM    O1113700   5.527   0.400   6.223 -0.6315  0.0793  0.3015
  128OSM    O1213701   5.376   0.561   6.122  0.2009  0.8511 -0.2204
  128OSM    C1S13702   5.507   0.480   6.337  0.2898 -0.0450 -0.7280
  128OSM    H1S13703   5.398   0.501   6.340  0.6708  2.2602 -1.3082
  128OSM    H1T13704   5.565   0.574   6.344  0.0919 -0.0572  2.2546
  128OSM     NF13705   5.510   0.489   6.598 -0.4786  0.7248 -0.9328
  128OSM    HNF13706   5.561   0.574   6.609  1.7918 -0.6029 -0.5404
  128OSM    C2S13707   5.540   0.399   6.478  0.3389  0.0994  0.7959
  128OSM    H2S13708   5.461   0.321   6.474  0.3770  0.0858  0.2036
  128OSM    C3S13709   5.683   0.336   6.477  0.3891 -0.5714 -0.2313
  128OSM    H3S13710   5.757   0.415   6.453  0.7376 -0.8688 -0.1360
  128OSM     O313711   5.683   0.235   6.378 -0.2188 -0.1202 -0.1709
  128OSM    HO313712   5.610   0.260   6.322 -0.8861 -0.4708  0.5253
  128OSM    C4S13713   5.722   0.269   6.610 -0.0517 -0.2234  0.8639
  128OSM    H4S13714   5.655   0.278   6.696  1.2524 -0.5855  1.9591
  128OSM    C5S13715   5.830   0.181   6.628  1.0552  0.1675 -0.0594
  128OSM    H5S13716   5.897   0.162   6.543 -0.6850 -3.4922 -0.8437
  128OSM    C6S13717   5.866   0.111   6.766  0.9051 -0.3103  0.8784
  128OSM    H6S13718   5.975   0.117   6.787  1.1364  1.3948 -0.5454
  128OSM    H6T13719   5.831   0.006   6.757  2.3422 -0.6653 -1.8020
  128OSM    C7S13720   5.801   0.172   6.894  0.6468  0.7004  0.0492
  128OSM    H7S13721   5.691   0.180   6.884  0.6541  0.8688  0.1052
  128OSM    H7T13722   5.839   0.276   6.903  0.7709  0.5199  1.8565
  128OSM    C8S13723   5.849   0.093   7.025  0.4744 -0.6224  0.1508
  128OSM    H8S13724   5.960   0.096   7.029  0.4676  0.3719 -0.1958
  128OSM    H8T13725   5.814  -0.013   7.026 -1.2342 -0.1468  2.5870
  128OSM    C9S13726   5.795   0.150   7.160  0.6860  0.1686 -0.1143
  128OSM    H9S13727   5.826   0.074   7.234  0.9473  1.3323  1.0042
  128OSM    H9T13728   5.686   0.172   7.156  0.6663  0.1341  0.2439
  128OSM   C10S13729   5.863   0.284   7.189 -0.6976  0.3593 -0.6674
  128OSM   H10S13730   5.808   0.373   7.153  0.4353  0.3695 -2.5443
  128OSM   H10T13731   5.960   0.284   7.134 -0.9560  1.2393 -1.1338
  128OSM   C11S13732   5.881   0.300   7.341 -0.0013 -0.1321 -0.0923
  128OSM   H11S13733   5.957   0.226   7.375  0.2131  0.7773  1.4917
  128OSM   H11T13734   5.786   0.281   7.396 -1.0368  0.3883 -1.6402
  128OSM   C12S13735   5.923   0.448   7.380 -0.2997  0.0687 -0.0810
  128OSM   H12S13736   5.832   0.508   7.362 -2.7105 -3.3397 -0.2746
  128OSM   H12T13737   6.001   0.489   7.312  0.0142  0.0541  0.2637
  128OSM   C13S13738   5.981   0.460   7.518 -0.0651  0.7165 -1.0237
  128OSM   H13S13739   6.002   0.566   7.543  0.7883  0.3988 -0.3387
  128OSM   H13T13740   6.063   0.386   7.531  0.9744  1.4781 -2.7819
  128OSM   C14S13741   5.873   0.426   7.625 -0.2949 -0.2132 -0.3211
  128OSM   H14S13742   5.864   0.317   7.641  2.3216 -0.5015 -0.3709
  128OSM   H14T13743   5.779   0.471   7.587 -0.5815 -1.0126 -0.5788
  128OSM   C15S13744   5.900   0.490   7.759 -0.4547 -0.1623 -0.2687
  128OSM   H15S13745   5.903   0.599   7.734  0.9466 -0.0212  0.4287
  128OSM   H15T13746   6.002   0.463   7.792  0.6496  2.6802 -1.0501
  128OSM   C16S13747   5.795   0.472   7.867 -0.0328  0.2571  0.2587
  128OSM   H16S13748   5.761   0.367   7.878 -1.5203  0.5979 -0.7833
  128OSM   H16T13749   5.699   0.516   7.835 -1.3189 -1.7584  1.1253
  128OSM   C17S13750   5.822   0.541   7.998  0.8802 -0.4943 -0.1048
  128OSM   H17S13751   5.825   0.651   7.986  0.6253 -0.4425  0.2672
  128OSM   H17T13752   5.919   0.513   8.044 -0.0213 -2.2353  0.8330
  128OSM   C18S13753   5.707   0.504   8.097  0.2056  0.2677  0.0708
  128OSM   H18S13754   5.745   0.530   8.198  0.1445 -0.9828  0.4284
  128OSM   H18T13755   5.687   0.396   8.113  0.3558  0.3144  0.5893
  128OSM   H18U13756   5.613   0.563   8.089 -0.3974 -0.4994  1.1854
  128OSM    C1F13757   5.384   0.479   6.640  0.3324  0.2860  0.8074
  128OSM     OF13758   5.298   0.415   6.577  0.1707  0.0070  0.1483
  128OSM    C2F13759   5.342   0.555   6.762 -0.8526  0.1097  0.1004
  128OSM    H2F13760   5.238   0.595   6.759 -1.0697  0.1438  3.7542
  128OSM    H2G13761   5.414   0.639   6.767  2.1865 -2.2463 -1.0219
  128OSM    C3F13762   5.370   0.473   6.893  0.1558 -0.0807  0.1186
  128OSM    H3F13763   5.475   0.436   6.893 -0.4962 -2.1797  2.4244
  128OSM    H3G13764   5.304   0.385   6.908  0.0613 -0.2012 -0.9587
  128OSM    C4F13765   5.331   0.558   7.019  0.6708  0.2297 -0.0980
  128OSM    H4F13766   5.228   0.595   7.005  0.6960 -0.0034 -0.9650
  128OSM    H4G13767   5.394   0.649   7.029 -0.7689  1.3691 -1.0133
  128OSM    C5F13768   5.336   0.486   7.156 -0.3300  0.1839 -0.0152
  128OSM    H5F13769   5.278   0.391   7.156  0.6974 -0.4648 -0.6865
  128OSM    H5G13770   5.290   0.550   7.234  1.1359  3.6720 -1.7664
  128OSM    C6F13771   5.489   0.462   7.192  0.7209 -0.3357  0.0864
  128OSM    H6F13772   5.524   0.561   7.228 -1.5320  0.2777  0.7287
  128OSM    H6G13773   5.556   0.417   7.116 -1.6758 -6.9250  1.1625
  128OSM    C7F13774   5.503   0.362   7.313  0.3695 -0.6907  0.2096
  128OSM    H7F13775   5.606   0.376   7.352  0.2048 -0.3511  0.5324
  128OSM    H7G13776   5.483   0.265   7.264  0.0730 -0.4020 -0.2502
  128OSM    C8F13777   5.415   0.375   7.429  0.0016 -0.7338  0.2028
  128OSM    H8F13778   5.312   0.351   7.395  0.4362 -2.2519 -0.1270
  128OSM    H8G13779   5.388   0.475   7.469 -0.7360 -0.5658 -0.6604
  128OSM    C9F13780   5.458   0.277   7.532  0.0382  0.0772 -0.6850
  128OSM    H9F13781   5.491   0.175   7.507  1.2650  0.3185 -0.1234
  128OSM   C10F13782   5.468   0.298   7.666  0.2530  0.3440  0.0969
  128OSM   H10F13783   5.495   0.207   7.720 -0.9612 -0.6422 -0.8952
  128OSM   C11F13784   5.431   0.421   7.750 -0.3876 -0.3301 -0.5281
  128OSM   H11F13785   5.451   0.513   7.691  0.1999 -1.0286 -1.4624
  128OSM   H11G13786   5.510   0.422   7.828 -0.7419 -0.1457 -0.1685
  128OSM   C12F13787   5.287   0.417   7.808  0.4199  0.2438  0.5608
  128OSM   H12F13788   5.264   0.313   7.843  1.1691 -0.0373  0.2217
  128OSM   H12G13789   5.215   0.453   7.732  0.9267  1.7052  0.7468
  128OSM   C13F13790   5.257   0.513   7.922  0.1263 -0.9562 -0.0450
  128OSM   H13F13791   5.151   0.542   7.912  0.0664 -0.3280  1.9833
  128OSM   H13G13792   5.313   0.607   7.904 -0.7447 -0.3810  0.2161
  128OSM   C14F13793   5.299   0.457   8.061  0.3225 -0.2904  0.6444
  128OSM   H14F13794   5.400   0.412   8.060 -0.0861 -1.2283 -1.0734
  128OSM   H14G13795   5.217   0.385   8.086 -0.1309  0.4384  1.3127
  128OSM   C15F13796   5.297   0.579   8.166  0.3264  0.5402 -0.7405
  128OSM   H15F13797   5.191   0.596   8.194  0.1497 -1.3012 -0.1462
  128OSM   H15G13798   5.348   0.663   8.114 -0.6862  0.6193 -1.6252
  128OSM   C16F13799   5.365   0.540   8.303 -0.6006  0.1276 -0.3949
  128OSM   H16F13800   5.415   0.619   8.362 -0.1436 -1.7468  1.8892
  128OSM   H16G13801   5.455   0.484   8.272 -1.0659  0.3993 -2.4054
  128OSM   C17F13802   5.273   0.455   8.390 -0.8503 -0.5841  0.0128
  128OSM   H17F13803   5.332   0.390   8.458 -2.3847 -3.0812 -0.9120
  128OSM   H17G13804   5.202   0.389   8.336 -2.0129  1.0854 -0.5872
  128OSM   C18F13805   5.182   0.547   8.474 -0.0899  0.2225  0.0735
  128OSM   H18F13806   5.111   0.478   8.524 -1.6620  1.8343  0.1376
  128OSM   H18G13807   5.127   0.619   8.410 -0.9749 -1.1121 -0.7339
  128OSM   H18H13808   5.237   0.603   8.552  1.1168 -0.2816 -0.3932
  129OSM      N13809   6.679   5.220   6.232 -0.2774  0.5703 -0.1676
  129OSM    C1513810   6.539   5.189   6.199 -0.1111 -0.3178  0.7455
  129OSM   H15A13811   6.533   5.152   6.098 -0.5182  0.5721  0.4317
  129OSM   H15B13812   6.479   5.279   6.210  0.9360  0.6890 -1.3109
  129OSM   H15C13813   6.493   5.122   6.271 -1.4932 -0.4874 -0.2477
  129OSM    C1413814   6.745   5.298   6.128  0.6326  0.0660 -0.4787
  129OSM   H14A13815   6.743   5.245   6.033  0.5662 -0.2612 -0.2947
  129OSM   H14B13816   6.852   5.303   6.143  0.7258 -0.9382 -0.7304
  129OSM   H14C13817   6.703   5.396   6.113 -1.5798 -0.8977 -1.1107
  129OSM    C1313818   6.678   5.300   6.364  0.1926  0.4467 -0.0240
  129OSM   H13A13819   6.780   5.328   6.386  0.8554 -0.2383 -2.0548
  129OSM   H13B13820   6.644   5.231   6.439  0.1003 -0.3911 -0.8263
  129OSM   H13C13821   6.617   5.389   6.349  1.9901  1.4938 -1.6172
  129OSM    C1213822   6.743   5.083   6.251  0.1425  0.1709 -0.1641
  129OSM   H12A13823   6.769   5.047   6.152 -1.3549  0.4837 -0.6998
  129OSM   H12B13824   6.662   5.021   6.288  1.1039 -1.6396 -0.9654
  129OSM    C1113825   6.867   5.054   6.339 -0.1100 -0.0867  0.7542
  129OSM   H11A13826   6.884   4.946   6.357  0.6164  0.2731  2.4811
  129OSM   H11B13827   6.835   5.082   6.442 -4.0915 -2.5006  0.3848
  129OSM      P13828   7.074   5.048   6.187 -0.0272  0.4721  0.2185
  129OSM    O1313829   6.994   4.969   6.091 -0.1098  0.3725 -0.0160
  129OSM    O1413830   7.161   5.153   6.138 -0.5569  0.1628  0.7491
  129OSM    O1113831   7.155   4.954   6.282 -0.2269  0.7094 -0.1345
  129OSM    O1213832   6.986   5.122   6.292 -0.2623 -0.3624  0.0200
  129OSM    C1S13833   7.176   4.992   6.420 -1.2213  0.6504  0.1262
  129OSM    H1S13834   7.085   4.970   6.478 -0.8440 -1.8432 -0.1346
  129OSM    H1T13835   7.216   5.094   6.440  0.5725 -0.2918  1.6962
  129OSM     NF13836   7.311   4.945   6.620  0.3701  0.0497  0.1325
  129OSM    HNF13837   7.381   5.015   6.639  0.5540  0.5015 -2.0052
  129OSM    C2S13838   7.286   4.900   6.484  0.4628 -0.2031  0.1113
  129OSM    H2S13839   7.244   4.797   6.487  0.7292 -0.2943  2.0776
  129OSM    C3S13840   7.420   4.902   6.394  0.3296 -0.3696  0.1302
  129OSM    H3S13841   7.473   4.999   6.405 -0.6593  0.1275  0.6325
  129OSM     O313842   7.412   4.871   6.246  0.0342 -0.4668 -0.2035
  129OSM    HO313843   7.320   4.853   6.223 -0.3474  0.9519  0.0665
  129OSM    C4S13844   7.511   4.800   6.457  0.4747 -0.3219 -0.1495
  129OSM    H4S13845   7.568   4.837   6.544  0.6751 -0.3378 -0.2722
  129OSM    C5S13846   7.514   4.670   6.426 -0.3907 -0.0352  0.5716
  129OSM    H5S13847   7.448   4.632   6.346 -4.8825 -2.8076  5.0451
  129OSM    C6S13848   7.593   4.570   6.498  0.7252 -0.0281  0.5791
  129OSM    H6S13849   7.671   4.613   6.564 -1.7551  0.6678  3.2685
  129OSM    H6T13850   7.641   4.503   6.424 -1.0683 -0.0909 -0.5829
  129OSM    C7S13851   7.517   4.477   6.595  0.5963 -0.1700  0.3692
  129OSM    H7S13852   7.563   4.377   6.613 -1.3246 -0.8013  2.1508
  129OSM    H7T13853   7.419   4.464   6.544  0.6355  1.3121 -0.1218
  129OSM    C8S13854   7.480   4.527   6.737 -0.4475  0.0382  0.0202
  129OSM    H8S13855   7.404   4.459   6.780 -1.8605  2.1910  1.0659
  129OSM    H8T13856   7.435   4.628   6.729 -1.3887 -0.4483 -1.1216
  129OSM    C9S13857   7.612   4.525   6.819 -0.1039  0.3412 -0.0375
  129OSM    H9S13858   7.673   4.605   6.772 -0.4728 -0.0425 -1.2112
  129OSM    H9T13859   7.660   4.425   6.820 -1.3390 -0.2772 -0.5919
  129OSM   C10S13860   7.580   4.553   6.964 -0.4831 -0.1083  0.4603
  129OSM   H10S13861   7.516   4.464   6.983 -0.2981 -0.6785 -1.3831
  129OSM   H10T13862   7.539   4.656   6.969 -1.0216 -0.3412  1.0964
  129OSM   C11S13863   7.714   4.565   7.041  0.4866  0.1891 -0.0312
  129OSM   H11S13864   7.785   4.627   6.983 -0.9356  0.5744 -1.4310
  129OSM   H11T13865   7.754   4.461   7.038  1.6564  0.5282  2.0186
  129OSM   C12S13866   7.705   4.620   7.183  0.9913  0.7386  0.3562
  129OSM   H12S13867   7.670   4.725   7.184  1.0177  0.7642 -0.5349
  129OSM   H12T13868   7.809   4.625   7.222  1.1585  0.5998 -0.0646
  129OSM   C13S13869   7.617   4.541   7.284 -0.3147  0.2746 -0.4485
  129OSM   H13S13870   7.639   4.433   7.294 -0.0359  0.4600  1.1110
  129OSM   H13T13871   7.512   4.532   7.250 -0.4968 -0.4150  0.2844
  129OSM   C14S13872   7.635   4.597   7.427 -0.3158 -0.0111  0.0799
  129OSM   H14S13873   7.578   4.689   7.451 -0.2973  0.1266 -0.3929
  129OSM   H14T13874   7.742   4.621   7.446 -0.8859  1.4675  1.5883
  129OSM   C15S13875   7.601   4.478   7.520  0.2815 -0.0621 -0.3547
  129OSM   H15S13876   7.659   4.387   7.498  0.2312  0.2891 -2.0508
  129OSM   H15T13877   7.494   4.448   7.513  0.5718 -1.4182  0.6599
  129OSM   C16S13878   7.610   4.515   7.672  0.5071 -0.1417 -0.5216
  129OSM   H16S13879   7.536   4.597   7.690  0.7664 -0.3818  1.8835
  129OSM   H16T13880   7.713   4.554   7.687  0.5235 -0.0161 -0.9409
  129OSM   C17S13881   7.569   4.397   7.764  0.4544  0.6937  0.5399
  129OSM   H17S13882   7.624   4.312   7.720 -1.6241 -0.0398 -0.7944
  129OSM   H17T13883   7.462   4.370   7.753  0.5178 -0.1499  1.7409
  129OSM   C18S13884   7.613   4.406   7.905 -0.4771  0.4639  0.0698
  129OSM   H18S13885   7.541   4.471   7.960 -2.0422 -1.8952  0.9872
  129OSM   H18T13886   7.716   4.447   7.905  0.6434 -2.1128  0.5084
  129OSM   H18U13887   7.622   4.307   7.955 -0.3823  0.1010 -0.6515
  129OSM    C1F13888   7.241   4.900   6.719  0.3164 -0.2218  0.4480
  129OSM     OF13889   7.137   4.831   6.708 -0.3170 -0.3443  0.3229
  129OSM    C2F13890   7.289   4.953   6.852 -0.2016  0.3188  0.3398
  129OSM    H2F13891   7.219   5.035   6.877  1.5762  1.7836  0.7161
  129OSM    H2G13892   7.391   4.993   6.838 -0.8997  1.8121 -0.7896
  129OSM    C3F13893   7.295   4.859   6.963 -0.1247  0.0414  0.2126
  129OSM    H3F13894   7.376   4.786   6.942  0.5008 -0.2834  3.1881
  129OSM    H3G13895   7.202   4.800   6.978 -1.0606  1.8735  2.0541
  129OSM    C4F13896   7.326   4.918   7.099 -0.8035  0.0544  0.2389
  129OSM    H4F13897   7.255   5.001   7.121 -1.4040 -0.6207  0.9266
  129OSM    H4G13898   7.427   4.964   7.095 -0.0341 -1.6413 -1.1721
  129OSM    C5F13899   7.322   4.810   7.202  0.5038 -0.1764  0.7746
  129OSM    H5F13900   7.398   4.730   7.191 -0.4894 -0.9133 -1.0866
  129OSM    H5G13901   7.223   4.761   7.191 -1.4919  3.3961  1.3284
  129OSM    C6F13902   7.320   4.854   7.344 -0.3618 -0.0595  0.3225
  129OSM    H6F13903   7.255   4.944   7.343 -0.2136  0.1118 -2.3779
  129OSM    H6G13904   7.420   4.892   7.373  1.4933 -2.7395 -1.9393
  129OSM    C7F13905   7.281   4.738   7.431 -0.6254 -0.1485  0.1534
  129OSM    H7F13906   7.364   4.665   7.425 -0.4109  0.1740 -1.1590
  129OSM    H7G13907   7.197   4.689   7.377 -0.9059  0.6507 -0.1519
  129OSM    C8F13908   7.235   4.778   7.571  0.1498 -0.0512  0.4897
  129OSM    H8F13909   7.180   4.692   7.614 -1.5177  1.3740  1.3522
  129OSM    H8G13910   7.153   4.852   7.554 -0.4064 -1.1236 -1.8537
  129OSM    C9F13911   7.355   4.836   7.645  0.1080  0.5090 -0.4482
  129OSM    H9F13912   7.456   4.817   7.606 -0.4398 -1.3619 -1.0345
  129OSM   C10F13913   7.359   4.923   7.753  0.2705  0.0686  0.2123
  129OSM   H10F13914   7.453   4.954   7.799  1.5783 -0.8368 -1.7432
  129OSM   C11F13915   7.235   4.992   7.799  0.3963 -0.8336 -0.5212
  129OSM   H11F13916   7.190   5.057   7.721  2.1784  1.2215  0.0776
  129OSM   H11G13917   7.256   5.073   7.872  0.5728  1.6483 -3.1995
  129OSM   C12F13918   7.132   4.893   7.856  0.4111  0.2761 -0.1193
  129OSM   H12F13919   7.080   4.845   7.770  1.0731 -0.3898 -0.1626
  129OSM   H12G13920   7.059   4.955   7.912 -2.0346 -1.8853 -0.7494
  129OSM   C13F13921   7.194   4.789   7.952 -0.1591  0.0952  0.0856
  129OSM   H13F13922   7.228   4.850   8.038 -0.8397  0.6807 -0.0543
  129OSM   H13G13923   7.279   4.741   7.900 -0.9335 -1.9189  0.5790
  129OSM   C14F13924   7.096   4.679   8.004 -0.3680 -0.6153 -0.5741
  129OSM   H14F13925   7.083   4.604   7.923  0.4620  0.4831 -1.7465
  129OSM   H14G13926   6.994   4.723   8.013 -1.9428 -3.8644 -1.0485
  129OSM   C15F13927   7.148   4.595   8.116 -0.3042 -0.1751 -0.5078
  129OSM   H15F13928   7.081   4.510   8.141  0.6773 -0.5771  0.9212
  129OSM   H15G13929   7.166   4.656   8.207  1.3606  0.2575 -1.0880
  129OSM   C16F13930   7.284   4.524   8.086 -0.0025  0.1073 -0.0247
  129OSM   H16F13931   7.364   4.601   8.077  0.9038 -0.9489 -1.5521
  129OSM   H16G13932   7.285   4.485   7.982 -0.4550  0.1178 -0.0360
  129OSM   C17F13933   7.324   4.417   8.184 -0.1616  0.1174 -0.7526
  129OSM   H17F13934   7.401   4.349   8.143 -1.1306 -0.9586 -0.8591
  129OSM   H17G13935   7.231   4.361   8.209 -0.9825  1.0191 -1.6913
  129OSM   C18F13936   7.385   4.483   8.311 -0.2472 -0.2704  1.1425
  129OSM   H18F13937   7.332   4.581   8.318  1.0733  0.6794 -0.9755
  129OSM   H18G13938   7.494   4.493   8.291 -0.5550 -0.9526 -1.0472
  129OSM   H18H13939   7.366   4.427   8.405 -0.6111 -1.1027  0.5807
  130OSM      N13940   5.534   6.762   6.038  0.1753  0.2111 -0.1301
  130OSM    C1513941   5.526   6.838   6.162  0.4652  0.1511 -0.2124
  130OSM   H15A13942   5.473   6.781   6.237 -0.9786 -0.3210 -1.5453
  130OSM   H15B13943   5.468   6.928   6.145  0.6117  0.6827  1.8580
  130OSM   H15C13944   5.624   6.854   6.204  0.5275  0.7210 -0.5583
  130OSM    C1413945   5.635   6.830   5.957  0.2256 -0.6242 -0.2966
  130OSM   H14A13946   5.603   6.928   5.924  1.0122 -0.5232 -0.7894
  130OSM   H14B13947   5.669   6.772   5.873  1.6266 -0.4702  0.1425
  130OSM   H14C13948   5.725   6.860   6.008 -1.3519  3.3487  0.5238
  130OSM    C1313949   5.583   6.624   6.075 -1.1443  0.1504 -0.7811
  130OSM   H13A13950   5.602   6.564   5.987 -2.8357 -0.7681 -0.5665
  130OSM   H13B13951   5.503   6.581   6.133 -1.4279  1.1065 -0.4450
  130OSM   H13C13952   5.674   6.620   6.134 -2.5458 -1.2816  1.4316
  130OSM    C1213953   5.395   6.758   5.973  0.1148 -0.2137  0.4125
  130OSM   H12A13954   5.398   6.739   5.867 -2.4502  2.7757 -0.3560
  130OSM   H12B13955   5.353   6.858   5.978 -2.0331 -1.0727  0.5385
  130OSM    C1113956   5.291   6.661   6.038 -0.5516 -0.2039 -0.5564
  130OSM   H11A13957   5.303   6.643   6.147  2.1032  0.6979 -0.6270
  130OSM   H11B13958   5.329   6.566   5.993  2.3261  0.8930 -0.6218
  130OSM      P13959   5.084   6.807   6.070  0.0739 -0.1376 -0.0030
  130OSM    O1313960   5.011   6.891   5.965  0.5279  0.5128 -0.3961
  130OSM    O1413961   5.007   6.731   6.167  0.0971 -0.6573 -0.1249
  130OSM    O1113962   5.194   6.896   6.140  0.7965  0.6482  0.8717
  130OSM    O1213963   5.166   6.704   5.990  0.1947  0.5010  0.1237
  130OSM    C1S13964   5.151   7.011   6.214 -0.5102  0.2814 -0.2352
  130OSM    H1S13965   5.064   7.065   6.172  0.4098  2.6263  0.6745
  130OSM    H1T13966   5.238   7.081   6.209 -0.6056  0.3344 -1.3881
  130OSM     NF13967   5.099   7.104   6.433 -0.3565 -0.1085  0.0947
  130OSM    HNF13968   5.170   7.156   6.479  1.4412 -2.1560 -0.2103
  130OSM    C2S13969   5.134   6.979   6.367  0.6686 -0.4086 -0.1507
  130OSM    H2S13970   5.049   6.909   6.373 -0.7122  1.1296 -1.0338
  130OSM    C3S13971   5.252   6.901   6.423 -0.1201 -0.0759  0.0154
  130OSM    H3S13972   5.343   6.957   6.393 -1.0596  0.3192 -2.3286
  130OSM     O313973   5.274   6.771   6.375 -0.8803  0.5920  0.1052
  130OSM    HO313974   5.205   6.767   6.307 -0.2802  1.1637 -0.5565
  130OSM    C4S13975   5.236   6.904   6.573 -0.2347  0.2043  0.0309
  130OSM    H4S13976   5.301   6.977   6.624 -0.4932 -0.2928  1.1130
  130OSM    C5S13977   5.154   6.821   6.647 -0.1983 -0.1386  0.4253
  130OSM    H5S13978   5.096   6.737   6.604  0.1044 -0.5347  0.7798
  130OSM    C6S13979   5.148   6.825   6.798  0.0105 -0.0252  0.4163
  130OSM    H6S13980   5.137   6.724   6.842  0.5917  0.5462  1.9214
  130OSM    H6T13981   5.054   6.870   6.838  2.6519  3.3323  3.4932
  130OSM    C7S13982   5.273   6.887   6.866  0.1088 -0.0582 -0.4072
  130OSM    H7S13983   5.300   6.983   6.816 -0.0895  1.1662  1.7069
  130OSM    H7T13984   5.350   6.808   6.864 -0.5941 -0.8338  1.2034
  130OSM    C8S13985   5.253   6.922   7.012 -0.7688 -0.8623  0.4111
  130OSM    H8S13986   5.167   6.992   7.016 -0.3063 -0.2469 -0.1510
  130OSM    H8T13987   5.342   6.974   7.054 -0.2768 -1.6129  0.3140
  130OSM    C9S13988   5.222   6.798   7.097  0.5225 -0.9617  0.5353
  130OSM    H9S13989   5.294   6.720   7.064 -0.0146  0.0357 -3.4548
  130OSM    H9T13990   5.124   6.754   7.068  0.2969 -1.1870  1.5991
  130OSM   C10S13991   5.226   6.823   7.245 -0.2785 -0.5570 -0.1614
  130OSM   H10S13992   5.303   6.901   7.261 -0.8513 -0.1287  0.5673
  130OSM   H10T13993   5.260   6.734   7.302  2.0309 -0.3263 -1.0792
  130OSM   C11S13994   5.088   6.843   7.304 -0.7577 -0.2494 -0.6444
  130OSM   H11S13995   5.018   6.757   7.312 -1.4420  0.3023 -0.5403
  130OSM   H11T13996   5.023   6.912   7.246  0.0897 -0.3186 -1.7135
  130OSM   C12S13997   5.110   6.902   7.449  0.4066  0.6903  0.2877
  130OSM   H12S13998   5.018   6.954   7.485  0.1092 -0.0607  0.6295
  130OSM   H12T13999   5.185   6.984   7.443  0.1614  0.8898 -0.0403
  130OSM   C13S14000   5.147   6.802   7.567 -0.0899  0.0123  0.4748
  130OSM   H13S14001   5.253   6.771   7.554  0.3277  1.4817  0.1895
  130OSM   H13T14002   5.075   6.719   7.558  0.8395 -0.6978 -0.6955
  130OSM   C14S14003   5.129   6.869   7.700  0.1784 -0.5273  0.0396
  130OSM   H14S14004   5.023   6.887   7.725  0.5854  0.1398  1.4287
  130OSM   H14T14005   5.171   6.973   7.699 -0.6929 -0.1510  0.8885
  130OSM   C15S14006   5.183   6.795   7.820  0.4028 -0.0021 -0.6862
  130OSM   H15S14007   5.291   6.782   7.796  0.4179 -0.8365 -0.2109
  130OSM   H15T14008   5.144   6.691   7.833  0.3381  0.4236  4.6030
  130OSM   C16S14009   5.133   6.848   7.951  0.5803 -0.4759 -0.2312
  130OSM   H16S14010   5.032   6.804   7.966  0.3207  0.2365  0.0964
  130OSM   H16T14011   5.133   6.957   7.930  0.8892 -0.7035 -1.5358
  130OSM   C17S14012   5.224   6.815   8.067 -0.0746 -0.1685  0.7930
  130OSM   H17S14013   5.322   6.865   8.056 -0.2048  0.9845  3.9899
  130OSM   H17T14014   5.234   6.704   8.064  0.2158 -0.1308 -1.2073
  130OSM   C18S14015   5.172   6.848   8.205  0.0086  0.0732  0.2477
  130OSM   H18S14016   5.239   6.820   8.290  1.6666  1.8002 -0.4165
  130OSM   H18T14017   5.077   6.792   8.218  0.1496 -0.3911 -0.6225
  130OSM   H18U14018   5.171   6.959   8.210 -0.0160  0.1897 -1.6187
  130OSM    C1F14019   4.975   7.157   6.433 -0.6475 -0.1269  0.2555
  130OSM     OF14020   4.886   7.101   6.375 -0.1736  0.1439 -0.5112
  130OSM    C2F14021   4.952   7.287   6.503  0.2481  0.4113  0.3469
  130OSM    H2F14022   4.950   7.377   6.438  2.4854 -0.1485 -0.5691
  130OSM    H2G14023   5.041   7.296   6.568  0.7268 -0.4055 -0.1723
  130OSM    C3F14024   4.815   7.289   6.578 -0.1587  0.0844  0.2145
  130OSM    H3F14025   4.734   7.271   6.505  1.1422  0.1327 -1.2857
  130OSM    H3G14026   4.799   7.392   6.616 -2.7443 -0.0902 -0.2185
  130OSM    C4F14027   4.808   7.191   6.695 -0.0072 -1.0906  0.6371
  130OSM    H4F14028   4.812   7.090   6.648  0.6788 -0.2744 -1.1720
  130OSM    H4G14029   4.707   7.209   6.738 -1.3291  0.7183 -2.7481
  130OSM    C5F14030   4.924   7.204   6.796 -0.1664  0.2412 -0.1540
  130OSM    H5F14031   4.945   7.313   6.803  1.0121  0.0123 -0.0233
  130OSM    H5G14032   5.020   7.161   6.762 -0.1308 -1.0447  1.4384
  130OSM    C6F14033   4.886   7.161   6.933 -0.5431  0.3567  0.0792
  130OSM    H6F14034   4.913   7.054   6.951 -2.0787  0.0896  0.9669
  130OSM    H6G14035   4.779   7.177   6.959 -0.3379 -0.3628  1.4845
  130OSM    C7F14036   4.964   7.237   7.042 -0.8485  0.0137 -0.4144
  130OSM    H7F14037   4.956   7.346   7.024  1.3286 -0.1025 -2.6653
  130OSM    H7G14038   5.073   7.220   7.027 -0.6102  1.8565 -1.0203
  130OSM    C8F14039   4.923   7.188   7.178  0.3692  0.0574 -0.0790
  130OSM    H8F14040   4.889   7.084   7.164 -1.8162  0.5268  1.3026
  130OSM    H8G14041   4.821   7.224   7.203  0.0760 -0.2426 -0.8207
  130OSM    C9F14042   5.019   7.191   7.298 -0.4797  0.3937  0.0202
  130OSM    H9F14043   5.112   7.136   7.281 -0.8031 -0.4475  0.8614
  130OSM   C10F14044   5.004   7.240   7.415  0.6241 -0.2046 -0.2773
  130OSM   H10F14045   5.090   7.241   7.484  2.3895  1.0931 -2.3436
  130OSM   C11F14046   4.883   7.314   7.460 -0.4442  0.2596 -0.0867
  130OSM   H11F14047   4.791   7.259   7.430  0.0517  0.1144 -1.4204
  130OSM   H11G14048   4.878   7.410   7.406  0.2360 -0.5356 -1.6259
  130OSM   C12F14049   4.893   7.348   7.614  0.4390  0.1679  0.3229
  130OSM   H12F14050   4.802   7.407   7.638  0.1557  0.7527 -1.9545
  130OSM   H12G14051   4.980   7.413   7.635 -0.5111  1.6918 -0.3183
  130OSM   C13F14052   4.894   7.213   7.693  0.4838 -0.0648 -0.2786
  130OSM   H13F14053   4.961   7.230   7.780  1.1651 -4.0883  0.1896
  130OSM   H13G14054   4.944   7.121   7.654  1.1041 -0.4003  1.2581
  130OSM   C14F14055   4.764   7.181   7.772 -0.2012  0.1710 -0.0887
  130OSM   H14F14056   4.690   7.132   7.705 -0.6445  0.5416  0.1254
  130OSM   H14G14057   4.726   7.277   7.813  0.5879  0.2820  0.3998
  130OSM   C15F14058   4.798   7.087   7.885 -0.3666 -0.1337  0.8794
  130OSM   H15F14059   4.901   7.046   7.875  0.0019  0.9814 -0.2576
  130OSM   H15G14060   4.721   7.010   7.908 -0.6174  0.3447  1.6471
  130OSM   C16F14061   4.803   7.166   8.015 -0.4203  0.2261  0.4801
  130OSM   H16F14062   4.710   7.212   8.053 -0.6889 -0.8084  1.1283
  130OSM   H16G14063   4.875   7.247   7.990 -0.6269 -0.4992 -2.9621
  130OSM   C17F14064   4.870   7.094   8.133 -0.0936  0.1464 -0.5766
  130OSM   H17F14065   4.962   7.044   8.096 -0.0593  0.1039 -0.4349
  130OSM   H17G14066   4.802   7.013   8.166 -1.5102  1.0229 -1.2397
  130OSM   C18F14067   4.896   7.181   8.254 -0.2735  0.1504  0.1314
  130OSM   H18F14068   4.800   7.208   8.303  0.0947  1.5995  0.0848
  130OSM   H18G14069   4.942   7.273   8.214  0.6609 -0.6553 -0.7166
  130OSM   H18H14070   4.963   7.126   8.324 -1.0654 -0.4346  0.4522
  131OSM      N14071   3.456   2.213   5.829  0.4619 -0.3709 -1.0004
  131OSM    C1514072   3.505   2.079   5.776 -0.4985  0.1110 -0.0567
  131OSM   H15A14073   3.602   2.088   5.727  1.3554 -2.0389  2.8789
  131OSM   H15B14074   3.433   2.024   5.718 -1.1179  0.8543 -0.0158
  131OSM   H15C14075   3.532   2.024   5.865  1.5286 -0.4314 -0.9363
  131OSM    C1414076   3.564   2.291   5.890  0.1796  0.2177 -0.0828
  131OSM   H14A14077   3.626   2.330   5.811  0.4549 -0.6498 -0.3122
  131OSM   H14B14078   3.618   2.232   5.963  0.6117 -0.2366 -0.7588
  131OSM   H14C14079   3.529   2.385   5.929  0.2570  0.9170 -1.6237
  131OSM    C1314080   3.392   2.287   5.707 -0.2493 -0.2382 -0.4838
  131OSM   H13A14081   3.337   2.372   5.747 -0.6272 -1.1771  1.0740
  131OSM   H13B14082   3.322   2.225   5.653 -2.5390  0.0876  1.8921
  131OSM   H13C14083   3.463   2.326   5.637 -0.5281  0.0374 -0.6171
  131OSM    C1214084   3.347   2.185   5.931  0.1667 -0.3689 -0.9331
  131OSM   H12A14085   3.381   2.117   6.008 -0.4644  0.3993  0.0572
  131OSM   H12B14086   3.261   2.139   5.884 -1.5119  1.5636  0.0880
  131OSM    C1114087   3.295   2.312   6.012 -0.9549  0.3098  0.0886
  131OSM   H11A14088   3.384   2.361   6.057 -0.1332 -1.9428  1.0730
  131OSM   H11B14089   3.224   2.275   6.089 -1.8789 -0.2249 -1.0008
  131OSM      P14090   3.088   2.436   5.906  0.2490  0.1591  0.1855
  131OSM    O1314091   3.069   2.560   5.828  0.4325 -0.4017  0.1160
  131OSM    O1414092   3.016   2.322   5.856 -0.6629  0.2767  0.0415
  131OSM    O1114093   3.045   2.460   6.058  0.1551 -0.3430  0.5321
  131OSM    O1214094   3.242   2.402   5.917 -1.0348 -0.0920  0.2860
  131OSM    C1S14095   3.112   2.554   6.140 -0.1988  0.7742  0.0053
  131OSM    H1S14096   3.131   2.650   6.087  1.2549 -0.0611 -1.0501
  131OSM    H1T14097   3.209   2.503   6.157 -0.7476  0.2258  1.6947
  131OSM     NF14098   3.115   2.632   6.380 -0.9514  0.5274  0.1057
  131OSM    HNF14099   3.144   2.577   6.457  1.0663 -0.3925 -1.2275
  131OSM    C2S14100   3.034   2.568   6.281  0.9771  0.0776  0.1593
  131OSM    H2S14101   2.941   2.628   6.275  0.1627 -0.8903  2.0673
  131OSM    C3S14102   2.994   2.422   6.320 -0.6138  0.3972 -0.5702
  131OSM    H3S14103   3.083   2.355   6.323  0.2512  1.3536 -2.5893
  131OSM     O314104   2.891   2.362   6.239  0.6815  0.7890 -0.5572
  131OSM    HO314105   2.884   2.426   6.167  0.4091 -0.3625 -1.5840
  131OSM    C4S14106   2.936   2.430   6.460  0.7415  0.0942  0.4040
  131OSM    H4S14107   2.846   2.492   6.469 -1.1373 -1.8894 -2.8394
  131OSM    C5S14108   2.986   2.373   6.570 -0.4932  0.2059 -0.0442
  131OSM    H5S14109   3.078   2.312   6.564 -0.2274  0.7376 -2.1900
  131OSM    C6S14110   2.930   2.382   6.705  0.8120 -0.0925 -0.3526
  131OSM    H6S14111   2.881   2.288   6.736  2.7071 -0.8492  0.4736
  131OSM    H6T14112   2.856   2.465   6.711 -1.0030 -1.7377  2.3114
  131OSM    C7S14113   3.039   2.402   6.819  0.0723  0.3877  0.5328
  131OSM    H7S14114   3.074   2.507   6.827  2.2735 -0.3492  1.3262
  131OSM    H7T14115   3.130   2.341   6.803 -1.0622 -1.3660  0.5441
  131OSM    C8S14116   2.991   2.370   6.965  0.1744 -0.3839 -0.3672
  131OSM    H8S14117   2.953   2.266   6.955  1.5449 -0.7962 -1.6846
  131OSM    H8T14118   2.913   2.435   7.010  1.5086  0.6403  0.5918
  131OSM    C9S14119   3.109   2.359   7.066 -0.1788  0.0853 -0.0834
  131OSM    H9S14120   3.174   2.442   7.030 -0.8759  0.5802 -0.2115
  131OSM    H9T14121   3.155   2.258   7.060 -0.8399 -0.1770 -0.8696
  131OSM   C10S14122   3.057   2.392   7.202  0.0374  0.1549 -0.2974
  131OSM   H10S14123   2.971   2.325   7.219  0.9690 -0.8636  0.5672
  131OSM   H10T14124   3.022   2.497   7.210  0.9349  0.3396  2.0470
  131OSM   C11S14125   3.163   2.368   7.313  0.3349  0.4407 -0.2700
  131OSM   H11S14126   3.242   2.445   7.302  0.1668  0.9590  1.7562
  131OSM   H11T14127   3.212   2.269   7.301  0.3157  0.2633  0.9433
  131OSM   C12S14128   3.117   2.375   7.459 -0.1106  0.3096 -0.4942
  131OSM   H12S14129   3.033   2.306   7.482  1.0637 -1.4735 -1.3914
  131OSM   H12T14130   3.068   2.474   7.472  0.0401  0.2147  0.8991
  131OSM   C13S14131   3.230   2.360   7.565 -0.4510 -0.1360  0.1446
  131OSM   H13S14132   3.309   2.435   7.544  0.4516 -1.1740 -0.2559
  131OSM   H13T14133   3.285   2.264   7.568 -3.1418 -1.7564  1.0876
  131OSM   C14S14134   3.177   2.379   7.710 -0.0407 -0.6537 -0.0562
  131OSM   H14S14135   3.123   2.286   7.740  0.1070 -0.8132 -0.2795
  131OSM   H14T14136   3.099   2.458   7.707  0.7161  0.0619 -1.9179
  131OSM   C15S14137   3.288   2.409   7.815  0.5159  0.2036  0.7845
  131OSM   H15S14138   3.341   2.502   7.785 -0.7881  1.2042  1.4074
  131OSM   H15T14139   3.360   2.326   7.823 -0.8803 -0.9450  2.0714
  131OSM   C16S14140   3.223   2.447   7.953  0.0006 -0.0308 -0.2529
  131OSM   H16S14141   3.162   2.356   7.970  1.6886 -1.5995 -2.0572
  131OSM   H16T14142   3.159   2.538   7.952  1.0276  0.7427 -2.6840
  131OSM   C17S14143   3.330   2.455   8.059 -0.5442 -0.2506 -0.4427
  131OSM   H17S14144   3.352   2.557   8.096  0.3961 -1.4359  2.5606
  131OSM   H17T14145   3.429   2.434   8.013  0.2853 -0.2572  1.2595
  131OSM   C18S14146   3.313   2.360   8.178  0.0246 -0.4544 -0.2978
  131OSM   H18S14147   3.322   2.257   8.138  1.4017 -0.6598  0.4633
  131OSM   H18T14148   3.217   2.391   8.224 -0.9500 -0.8145 -1.9973
  131OSM   H18U14149   3.396   2.377   8.250  0.1809 -0.3935 -0.4920
  131OSM    C1F14150   3.162   2.755   6.372 -0.0554 -0.0132 -0.5653
  131OSM     OF14151   3.148   2.818   6.267  0.2126  0.5428  0.1300
  131OSM    C2F14152   3.220   2.809   6.494  0.0457  0.5051 -0.8720
  131OSM    H2F14153   3.325   2.841   6.476  0.5735 -1.3168 -1.2728
  131OSM    H2G14154   3.220   2.728   6.570  1.4775  2.2035  1.0197
  131OSM    C3F14155   3.129   2.924   6.541 -0.0568 -0.0156 -0.0481
  131OSM    H3F14156   3.134   3.005   6.465  0.7056  1.2298  1.2580
  131OSM    H3G14157   3.176   2.978   6.626  0.7554 -0.8114  0.0320
  131OSM    C4F14158   2.981   2.900   6.573 -0.4207 -0.5487 -0.1036
  131OSM    H4F14159   2.916   2.873   6.487 -3.3455  1.9950  1.1072
  131OSM    H4G14160   2.940   2.994   6.616 -3.3330 -1.7992  0.1103
  131OSM    C5F14161   2.971   2.795   6.686  0.7381  0.3200  0.5694
  131OSM    H5F14162   2.974   2.694   6.640 -1.9195  0.7184 -0.6777
  131OSM    H5G14163   2.865   2.797   6.719  0.3495  1.1512 -0.6717
  131OSM    C6F14164   3.060   2.812   6.812  0.2311  0.8495 -0.5050
  131OSM    H6F14165   3.081   2.921   6.809  1.0401  0.6852 -1.0154
  131OSM    H6G14166   3.159   2.762   6.811 -0.9468 -1.7114  0.7497
  131OSM    C7F14167   2.971   2.792   6.939 -0.3018  0.2515  0.6363
  131OSM    H7F14168   2.921   2.695   6.920  0.0455  0.0418  0.7755
  131OSM    H7G14169   2.890   2.867   6.929  0.1776  0.5713 -1.2060
  131OSM    C8F14170   3.044   2.785   7.079  0.0502 -0.2594 -0.2424
  131OSM    H8F14171   3.121   2.705   7.079  0.5253  0.1314 -2.3351
  131OSM    H8G14172   2.966   2.750   7.149  0.1383  0.8268  0.4233
  131OSM    C9F14173   3.104   2.915   7.125  0.6538 -0.3482  0.0609
  131OSM    H9F14174   3.147   2.981   7.049 -0.4038  0.6632  0.3084
  131OSM   C10F14175   3.076   2.958   7.253 -0.8117 -0.2993  0.2161
  131OSM   H10F14176   3.129   3.052   7.277  0.0057 -0.8055  0.4422
  131OSM   C11F14177   2.996   2.896   7.364  0.2257 -0.4364  0.0821
  131OSM   H11F14178   2.906   2.854   7.314  1.8103 -1.2972 -2.2492
  131OSM   H11G14179   2.979   2.983   7.432 -1.3659  0.5203 -1.4553
  131OSM   C12F14180   3.068   2.772   7.425 -0.1554 -0.2951  0.3148
  131OSM   H12F14181   3.076   2.696   7.345 -0.7557 -0.5125  0.4515
  131OSM   H12G14182   3.009   2.732   7.511 -0.8815  0.4819  0.1958
  131OSM   C13F14183   3.204   2.793   7.494  0.7605 -0.0500  0.3577
  131OSM   H13F14184   3.266   2.840   7.414  0.7802 -0.2692  0.2423
  131OSM   H13G14185   3.260   2.703   7.527  2.0839  0.5551 -0.1692
  131OSM   C14F14186   3.206   2.892   7.613 -0.6392 -0.1930 -0.0466
  131OSM   H14F14187   3.137   2.975   7.588  0.2764  0.1646 -1.6031
  131OSM   H14G14188   3.305   2.940   7.633 -0.5128 -0.1021 -0.8353
  131OSM   C15F14189   3.176   2.816   7.745 -0.0812 -0.6672 -0.0043
  131OSM   H15F14190   3.249   2.735   7.764  2.9827  1.5616 -1.4100
  131OSM   H15G14191   3.075   2.769   7.752  0.2299 -1.6035 -1.5116
  131OSM   C16F14192   3.185   2.924   7.864 -0.0642  0.1672  0.3540
  131OSM   H16F14193   3.095   2.988   7.857 -0.2322 -0.2248 -1.5798
  131OSM   H16G14194   3.265   2.998   7.843  2.3010 -1.9540  1.3780
  131OSM   C17F14195   3.202   2.853   7.998  0.1606 -0.4790  0.0950
  131OSM   H17F14196   3.311   2.830   8.000  0.0556 -0.9523  1.3459
  131OSM   H17G14197   3.148   2.757   8.007 -1.8717  0.6644  0.7970
  131OSM   C18F14198   3.163   2.942   8.114 -0.3520 -0.3271 -0.6278
  131OSM   H18F14199   3.191   2.891   8.209  1.8228 -1.7686 -1.9652
  131OSM   H18G14200   3.059   2.981   8.108 -0.1654  0.1358 -0.9022
  131OSM   H18H14201   3.236   3.024   8.100  0.0031 -0.6671 -0.7630
  132OSM      N14202   4.774   3.385   6.255 -0.7812  0.5059 -0.4374
  132OSM    C1514203   4.663   3.406   6.167 -0.3054  0.0006  0.3273
  132OSM   H15A14204   4.632   3.509   6.166  2.4171  0.9059  0.9361
  132OSM   H15B14205   4.576   3.345   6.185 -0.4686 -0.0967 -0.6938
  132OSM   H15C14206   4.696   3.376   6.068  2.3382 -0.8137  1.3525
  132OSM    C1414207   4.733   3.399   6.399  0.4324 -0.0390 -0.2630
  132OSM   H14A14208   4.645   3.342   6.424  0.6577 -0.1518  0.2796
  132OSM   H14B14209   4.716   3.501   6.430  1.7239 -0.1856  1.0226
  132OSM   H14C14210   4.813   3.367   6.464  0.8025  2.9250  0.8696
  132OSM    C1314211   4.822   3.245   6.242 -0.5829  0.5501 -0.1276
  132OSM   H13A14212   4.745   3.183   6.287 -0.6164  2.1672  2.1929
  132OSM   H13B14213   4.915   3.217   6.289  0.0528 -0.3645 -1.8196
  132OSM   H13C14214   4.832   3.218   6.138 -0.4761  0.4243 -0.0852
  132OSM    C1214215   4.899   3.461   6.217  0.6409  0.0431 -0.9564
  132OSM   H12A14216   4.902   3.460   6.109  2.5225  0.1477 -0.9383
  132OSM   H12B14217   4.987   3.403   6.240  1.0542  0.4876 -1.3877
  132OSM    C1114218   4.915   3.607   6.265  0.2811 -0.0253 -0.1624
  132OSM   H11A14219   5.001   3.635   6.200  1.6845 -1.5621  0.9383
  132OSM   H11B14220   4.950   3.615   6.370 -1.3471  0.2866  0.3735
  132OSM      P14221   4.719   3.760   6.333 -0.0702 -0.2064  0.7080
  132OSM    O1314222   4.729   3.911   6.317 -0.3876  0.7284 -0.0497
  132OSM    O1414223   4.583   3.701   6.330  0.0220  0.4231  0.3356
  132OSM    O1114224   4.781   3.728   6.472 -0.1058  0.0314  0.4310
  132OSM    O1214225   4.805   3.683   6.226 -0.1923  0.2064 -0.4445
  132OSM    C1S14226   4.722   3.799   6.584  0.0512  0.3498 -0.2047
  132OSM    H1S14227   4.611   3.791   6.582 -0.0425  1.1418 -3.1936
  132OSM    H1T14228   4.738   3.908   6.574  1.0873  0.1393 -0.9762
  132OSM     NF14229   4.687   3.777   6.830  0.7481  0.6488  0.2568
  132OSM    HNF14230   4.709   3.863   6.876  0.2178  1.1087 -0.3207
  132OSM    C2S14231   4.775   3.742   6.723 -0.4064  0.7160 -0.3046
  132OSM    H2S14232   4.769   3.631   6.719 -0.0862  0.6337  1.1684
  132OSM    C3S14233   4.920   3.787   6.738 -0.2991 -0.4939  0.7297
  132OSM    H3S14234   4.923   3.898   6.740 -0.3089 -0.4487  4.0415
  132OSM     O314235   5.008   3.748   6.637  0.4513  0.1171  0.5567
  132OSM    HO314236   4.939   3.725   6.575  0.5090 -0.3319  0.6594
  132OSM    C4S14237   4.978   3.734   6.861  0.2574  0.0045  0.1218
  132OSM    H4S14238   4.994   3.625   6.859  0.0831 -0.1931 -4.8925
  132OSM    C5S14239   5.016   3.799   6.978  0.0642  0.0657  0.1739
  132OSM    H5S14240   4.998   3.907   6.988  0.0101  0.0413  0.3329
  132OSM    C6S14241   5.081   3.728   7.096  0.0713 -0.0152  0.2996
  132OSM    H6S14242   5.003   3.693   7.166 -0.0341  1.2646  0.8466
  132OSM    H6T14243   5.135   3.808   7.150  1.4514  0.3527 -1.5004
  132OSM    C7S14244   5.164   3.607   7.066  0.2511  0.6385 -0.4641
  132OSM    H7S14245   5.242   3.621   6.988  0.3076  1.4333 -0.2678
  132OSM    H7T14246   5.097   3.524   7.034 -0.5783  1.4858 -0.9918
  132OSM    C8S14247   5.245   3.559   7.188 -0.1688  0.3614 -0.2502
  132OSM    H8S14248   5.315   3.643   7.210  1.1568 -0.9966  0.9366
  132OSM    H8T14249   5.311   3.473   7.163 -0.1962 -0.0776  1.1338
  132OSM    C9S14250   5.169   3.518   7.322 -0.1811 -0.0076  0.4065
  132OSM    H9S14251   5.082   3.456   7.290  0.5874 -1.6653  1.3942
  132OSM    H9T14252   5.140   3.614   7.369  0.8653 -1.0142  3.3389
  132OSM   C10S14253   5.263   3.443   7.414 -0.6624 -0.3622  0.0194
  132OSM   H10S14254   5.347   3.515   7.431  0.3392 -1.5787  0.4085
  132OSM   H10T14255   5.301   3.357   7.355 -1.1406 -1.3893  1.1810
  132OSM   C11S14256   5.204   3.403   7.550 -0.1442 -0.5025 -0.3496
  132OSM   H11S14257   5.278   3.375   7.628 -1.7406  2.9756  2.7049
  132OSM   H11T14258   5.143   3.314   7.524 -0.9477  0.0960 -0.5576
  132OSM   C12S14259   5.135   3.516   7.629  0.4127 -0.0615  0.7600
  132OSM   H12S14260   5.059   3.575   7.573  2.4371  1.2934 -0.7137
  132OSM   H12T14261   5.212   3.596   7.635 -0.4233  0.8423 -0.1510
  132OSM   C13S14262   5.089   3.477   7.771 -0.5110  0.1604 -0.5021
  132OSM   H13S14263   5.057   3.557   7.840  1.0298 -1.4411  2.2270
  132OSM   H13T14264   5.173   3.420   7.816 -0.9977 -0.3876 -0.2705
  132OSM   C14S14265   4.961   3.381   7.763  0.2316 -0.0618  0.4488
  132OSM   H14S14266   4.944   3.330   7.666  2.6320 -1.7087  0.8243
  132OSM   H14T14267   4.871   3.446   7.775  1.2206  2.0534 -2.5497
  132OSM   C15S14268   4.960   3.280   7.886  0.6392  0.1059  0.3534
  132OSM   H15S14269   5.064   3.246   7.905  1.8616  2.1590 -2.0579
  132OSM   H15T14270   4.888   3.196   7.872 -1.1401  1.2701  2.0971
  132OSM   C16S14271   4.919   3.342   8.018 -0.2976  0.2072  0.1296
  132OSM   H16S14272   4.809   3.328   8.013 -0.2251 -0.8830  1.1684
  132OSM   H16T14273   4.939   3.451   8.022  0.9706  0.0118 -0.4524
  132OSM   C17S14274   4.972   3.272   8.145  0.1144 -0.1748  0.0372
  132OSM   H17S14275   4.933   3.316   8.239 -2.8909  1.3994 -1.7915
  132OSM   H17T14276   5.082   3.276   8.133  0.0206 -1.9811 -2.2253
  132OSM   C18S14277   4.953   3.119   8.152  0.1477 -0.5953  0.2153
  132OSM   H18S14278   5.040   3.086   8.214  0.7525  0.5688  0.0145
  132OSM   H18T14279   4.966   3.070   8.054  0.7235 -0.2645  0.1206
  132OSM   H18U14280   4.861   3.097   8.209 -0.0627  1.2261  0.6513
  132OSM    C1F14281   4.569   3.716   6.849  0.2628 -0.0220  0.3680
  132OSM     OF14282   4.542   3.599   6.817  0.7344  0.0162 -0.1576
  132OSM    C2F14283   4.465   3.814   6.897  0.1485  0.4992 -0.3288
  132OSM    H2F14284   4.376   3.804   6.832 -1.9984 -0.5578  2.5850
  132OSM    H2G14285   4.507   3.916   6.877  1.4600 -0.2218 -1.4564
  132OSM    C3F14286   4.419   3.812   7.044  0.5639 -0.2086 -0.3639
  132OSM    H3F14287   4.352   3.900   7.054  3.3679  1.8495  1.9973
  132OSM    H3G14288   4.509   3.840   7.103  0.4147  0.0278 -0.2448
  132OSM    C4F14289   4.359   3.679   7.080  0.2157 -0.1171 -0.1906
  132OSM    H4F14290   4.427   3.593   7.101  0.7109 -0.0190 -1.2696
  132OSM    H4G14291   4.297   3.650   6.992  3.4596 -0.6225 -2.5181
  132OSM    C5F14292   4.280   3.696   7.209  0.2156 -0.3742  0.1795
  132OSM    H5F14293   4.193   3.763   7.198 -0.3534 -1.4571 -2.8673
  132OSM    H5G14294   4.350   3.739   7.285 -0.6857 -1.8861  1.9621
  132OSM    C6F14295   4.215   3.572   7.266 -0.2167  0.9536  0.3797
  132OSM    H6F14296   4.298   3.502   7.290 -2.3687 -2.4557 -1.2766
  132OSM    H6G14297   4.175   3.514   7.180 -1.1925  0.0737  1.3954
  132OSM    C7F14298   4.124   3.589   7.394  0.3272  0.2360  0.2441
  132OSM    H7F14299   4.120   3.485   7.433  1.8474  0.8067  2.0748
  132OSM    H7G14300   4.026   3.629   7.361  1.2290  3.3882  1.0848
  132OSM    C8F14301   4.191   3.679   7.498 -0.0084 -0.8827  0.4859
  132OSM    H8F14302   4.205   3.782   7.460 -1.4595 -0.7997  0.1038
  132OSM    H8G14303   4.294   3.660   7.534  0.2270  0.9239  0.8621
  132OSM    C9F14304   4.102   3.685   7.626 -0.5834 -0.4621  0.7922
  132OSM    H9F14305   4.060   3.589   7.658 -0.1951 -1.0257 -0.3277
  132OSM   C10F14306   4.075   3.792   7.701 -0.0328  0.6781  0.1050
  132OSM   H10F14307   4.020   3.784   7.797 -0.1814  2.0723  0.1508
  132OSM   C11F14308   4.126   3.932   7.670 -0.3712  0.0288  0.7064
  132OSM   H11F14309   4.050   4.007   7.699  0.1243  1.1054 -0.6681
  132OSM   H11G14310   4.150   3.941   7.562 -1.0671 -1.2537  0.4229
  132OSM   C12F14311   4.254   3.971   7.749  0.3697 -0.0640 -0.5547
  132OSM   H12F14312   4.298   4.052   7.687 -1.4284 -0.0916 -1.9641
  132OSM   H12G14313   4.322   3.884   7.759  0.3023  0.1588  4.5748
  132OSM   C13F14314   4.213   4.019   7.888 -0.1786  0.1739  0.0631
  132OSM   H13F14315   4.174   3.937   7.952 -2.1954 -0.5853 -1.9802
  132OSM   H13G14316   4.134   4.097   7.881 -1.5961 -1.3237 -2.4992
  132OSM   C14F14317   4.333   4.088   7.954  0.3226 -0.2570 -0.3476
  132OSM   H14F14318   4.394   4.134   7.873  1.8266 -2.4166 -0.5162
  132OSM   H14G14319   4.389   4.016   8.017  1.6890  0.2866 -0.9145
  132OSM   C15F14320   4.280   4.197   8.051 -0.5744  0.0719 -0.7328
  132OSM   H15F14321   4.200   4.155   8.117  0.1581  0.4016  0.3968
  132OSM   H15G14322   4.227   4.281   8.002 -0.3702  0.4591 -0.2941
  132OSM   C16F14323   4.405   4.255   8.134  0.1989 -0.4454 -0.1254
  132OSM   H16F14324   4.492   4.269   8.066 -0.9301  1.4400 -1.2823
  132OSM   H16G14325   4.429   4.171   8.203 -2.7435 -0.2995  1.2166
  132OSM   C17F14326   4.368   4.384   8.205  0.5928 -0.5199  0.1978
  132OSM   H17F14327   4.331   4.462   8.136 -0.0576 -1.1782 -0.2101
  132OSM   H17G14328   4.463   4.424   8.247 -0.1525  2.9901 -1.1517
  132OSM   C18F14329   4.267   4.357   8.319  0.8092  0.4586 -0.5472
  132OSM   H18F14330   4.231   4.455   8.357  1.2663  0.7747 -0.9262
  132OSM   H18G14331   4.316   4.308   8.406  0.2246  1.3128  0.2796
  132OSM   H18H14332   4.178   4.294   8.296 -0.8318  1.7646  1.7784
  133OSM      N14333   4.539   5.219   5.940 -0.4527 -0.0520 -0.6937
  133OSM    C1514334   4.461   5.159   5.839 -0.2767 -0.4656  0.2502
  133OSM   H15A14335   4.523   5.076   5.806  0.9627 -0.4122  2.2724
  133OSM   H15B14336   4.457   5.228   5.756  1.8117  1.0818  1.3488
  133OSM   H15C14337   4.367   5.117   5.871  0.8447 -3.5019 -0.1175
  133OSM    C1414338   4.659   5.282   5.884 -0.0037 -0.2216 -0.2443
  133OSM   H14A14339   4.746   5.288   5.947 -0.6308 -0.5286  0.6754
  133OSM   H14B14340   4.641   5.383   5.849  1.1774 -0.4291 -1.5539
  133OSM   H14C14341   4.686   5.226   5.796  1.0142  0.8816 -0.6474
  133OSM    C1314342   4.456   5.307   6.021  0.2192  0.1929 -0.0543
  133OSM   H13A14343   4.420   5.386   5.956  0.2922 -0.7401 -1.2794
  133OSM   H13B14344   4.510   5.358   6.099  0.1855  1.6138 -0.9157
  133OSM   H13C14345   4.378   5.259   6.076  0.6026  1.9481  2.1686
  133OSM    C1214346   4.596   5.110   6.036 -0.4731 -0.3300  0.4725
  133OSM   H12A14347   4.666   5.054   5.976 -0.4450  0.1706  0.0324
  133OSM   H12B14348   4.511   5.051   6.066 -1.8742  1.3678 -0.0238
  133OSM    C1114349   4.656   5.154   6.172  0.1274 -0.4368 -0.6358
  133OSM   H11A14350   4.683   5.064   6.230 -2.2217 -2.4766 -2.5046
  133OSM   H11B14351   4.580   5.210   6.231 -1.8797 -3.5812 -0.0164
  133OSM      P14352   4.915   5.196   6.157  0.2398  0.0470  0.1474
  133OSM    O1314353   4.904   5.052   6.154 -0.5722 -0.0583  0.1244
  133OSM    O1414354   5.001   5.269   6.054  0.6673 -0.5930  0.5443
  133OSM    O1114355   4.970   5.237   6.293  0.2261  0.3837 -0.1088
  133OSM    O1214356   4.766   5.244   6.159 -0.1294 -0.2761  0.6717
  133OSM    C1S14357   4.940   5.367   6.346 -1.0012  0.3731 -0.1314
  133OSM    H1S14358   4.857   5.414   6.289 -2.1180 -1.9280 -0.4937
  133OSM    H1T14359   5.033   5.428   6.332 -0.0048 -0.8779  0.8043
  133OSM     NF14360   4.876   5.507   6.530  0.0190  0.0048  0.0764
  133OSM    HNF14361   4.963   5.552   6.549  0.3887 -1.1570  1.3174
  133OSM    C2S14362   4.904   5.367   6.499  0.1060 -0.1830 -0.2798
  133OSM    H2S14363   4.816   5.299   6.507  0.3153 -0.4982 -0.6139
  133OSM    C3S14364   5.017   5.301   6.588 -0.0827  0.5282  0.0869
  133OSM    H3S14365   5.114   5.354   6.594  2.1755 -3.2726  1.0609
  133OSM     O314366   5.048   5.177   6.538 -0.6043  0.1077  0.0298
  133OSM    HO314367   5.015   5.175   6.448  2.7475  2.6542 -1.4908
  133OSM    C4S14368   4.962   5.284   6.732  0.0702 -0.1843  0.5238
  133OSM    H4S14369   4.901   5.192   6.733  2.3037 -1.7717  0.0728
  133OSM    C5S14370   4.985   5.364   6.839  0.9012 -0.0179 -0.2461
  133OSM    H5S14371   5.031   5.463   6.822 -0.1663  0.9633  2.1771
  133OSM    C6S14372   4.919   5.338   6.978  0.7863  0.1750  0.7907
  133OSM    H6S14373   4.811   5.364   6.978  0.2753 -1.6556 -1.0085
  133OSM    H6T14374   4.962   5.402   7.059  0.5545  0.3338  0.7895
  133OSM    C7S14375   4.938   5.196   7.037  0.2911 -0.0838  0.0296
  133OSM    H7S14376   4.888   5.121   6.971 -0.8839 -1.9079  2.8040
  133OSM    H7T14377   4.893   5.188   7.138  1.6833  0.9440  0.7781
  133OSM    C8S14378   5.083   5.162   7.057 -0.0563  0.5577  0.1034
  133OSM    H8S14379   5.142   5.249   7.094  3.0366 -0.4982 -1.9829
  133OSM    H8T14380   5.126   5.141   6.957 -2.5337  0.3875 -1.0041
  133OSM    C9S14381   5.126   5.045   7.149  0.0461  0.1923  0.0807
  133OSM    H9S14382   5.237   5.049   7.146  0.0137  4.2176 -0.1205
  133OSM    H9T14383   5.080   4.951   7.111 -0.3709  0.1866  0.5906
  133OSM   C10S14384   5.108   5.069   7.297 -0.3308 -0.2622 -0.1752
  133OSM   H10S14385   4.998   5.062   7.313 -0.2249 -2.0038 -0.0236
  133OSM   H10T14386   5.150   5.168   7.325 -0.9420  0.0836 -0.4661
  133OSM   C11S14387   5.168   4.964   7.391 -0.4782  0.3602 -0.0890
  133OSM   H11S14388   5.277   4.944   7.389 -0.6518 -0.5863 -0.7149
  133OSM   H11T14389   5.114   4.868   7.372 -1.0651  0.1905  2.0893
  133OSM   C12S14390   5.134   4.998   7.540  0.4842  0.2656  1.0229
  133OSM   H12S14391   5.041   5.058   7.534  1.7165  2.1352 -2.6442
  133OSM   H12T14392   5.213   5.066   7.578  1.2891  0.1436 -0.3512
  133OSM   C13S14393   5.132   4.871   7.626 -0.1471  1.0795 -0.6478
  133OSM   H13S14394   5.223   4.809   7.618 -0.8072  0.1306 -0.9204
  133OSM   H13T14395   5.047   4.809   7.591  1.6775 -1.0937 -1.4819
  133OSM   C14S14396   5.092   4.906   7.772  0.7980  0.1215 -0.1899
  133OSM   H14S14397   4.989   4.943   7.789  0.6286 -1.2967  2.3621
  133OSM   H14T14398   5.153   4.997   7.792  1.3118 -0.1744 -0.3867
  133OSM   C15S14399   5.117   4.789   7.877 -0.1490 -0.3644  0.5353
  133OSM   H15S14400   5.218   4.746   7.860  0.4853  0.7366  1.4307
  133OSM   H15T14401   5.042   4.708   7.867 -0.0073 -0.3160 -1.4331
  133OSM   C16S14402   5.118   4.840   8.025  0.1878 -0.4110  0.3540
  133OSM   H16S14403   5.013   4.866   8.051 -1.2350 -1.1579 -3.8706
  133OSM   H16T14404   5.167   4.940   8.020 -0.2498 -0.0597  2.1904
  133OSM   C17S14405   5.185   4.749   8.123  0.1134  0.0661  0.3262
  133OSM   H17S14406   5.280   4.712   8.079 -0.3328 -0.9194  0.1596
  133OSM   H17T14407   5.108   4.670   8.136  0.6146 -0.1270  2.7247
  133OSM   C18S14408   5.201   4.810   8.262  0.5463  0.0111 -0.1074
  133OSM   H18S14409   5.099   4.824   8.303  1.3844  0.3879  1.9634
  133OSM   H18T14410   5.249   4.910   8.259  1.3042 -0.3661 -1.4246
  133OSM   H18U14411   5.261   4.740   8.323 -0.7328 -1.2509 -0.2344
  133OSM    C1F14412   4.774   5.582   6.502 -0.0137 -0.5748 -0.1320
  133OSM     OF14413   4.668   5.547   6.449 -0.6680  0.2350 -0.1535
  133OSM    C2F14414   4.800   5.730   6.522  1.0751  0.3270 -0.1512
  133OSM    H2F14415   4.721   5.796   6.480  1.1718  0.7409  0.3176
  133OSM    H2G14416   4.898   5.760   6.478  0.8716 -0.9526 -1.5737
  133OSM    C3F14417   4.809   5.758   6.679 -0.4083  0.5548 -0.0967
  133OSM    H3F14418   4.809   5.869   6.677  0.1045  0.6252  1.6827
  133OSM    H3G14419   4.910   5.728   6.713  0.0103  0.3017 -1.5088
  133OSM    C4F14420   4.696   5.702   6.769  0.0088 -0.0310 -0.7544
  133OSM    H4F14421   4.684   5.593   6.753  2.3041 -0.6631  1.1935
  133OSM    H4G14422   4.605   5.765   6.756  0.2233  0.5642  0.4702
  133OSM    C5F14423   4.737   5.717   6.922  1.2029  0.3886 -0.3992
  133OSM    H5F14424   4.722   5.821   6.955  0.7770  0.7259 -1.5933
  133OSM    H5G14425   4.840   5.682   6.942  0.2559 -3.0263 -0.6872
  133OSM    C6F14426   4.651   5.624   7.005  0.5694  0.3003 -0.7175
  133OSM    H6F14427   4.681   5.518   6.987  1.3778  0.1867  1.0505
  133OSM    H6G14428   4.546   5.634   6.970 -0.1289  3.6307  1.8783
  133OSM    C7F14429   4.651   5.654   7.150 -0.2175 -0.0498 -0.5447
  133OSM    H7F14430   4.572   5.588   7.191 -1.1306  1.7053  0.6717
  133OSM    H7G14431   4.613   5.757   7.167 -1.8732 -0.6249 -0.5954
  133OSM    C8F14432   4.777   5.607   7.220  0.0482 -0.1489  0.5748
  133OSM    H8F14433   4.868   5.649   7.172  0.1110 -1.3923 -0.4515
  133OSM    H8G14434   4.788   5.499   7.197 -0.6628 -0.2119  0.5195
  133OSM    C9F14435   4.765   5.634   7.368 -0.1129 -0.1670  0.0141
  133OSM    H9F14436   4.668   5.675   7.399  0.2611 -0.5548  1.7886
  133OSM   C10F14437   4.861   5.622   7.459  0.5217  0.2474 -0.6838
  133OSM   H10F14438   4.831   5.645   7.562 -3.6406 -1.5290 -1.2625
  133OSM   C11F14439   5.001   5.566   7.435  0.2689 -0.1743 -0.0759
  133OSM   H11F14440   5.078   5.632   7.480 -0.3751  0.0731  0.6981
  133OSM   H11G14441   5.019   5.564   7.326 -1.0905 -0.8431 -0.3048
  133OSM   C12F14442   5.005   5.422   7.484  0.5134  0.8129 -0.6637
  133OSM   H12F14443   5.099   5.377   7.445  0.0267 -0.4909 -0.3902
  133OSM   H12G14444   4.930   5.352   7.441  2.0098 -2.1806  1.1879
  133OSM   C13F14445   5.012   5.425   7.641 -0.8475  0.3144 -0.5981
  133OSM   H13F14446   4.928   5.487   7.680 -0.5768  0.4566 -0.2320
  133OSM   H13G14447   5.101   5.484   7.673 -0.8453  0.0945 -0.1879
  133OSM   C14F14448   4.993   5.298   7.720 -0.6931  0.0901  0.2059
  133OSM   H14F14449   5.078   5.231   7.696 -0.5138  0.0257  1.0146
  133OSM   H14G14450   4.896   5.261   7.681 -0.0009  0.2327 -1.7692
  133OSM   C15F14451   4.967   5.302   7.873  0.1125 -0.4637 -0.5036
  133OSM   H15F14452   4.894   5.219   7.884 -0.3002  0.1097  1.3730
  133OSM   H15G14453   4.905   5.391   7.897 -0.1830 -0.0986 -2.4243
  133OSM   C16F14454   5.092   5.284   7.961  0.6796  0.1072  0.7917
  133OSM   H16F14455   5.159   5.372   7.955 -1.4066  2.0571  3.4999
  133OSM   H16G14456   5.137   5.189   7.924 -2.7148 -1.9787  1.5595
  133OSM   C17F14457   5.048   5.281   8.106 -0.1709 -0.0291 -0.1296
  133OSM   H17F14458   5.005   5.380   8.135  0.1319 -0.7022  3.0270
  133OSM   H17G14459   5.143   5.262   8.160 -0.2222  0.5614  0.1780
  133OSM   C18F14460   4.949   5.174   8.137  0.5453 -0.0535 -0.1087
  133OSM   H18F14461   4.944   5.157   8.247 -2.5672 -0.2723 -0.2007
  133OSM   H18G14462   5.001   5.085   8.096  1.2726 -0.0746  0.8304
  133OSM   H18H14463   4.841   5.187   8.115  0.5137  0.3768  0.2693
  134OSM      N14464   0.144   1.008   6.299 -0.2174 -0.3840 -0.5429
  134OSM    C1514465   0.210   1.125   6.364 -0.0954  0.5576  0.4247
  134OSM   H15A14466   0.167   1.141   6.462  1.0919  1.0731  0.8757
  134OSM   H15B14467   0.178   1.218   6.321  0.8960  1.2350  1.0994
  134OSM   H15C14468   0.318   1.125   6.369 -0.1050 -0.1792  0.9431
  134OSM    C1414469   0.174   1.015   6.152  0.4612  0.7180 -0.2162
  134OSM   H14A14470   0.116   1.096   6.111  0.5888  1.4073  0.9005
  134OSM   H14B14471   0.147   0.920   6.109  1.1527  0.2012  0.4477
  134OSM   H14C14472   0.281   1.021   6.135  0.0928  1.2979 -2.5814
  134OSM    C1314473   0.198   0.876   6.352 -0.0946  0.3256  0.8240
  134OSM   H13A14474   0.162   0.852   6.451 -1.0113  2.0104  0.9293
  134OSM   H13B14475   0.305   0.882   6.370  0.0567  1.1551 -0.2831
  134OSM   H13C14476   0.178   0.794   6.285 -1.3852 -0.2389  1.8378
  134OSM    C1214477  -0.000   1.005   6.332  0.1274 -0.0182  0.0450
  134OSM   H12A14478  -0.013   1.024   6.438  3.1241 -1.3371  0.7246
  134OSM   H12B14479  -0.035   0.905   6.311  4.5742 -1.4339 -1.6793
  134OSM    C1114480  -0.101   1.096   6.264 -0.5351  0.0218  1.0551
  134OSM   H11A14481  -0.112   1.063   6.158  1.8114  0.8420  0.4929
  134OSM   H11B14482  -0.065   1.201   6.262  1.6778 -0.6905  1.0967
  134OSM      P14483  -0.293   1.178   6.413  0.5886 -0.4034 -0.3833
  134OSM    O1314484  -0.203   1.239   6.512 -0.3478  0.1478  0.2203
  134OSM    O1414485  -0.370   1.270   6.329 -0.2580 -0.6224  1.2087
  134OSM    O1114486  -0.410   1.101   6.484 -0.0431  0.0618 -0.1005
  134OSM    O1214487  -0.223   1.075   6.326 -0.3309  0.3755  0.1709
  134OSM    C1S14488  -0.389   0.978   6.567 -0.8988  0.0224  0.0937
  134OSM    H1S14489  -0.289   0.934   6.545 -0.4507  1.1027 -0.0836
  134OSM    H1T14490  -0.464   0.901   6.537 -1.5519  0.9749 -0.7576
  134OSM     NF14491  -0.354   0.896   6.791 -0.2144  0.0765 -0.1523
  134OSM    HNF14492  -0.424   0.834   6.825  0.1477 -0.0774  0.3254
  134OSM    C2S14493  -0.408   1.008   6.716 -0.9645 -0.1803 -0.4296
  134OSM    H2S14494  -0.345   1.094   6.747 -1.3457  0.5178 -1.5190
  134OSM    C3S14495  -0.555   1.048   6.738 -0.1973 -0.4621 -0.5350
  134OSM    H3S14496  -0.621   0.982   6.677  0.7491 -0.9414 -1.0788
  134OSM     O314497  -0.575   1.171   6.674 -0.1005  0.1067  0.3059
  134OSM    HO314498  -0.514   1.162   6.601 -0.3364  1.7300 -0.1464
  134OSM    C4S14499  -0.593   1.060   6.883  0.4920 -0.3497 -0.2503
  134OSM    H4S14500  -0.652   0.977   6.924 -0.4810 -0.6772 -2.1515
  134OSM    C5S14501  -0.601   1.171   6.955 -0.8270 -0.1391  0.2250
  134OSM    H5S14502  -0.587   1.264   6.899 -1.2456 -1.2712 -1.8357
  134OSM    C6S14503  -0.647   1.171   7.099  0.6777 -0.5903  0.1600
  134OSM    H6S14504  -0.568   1.208   7.168 -0.4029 -1.0152  1.6941
  134OSM    H6T14505  -0.672   1.072   7.142  0.9589 -0.9261 -0.4305
  134OSM    C7S14506  -0.770   1.267   7.121 -0.2907  0.1490  0.0822
  134OSM    H7S14507  -0.853   1.256   7.048  0.4744  2.8076 -1.3203
  134OSM    H7T14508  -0.727   1.369   7.106  1.4625 -0.6519 -0.5403
  134OSM    C8S14509  -0.821   1.256   7.263 -0.1796  1.1440 -0.4573
  134OSM    H8S14510  -0.741   1.282   7.337  0.8910  0.1224 -1.2247
  134OSM    H8T14511  -0.851   1.153   7.289  0.3328  1.2511  0.6655
  134OSM    C9S14512  -0.948   1.332   7.291  0.5943  0.4687 -0.5825
  134OSM    H9S14513  -1.036   1.285   7.241  2.1106 -1.1555 -1.8219
  134OSM    H9T14514  -0.930   1.432   7.245  3.4751 -0.2876 -1.2893
  134OSM   C10S14515  -0.969   1.344   7.448 -0.6280  0.1001 -0.9986
  134OSM   H10S14516  -0.872   1.376   7.491 -1.8925  2.2786  0.3620
  134OSM   H10T14517  -0.991   1.247   7.497  0.1824  0.7872  0.8077
  134OSM   C11S14518  -1.075   1.449   7.484 -0.6248 -0.1743 -0.1878
  134OSM   H11S14519  -1.182   1.417   7.478 -1.1597  1.5982 -0.7027
  134OSM   H11T14520  -1.055   1.534   7.415  2.2854  0.0839  0.8452
  134OSM   C12S14521  -1.054   1.512   7.627  0.2932  0.4260  0.1638
  134OSM   H12S14522  -1.119   1.600   7.648 -1.4885 -0.9580  0.6816
  134OSM   H12T14523  -0.948   1.543   7.641  0.3204  0.6463 -0.4946
  134OSM   C13S14524  -1.084   1.403   7.730  0.1039 -0.1529 -0.0844
  134OSM   H13S14525  -0.997   1.334   7.733  0.0213 -0.6416 -3.8496
  134OSM   H13T14526  -1.173   1.349   7.692 -1.0092  1.3520  0.3079
  134OSM   C14S14527  -1.102   1.467   7.872 -0.3857  0.3543  0.4772
  134OSM   H14S14528  -1.193   1.531   7.873 -0.2930  0.5299 -0.9982
  134OSM   H14T14529  -1.027   1.534   7.919 -0.6697  0.2653  1.0624
  134OSM   C15S14530  -1.122   1.348   7.964 -0.0824 -0.9083  0.2661
  134OSM   H15S14531  -1.050   1.269   7.935  1.7051  0.2468  1.3445
  134OSM   H15T14532  -1.216   1.298   7.931 -1.0242 -0.5393  2.1926
  134OSM   C16S14533  -1.108   1.365   8.113 -0.6089 -0.8004 -0.2114
  134OSM   H16S14534  -1.166   1.286   8.166  1.3892 -1.3177  1.3165
  134OSM   H16T14535  -1.162   1.460   8.132  1.0127 -0.0851  0.9320
  134OSM   C17S14536  -0.965   1.347   8.172 -0.5503  0.8003  0.3291
  134OSM   H17S14537  -0.898   1.417   8.118 -0.0321  1.5210  1.8390
  134OSM   H17T14538  -0.919   1.248   8.150 -1.2352  0.8855 -1.7273
  134OSM   C18S14539  -0.945   1.379   8.317 -0.0050 -0.0571 -0.7542
  134OSM   H18S14540  -0.853   1.333   8.360 -0.9762  0.8989  2.6395
  134OSM   H18T14541  -1.038   1.354   8.372  1.0466 -0.1660  1.0593
  134OSM   H18U14542  -0.923   1.486   8.335 -0.0465  0.0630 -1.3866
  134OSM    C1F14543  -0.226   0.879   6.809 -0.1905  0.5081 -0.6386
  134OSM     OF14544  -0.142   0.934   6.750 -0.0081 -0.1546  0.2093
  134OSM    C2F14545  -0.176   0.771   6.911 -0.0334  0.3774  0.0367
  134OSM    H2F14546  -0.100   0.704   6.865 -0.8209 -0.8104  0.3887
  134OSM    H2G14547  -0.262   0.708   6.943  0.3373 -0.4042 -0.4569
  134OSM    C3F14548  -0.124   0.832   7.046  0.6134  0.5573  0.1444
  134OSM    H3F14549  -0.036   0.896   7.021  0.5438  0.0824 -1.4111
  134OSM    H3G14550  -0.074   0.751   7.103 -0.1394 -0.2132 -0.2772
  134OSM    C4F14551  -0.227   0.909   7.133  0.5014  0.8562  0.0822
  134OSM    H4F14552  -0.285   0.978   7.069 -0.2435  1.3818  1.2893
  134OSM    H4G14553  -0.170   0.970   7.206  0.7550 -1.6349  2.1121
  134OSM    C5F14554  -0.317   0.815   7.216  0.1344 -0.4212 -0.2208
  134OSM    H5F14555  -0.263   0.737   7.274  3.7195  1.9596 -0.0702
  134OSM    H5G14556  -0.373   0.755   7.142  2.5336 -2.7273 -0.2933
  134OSM    C6F14557  -0.409   0.895   7.311  0.2990 -0.0885 -0.2217
  134OSM    H6F14558  -0.432   0.991   7.259 -1.2052 -0.1417  0.2839
  134OSM    H6G14559  -0.359   0.901   7.410  0.8153  0.2161 -0.4978
  134OSM    C7F14560  -0.531   0.806   7.335 -0.2007 -0.2235  0.0001
  134OSM    H7F14561  -0.517   0.720   7.404 -0.4707  1.2384  1.9509
  134OSM    H7G14562  -0.561   0.754   7.241 -3.8672 -0.9686  1.4173
  134OSM    C8F14563  -0.661   0.873   7.387 -0.5221  0.4001 -0.5327
  134OSM    H8F14564  -0.724   0.787   7.419 -0.0701 -0.0882 -0.9393
  134OSM    H8G14565  -0.717   0.929   7.309 -0.9564  1.5101  0.5608
  134OSM    C9F14566  -0.628   0.979   7.494  0.3972 -0.8930 -0.1443
  134OSM    H9F14567  -0.620   1.083   7.458  1.5093 -0.8225  0.2769
  134OSM   C10F14568  -0.596   0.947   7.622 -0.6635  0.1514  0.1436
  134OSM   H10F14569  -0.551   1.015   7.695  1.5126  0.9504 -1.7957
  134OSM   C11F14570  -0.612   0.806   7.684  0.4606 -0.4612  0.4835
  134OSM   H11F14571  -0.517   0.752   7.665  1.1577  0.6924  0.5942
  134OSM   H11G14572  -0.682   0.731   7.641  0.5473  0.4479 -1.3257
  134OSM   C12F14573  -0.653   0.801   7.838 -0.1318 -0.0662 -0.2010
  134OSM   H12F14574  -0.570   0.828   7.907 -1.1359 -2.4028  2.0737
  134OSM   H12G14575  -0.673   0.695   7.865 -0.1737 -0.0306 -0.0928
  134OSM   C13F14576  -0.768   0.890   7.882  0.4847  0.5971 -0.0981
  134OSM   H13F14577  -0.864   0.843   7.852  1.3715 -0.2312 -1.8194
  134OSM   H13G14578  -0.763   0.990   7.834  1.8268 -0.0109 -1.2993
  134OSM   C14F14579  -0.779   0.915   8.035 -1.1467 -0.8788  0.3886
  134OSM   H14F14580  -0.795   0.819   8.088  1.4645 -2.0963 -0.8677
  134OSM   H14G14581  -0.870   0.978   8.047  0.0215  0.8177  0.8386
  134OSM   C15F14582  -0.664   0.995   8.094 -0.0420 -0.5332 -0.3289
  134OSM   H15F14583  -0.647   1.084   8.029  2.2313 -0.8836 -0.2731
  134OSM   H15G14584  -0.571   0.934   8.091 -0.8580 -1.8246 -2.7969
  134OSM   C16F14585  -0.689   1.046   8.235  0.1781  0.1715 -0.2085
  134OSM   H16F14586  -0.702   0.949   8.287  0.7906 -0.5567 -1.3832
  134OSM   H16G14587  -0.787   1.099   8.231 -0.9585 -1.5758  2.0396
  134OSM   C17F14588  -0.580   1.147   8.289 -0.1177 -0.5947  0.7446
  134OSM   H17F14589  -0.602   1.235   8.224 -1.9829 -0.1988  1.8329
  134OSM   H17G14590  -0.482   1.100   8.265  0.1579  0.5096 -0.3940
  134OSM   C18F14591  -0.598   1.194   8.435  0.0591  0.2461  0.2217
  134OSM   H18F14592  -0.702   1.231   8.441 -0.5788 -1.1700 -1.3126
  134OSM   H18G14593  -0.525   1.277   8.451 -0.1544  1.0286 -2.3726
  134OSM   H18H14594  -0.582   1.114   8.510 -0.0830 -0.2493 -0.2669
  135OSM      N14595   5.997   1.915   6.062 -0.1769  0.4742 -0.3421
  135OSM    C1514596   6.056   2.044   6.115  0.0859 -0.2130 -0.0590
  135OSM   H15A14597   6.036   2.046   6.221 -1.8114 -3.8629 -0.2001
  135OSM   H15B14598   6.010   2.133   6.073 -0.0749 -1.0592 -1.7370
  135OSM   H15C14599   6.162   2.059   6.104 -0.3831  1.6568 -2.8979
  135OSM    C1414600   5.847   1.917   6.080 -0.2694  0.2392  0.0766
  135OSM   H14A14601   5.811   2.018   6.066 -0.5586  0.1348  0.0478
  135OSM   H14B14602   5.832   1.887   6.183  0.2343 -1.0542 -0.2160
  135OSM   H14C14603   5.796   1.844   6.020  0.8897 -1.9747  1.6253
  135OSM    C1314604   6.021   1.914   5.917 -0.1836  0.0894  0.1016
  135OSM   H13A14605   5.961   1.839   5.869 -0.7806  0.4853  0.2129
  135OSM   H13B14606   6.125   1.894   5.894 -0.0368  1.0365 -0.0975
  135OSM   H13C14607   6.014   2.012   5.872  0.0511 -1.5450 -3.8797
  135OSM    C1214608   6.078   1.795   6.122 -0.0683  0.5226  0.0281
  135OSM   H12A14609   6.185   1.816   6.123  0.1268 -0.1614  3.2066
  135OSM   H12B14610   6.053   1.701   6.075  0.6631 -1.0395  2.5677
  135OSM    C1114611   6.060   1.761   6.271  0.1144 -1.0301 -0.1653
  135OSM   H11A14612   6.076   1.848   6.337 -0.6587 -1.5649  0.7498
  135OSM   H11B14613   6.139   1.691   6.305 -0.5702 -0.9064  1.7799
  135OSM      P14614   5.887   1.576   6.281  0.0339 -0.1121  0.3203
  135OSM    O1314615   5.746   1.564   6.311  0.1011 -0.5042 -0.0236
  135OSM    O1414616   5.937   1.516   6.154 -0.4439  0.0878  0.3855
  135OSM    O1114617   5.970   1.500   6.394  0.2479  0.4564  0.2730
  135OSM    O1214618   5.921   1.724   6.292 -0.4862 -0.2860  0.2718
  135OSM    C1S14619   5.958   1.565   6.527  0.0788  0.4905 -0.2508
  135OSM    H1S14620   5.862   1.527   6.568  0.1223 -0.4338 -0.9768
  135OSM    H1T14621   5.954   1.676   6.518 -2.3611  0.3528 -1.5014
  135OSM     NF14622   6.034   1.573   6.756 -0.3171 -0.3169 -0.1943
  135OSM    HNF14623   6.063   1.668   6.760  1.4859 -0.7991 -0.9956
  135OSM    C2S14624   6.064   1.514   6.622 -0.2786  0.0022  0.1525
  135OSM    H2S14625   6.063   1.404   6.640  2.2569  0.0241  0.8779
  135OSM    C3S14626   6.200   1.546   6.574  0.2051 -0.0746  0.8468
  135OSM    H3S14627   6.213   1.654   6.554 -1.2268  0.9501  4.6598
  135OSM     O314628   6.235   1.493   6.442  0.4055  0.8207 -0.2157
  135OSM    HO314629   6.154   1.490   6.392  0.9311  1.4259 -1.1358
  135OSM    C4S14630   6.298   1.496   6.672 -0.0999  0.4661  0.6226
  135OSM    H4S14631   6.313   1.387   6.681  1.4279  0.7838  2.5081
  135OSM    C5S14632   6.377   1.573   6.752 -0.0459  0.4828 -0.0666
  135OSM    H5S14633   6.352   1.680   6.759 -1.5866  0.2481 -1.4268
  135OSM    C6S14634   6.478   1.532   6.847 -0.8598  0.0445  0.4983
  135OSM    H6S14635   6.437   1.540   6.950  0.7285 -0.2170  1.1770
  135OSM    H6T14636   6.565   1.601   6.840 -0.4235 -0.6154 -1.0718
  135OSM    C7S14637   6.534   1.386   6.833 -0.4196 -0.2883  0.3846
  135OSM    H7S14638   6.569   1.374   6.728 -0.4596 -1.0395  0.4569
  135OSM    H7T14639   6.454   1.309   6.839  2.1689 -3.0076  3.5052
  135OSM    C8S14640   6.648   1.347   6.927 -0.8181  0.1720 -0.4209
  135OSM    H8S14641   6.733   1.418   6.934  3.6811 -4.5594 -0.6790
  135OSM    H8T14642   6.690   1.255   6.880 -1.5277 -0.9654  1.1057
  135OSM    C9S14643   6.593   1.314   7.061 -0.6566 -0.2648 -0.4518
  135OSM    H9S14644   6.516   1.235   7.055  1.3587 -2.3685  0.0520
  135OSM    H9T14645   6.549   1.406   7.105 -0.7634 -1.4421  2.0709
  135OSM   C10S14646   6.707   1.275   7.155  0.3042 -0.8576 -0.2237
  135OSM   H10S14647   6.796   1.340   7.144  1.2567 -2.0640  0.2381
  135OSM   H10T14648   6.746   1.173   7.137 -0.1215 -1.3292  1.4166
  135OSM   C11S14649   6.657   1.281   7.302  0.4406 -0.1895  0.1926
  135OSM   H11S14650   6.561   1.225   7.296  2.0266 -3.0059 -1.3444
  135OSM   H11T14651   6.625   1.383   7.331 -1.3648 -1.0806  1.4962
  135OSM   C12S14652   6.736   1.206   7.416 -0.4619 -0.4057 -0.0429
  135OSM   H12S14653   6.823   1.271   7.440  0.4227 -1.8407  0.7949
  135OSM   H12T14654   6.759   1.108   7.371 -3.9765 -0.8071 -1.2954
  135OSM   C13S14655   6.669   1.192   7.551 -0.0485  0.2932  0.5878
  135OSM   H13S14656   6.591   1.113   7.560 -1.2683  1.5512  1.5466
  135OSM   H13T14657   6.612   1.285   7.571  0.0691  0.9379 -1.7690
  135OSM   C14S14658   6.762   1.186   7.672 -0.3832 -0.4226 -0.0502
  135OSM   H14S14659   6.853   1.248   7.663  0.4540 -1.8015 -1.6800
  135OSM   H14T14660   6.803   1.083   7.663 -0.7525 -0.8532  2.5596
  135OSM   C15S14661   6.692   1.200   7.809  0.2701  0.1267  0.5381
  135OSM   H15S14662   6.672   1.305   7.838 -2.4166 -0.3693  0.7472
  135OSM   H15T14663   6.766   1.158   7.881 -0.6274 -1.6787  0.4841
  135OSM   C16S14664   6.558   1.124   7.821 -0.9669 -0.4938  0.4384
  135OSM   H16S14665   6.563   1.015   7.800  0.4962 -0.6840  1.6322
  135OSM   H16T14666   6.479   1.171   7.759 -0.1907  1.9102  1.1550
  135OSM   C17S14667   6.523   1.140   7.964  0.3799 -0.5751 -0.1816
  135OSM   H17S14668   6.415   1.115   7.979  0.4497 -1.2671 -0.7973
  135OSM   H17T14669   6.533   1.248   7.988 -0.5618 -0.2642 -1.1067
  135OSM   C18S14670   6.593   1.043   8.064 -0.5633 -0.1353 -0.8194
  135OSM   H18S14671   6.703   1.046   8.053 -0.4907 -0.7759 -0.3363
  135OSM   H18T14672   6.565   0.936   8.049  1.9045 -0.6728 -2.0046
  135OSM   H18U14673   6.566   1.073   8.167  0.3853  1.1668 -0.9292
  135OSM    C1F14674   5.942   1.515   6.832  0.1094 -0.0398 -0.5127
  135OSM     OF14675   5.897   1.407   6.805 -0.4867 -0.1175 -0.1889
  135OSM    C2F14676   5.885   1.603   6.939  1.0957 -0.3399 -0.0966
  135OSM    H2F14677   5.882   1.708   6.905 -1.4483 -0.5215 -0.5981
  135OSM    H2G14678   5.958   1.609   7.023 -1.9481 -0.4647  2.7442
  135OSM    C3F14679   5.744   1.561   6.995 -0.3669  0.0637 -0.0175
  135OSM    H3F14680   5.761   1.459   7.035  1.5641  0.5558  0.5512
  135OSM    H3G14681   5.681   1.552   6.905 -1.0981  1.8416  0.2701
  135OSM    C4F14682   5.681   1.666   7.090  0.0441  0.4043  0.3767
  135OSM    H4F14683   5.581   1.638   7.129  0.5262  0.9100  2.0428
  135OSM    H4G14684   5.666   1.754   7.024  1.1982 -0.2583 -0.8274
  135OSM    C5F14685   5.785   1.714   7.196 -0.3249  0.4013 -0.5870
  135OSM    H5F14686   5.844   1.795   7.149  0.7812 -0.0822 -0.0611
  135OSM    H5G14687   5.853   1.640   7.244 -2.0283 -0.8430  0.0283
  135OSM    C6F14688   5.709   1.783   7.310 -0.1703 -0.5186  0.2863
  135OSM    H6F14689   5.647   1.707   7.362  0.3664 -2.4730 -1.7953
  135OSM    H6G14690   5.645   1.859   7.260  0.5027  0.0966  0.3529
  135OSM    C7F14691   5.802   1.838   7.419  0.6063 -0.1712 -0.0307
  135OSM    H7F14692   5.875   1.906   7.371  1.7235  0.0978  1.9443
  135OSM    H7G14693   5.844   1.752   7.475  0.3267 -0.0134  0.4285
  135OSM    C8F14694   5.726   1.938   7.509  0.0831  0.2340  0.2404
  135OSM    H8F14695   5.682   2.023   7.453  0.1422  0.5432  0.6598
  135OSM    H8G14696   5.798   1.988   7.577 -0.9970 -0.0818  1.6693
  135OSM    C9F14697   5.628   1.879   7.605 -0.1536 -0.4293  0.1885
  135OSM    H9F14698   5.534   1.843   7.559 -0.6909 -0.1120  1.0175
  135OSM   C10F14699   5.629   1.875   7.737  0.0834  0.0467 -0.3810
  135OSM   H10F14700   5.545   1.827   7.789  0.9545 -0.2886  0.7764
  135OSM   C11F14701   5.739   1.932   7.822  0.5095  0.6388 -0.1469
  135OSM   H11F14702   5.723   2.040   7.843  0.3742  0.5889  0.0125
  135OSM   H11G14703   5.836   1.917   7.771  1.3852 -1.1634  1.9236
  135OSM   C12F14704   5.736   1.866   7.961  0.3433  0.3976 -0.0119
  135OSM   H12F14705   5.746   1.756   7.954  1.7867  0.4201  1.2893
  135OSM   H12G14706   5.642   1.902   8.009  0.4327  2.0317 -0.9688
  135OSM   C13F14707   5.851   1.904   8.056 -0.7151  0.8833  0.5268
  135OSM   H13F14708   5.827   2.008   8.089 -1.2325  1.2368 -0.8833
  135OSM   H13G14709   5.946   1.894   8.000 -0.7571  0.2392  0.5626
  135OSM   C14F14710   5.857   1.827   8.190  0.4399  0.5151  0.2939
  135OSM   H14F14711   5.928   1.887   8.251 -0.7193  1.7477  0.4931
  135OSM   H14G14712   5.898   1.730   8.157 -1.2088  0.2987 -1.3102
  135OSM   C15F14713   5.722   1.814   8.256 -0.1097 -0.5059  0.4824
  135OSM   H15F14714   5.643   1.775   8.188  0.6750 -0.0369 -0.7326
  135OSM   H15G14715   5.687   1.915   8.285 -0.5024 -0.4281 -0.2470
  135OSM   C16F14716   5.711   1.718   8.383 -0.4483  0.6582  0.5818
  135OSM   H16F14717   5.722   1.774   8.478 -0.6217 -0.1561  1.0915
  135OSM   H16G14718   5.791   1.643   8.370 -1.0270  0.5357 -4.0101
  135OSM   C17F14719   5.580   1.636   8.389 -0.1926  0.1262 -0.4252
  135OSM   H17F14720   5.593   1.548   8.456  2.8830  0.3951 -0.5389
  135OSM   H17G14721   5.550   1.589   8.293 -1.1305  3.2608 -1.8041
  135OSM   C18F14722   5.467   1.714   8.441  0.1509 -0.3629  0.0423
  135OSM   H18F14723   5.373   1.655   8.433  0.0814 -0.1211 -1.0468
  135OSM   H18G14724   5.459   1.808   8.382 -1.5952 -1.6447 -1.8985
  135OSM   H18H14725   5.481   1.755   8.544  0.0402  1.9046 -0.7723
  136OSM      N14726   2.928   1.498   6.077 -0.3475  0.2439 -0.0889
  136OSM    C1514727   2.932   1.354   6.110  0.1262 -0.1219  0.1500
  136OSM   H15A14728   2.953   1.348   6.216  0.6323  1.7001  0.1883
  136OSM   H15B14729   3.026   1.316   6.073  0.3603  0.8625 -0.3082
  136OSM   H15C14730   2.846   1.302   6.071  0.3262 -0.8385  0.6482
  136OSM    C1414731   3.068   1.546   6.099  0.3723  0.1024 -0.1487
  136OSM   H14A14732   3.152   1.492   6.057  0.6197 -1.9830  2.7927
  136OSM   H14B14733   3.097   1.534   6.202 -1.0234 -0.1847  0.2355
  136OSM   H14C14734   3.077   1.651   6.074 -0.8595 -0.2529 -2.3343
  136OSM    C1314735   2.908   1.508   5.926 -0.3968 -0.1052  0.0442
  136OSM   H13A14736   2.971   1.434   5.880 -2.2704 -1.3175 -0.7047
  136OSM   H13B14737   2.919   1.609   5.889  1.2527 -0.0439  0.6425
  136OSM   H13C14738   2.807   1.480   5.900 -0.8136 -0.3545  1.8018
  136OSM    C1214739   2.831   1.569   6.167 -0.2857 -0.3436 -0.4321
  136OSM   H12A14740   2.839   1.676   6.156  0.7043 -0.3162  0.4297
  136OSM   H12B14741   2.849   1.554   6.272 -0.9835  0.9209 -0.1101
  136OSM    C1114742   2.683   1.532   6.141 -0.5138 -0.1077  0.3022
  136OSM   H11A14743   2.630   1.555   6.236  0.7841  0.8120  0.8290
  136OSM   H11B14744   2.686   1.422   6.126 -0.2898 -0.0626  0.0097
  136OSM      P14745   2.554   1.739   6.048  0.2157 -0.0714  0.2785
  136OSM    O1314746   2.544   1.816   5.921 -0.4706 -0.2647 -0.2317
  136OSM    O1414747   2.428   1.720   6.121 -0.0146 -0.0486 -0.0144
  136OSM    O1114748   2.653   1.823   6.142 -0.2933  0.1237 -0.1499
  136OSM    O1214749   2.638   1.601   6.030  0.0818  0.7598 -0.3664
  136OSM    C1S14750   2.654   1.964   6.135 -0.9261 -0.7848 -0.4566
  136OSM    H1S14751   2.556   2.016   6.125 -0.4235  0.2676 -0.1130
  136OSM    H1T14752   2.722   1.999   6.055 -1.7241  1.9590 -0.0487
  136OSM     NF14753   2.673   2.158   6.312  0.1826  0.3291  0.5299
  136OSM    HNF14754   2.743   2.226   6.294  1.4621 -1.3115 -1.1096
  136OSM    C2S14755   2.698   2.017   6.282 -0.2054  0.2459  0.5751
  136OSM    H2S14756   2.653   1.958   6.365  2.6073 -1.1949  1.1794
  136OSM    C3S14757   2.849   1.975   6.318  0.0648 -0.7527 -0.6252
  136OSM    H3S14758   2.913   2.046   6.262  0.4873 -1.1611 -0.6707
  136OSM     O314759   2.874   1.834   6.282 -0.1977 -0.8916 -0.3146
  136OSM    HO314760   2.800   1.819   6.223  0.6755 -1.7939 -1.2042
  136OSM    C4S14761   2.874   1.993   6.472  0.1043 -0.7131 -0.0337
  136OSM    H4S14762   2.904   2.096   6.497  1.1976 -0.4472 -2.1667
  136OSM    C5S14763   2.853   1.914   6.573 -0.3185 -0.8596 -0.6892
  136OSM    H5S14764   2.801   1.818   6.561 -1.9109  0.1143 -2.2739
  136OSM    C6S14765   2.863   1.958   6.724 -0.0572  0.1907 -0.2336
  136OSM    H6S14766   2.917   2.054   6.740 -1.6717  1.1144 -0.1130
  136OSM    H6T14767   2.918   1.878   6.778  1.0598  2.4425  2.1792
  136OSM    C7S14768   2.732   1.962   6.809 -0.1086  0.0945  1.2338
  136OSM    H7S14769   2.682   1.863   6.819 -0.0502 -0.2991 -1.5809
  136OSM    H7T14770   2.664   2.038   6.765 -0.2508 -0.3678  0.6562
  136OSM    C8S14771   2.749   2.014   6.950 -0.0397  0.0279 -0.4691
  136OSM    H8S14772   2.766   2.124   6.947  0.5062  0.0323  1.3504
  136OSM    H8T14773   2.846   1.981   6.991  0.1699 -0.1049 -1.0645
  136OSM    C9S14774   2.640   1.988   7.050 -0.3920  0.2484  0.4615
  136OSM    H9S14775   2.617   1.884   7.081  1.8125 -0.3558  0.2900
  136OSM    H9T14776   2.549   2.021   6.995 -0.4001  0.4323  0.5855
  136OSM   C10S14777   2.665   2.064   7.178 -0.3272  0.0042  0.4387
  136OSM   H10S14778   2.570   2.101   7.223 -0.3589  0.1157  0.2819
  136OSM   H10T14779   2.711   2.164   7.163  0.1522  0.5121  4.3282
  136OSM   C11S14780   2.743   1.986   7.282 -0.4096 -0.2370 -0.3234
  136OSM   H11S14781   2.824   1.931   7.229 -0.6387 -0.6877 -0.2151
  136OSM   H11T14782   2.677   1.913   7.334  0.8390 -1.4023 -0.3135
  136OSM   C12S14783   2.815   2.079   7.383 -0.7558  0.0172 -0.0996
  136OSM   H12S14784   2.744   2.161   7.406 -1.5350 -0.6688 -0.0253
  136OSM   H12T14785   2.906   2.118   7.332 -1.3462 -0.3790 -1.5220
  136OSM   C13S14786   2.856   2.023   7.524 -0.5623  0.6002 -0.1752
  136OSM   H13S14787   2.931   2.082   7.581  2.1227 -3.8087  1.3504
  136OSM   H13T14788   2.913   1.930   7.502 -3.5535 -1.3733 -0.2914
  136OSM   C14S14789   2.743   1.979   7.612  0.7006  0.2688 -0.5552
  136OSM   H14S14790   2.675   1.922   7.546  1.0796 -0.2148 -0.5324
  136OSM   H14T14791   2.692   2.069   7.652  1.6446  0.1991  0.8468
  136OSM   C15S14792   2.796   1.900   7.739  0.3933  0.3721 -0.0718
  136OSM   H15S14793   2.854   1.962   7.811 -0.1621 -1.6649  2.2580
  136OSM   H15T14794   2.863   1.818   7.706  0.2981  0.6468 -0.9936
  136OSM   C16S14795   2.675   1.852   7.815 -0.0507 -0.7546 -0.1877
  136OSM   H16S14796   2.618   1.806   7.732  1.1932 -0.5463 -1.1940
  136OSM   H16T14797   2.620   1.941   7.851  0.4288 -0.1209 -0.9805
  136OSM   C17S14798   2.707   1.764   7.936 -0.2817 -0.5380 -0.3932
  136OSM   H17S14799   2.747   1.841   8.005  1.3039 -1.0920 -0.6355
  136OSM   H17T14800   2.784   1.687   7.913  0.1109  0.2417 -1.8588
  136OSM   C18S14801   2.600   1.685   8.007 -0.3698 -0.2036  0.0448
  136OSM   H18S14802   2.507   1.744   8.023 -1.3654 -1.8223  0.5273
  136OSM   H18T14803   2.642   1.643   8.101  0.0935  2.1189  0.9398
  136OSM   H18U14804   2.571   1.600   7.942 -0.7416  0.3159 -0.4781
  136OSM    C1F14805   2.547   2.199   6.312  0.1530 -0.8458 -0.7120
  136OSM     OF14806   2.455   2.124   6.316  0.1864 -0.1072 -0.7018
  136OSM    C2F14807   2.523   2.349   6.304 -0.3332 -0.2439 -0.6475
  136OSM    H2F14808   2.499   2.371   6.198 -1.3907  1.9266 -0.0019
  136OSM    H2G14809   2.612   2.404   6.340  0.3077 -0.4120 -1.9268
  136OSM    C3F14810   2.409   2.394   6.388 -0.2614 -0.2944  0.0806
  136OSM    H3F14811   2.326   2.331   6.349  0.3043 -0.0543 -1.6226
  136OSM    H3G14812   2.389   2.501   6.364  2.4705  0.4698  0.8843
  136OSM    C4F14813   2.426   2.373   6.539  0.3602 -0.4100  0.5767
  136OSM    H4F14814   2.442   2.265   6.563 -0.6344 -0.5927  0.4489
  136OSM    H4G14815   2.335   2.417   6.584 -0.6796 -1.5288 -0.3694
  136OSM    C5F14816   2.545   2.450   6.598 -0.1582 -0.6797 -0.1315
  136OSM    H5F14817   2.549   2.553   6.556  2.7107 -0.5829  0.1898
  136OSM    H5G14818   2.639   2.400   6.568 -0.4838 -2.1173  1.1439
  136OSM    C6F14819   2.551   2.474   6.750 -0.5353 -0.0428 -0.0786
  136OSM    H6F14820   2.468   2.544   6.775  1.4660  2.3522  0.2111
  136OSM    H6G14821   2.642   2.533   6.771 -0.7813  0.9234 -1.5388
  136OSM    C7F14822   2.533   2.348   6.829 -0.1192  0.0804  0.2725
  136OSM    H7F14823   2.602   2.271   6.788 -0.3688  0.4682 -0.8919
  136OSM    H7G14824   2.434   2.301   6.808 -1.2931  2.2600  0.6636
  136OSM    C8F14825   2.565   2.365   6.971  0.3749 -0.3280 -0.0548
  136OSM    H8F14826   2.673   2.390   6.972  0.2861  0.0424  0.3781
  136OSM    H8G14827   2.558   2.270   7.028 -1.5730 -0.0636  0.1979
  136OSM    C9F14828   2.478   2.471   7.035 -0.2777 -0.3189  0.7007
  136OSM    H9F14829   2.384   2.505   6.990 -0.4335  1.1765  2.0752
  136OSM   C10F14830   2.515   2.539   7.141 -0.4332  0.3581  0.3095
  136OSM   H10F14831   2.461   2.619   7.195  0.4909  0.2511  1.4268
  136OSM   C11F14832   2.644   2.504   7.214  0.8031 -0.8053 -0.3087
  136OSM   H11F14833   2.716   2.588   7.204 -0.0547 -0.0375 -0.2249
  136OSM   H11G14834   2.703   2.419   7.174  2.3234  0.7469 -1.5199
  136OSM   C12F14835   2.621   2.483   7.365 -0.3414  0.5073 -0.1819
  136OSM   H12F14836   2.587   2.378   7.379  0.5187  0.0366 -1.4549
  136OSM   H12G14837   2.546   2.554   7.405 -1.4322 -1.2517  1.0336
  136OSM   C13F14838   2.744   2.514   7.455 -0.3548  0.3282 -0.4151
  136OSM   H13F14839   2.792   2.611   7.433  1.6293 -0.9704 -2.2770
  136OSM   H13G14840   2.825   2.439   7.442  1.2965  2.3054 -2.0503
  136OSM   C14F14841   2.695   2.518   7.600 -0.0378  0.0874 -0.3685
  136OSM   H14F14842   2.641   2.424   7.625 -0.0559  0.5021  1.2990
  136OSM   H14G14843   2.609   2.589   7.607 -1.6008 -1.2941 -3.6558
  136OSM   C15F14844   2.806   2.518   7.701 -0.4652  0.0177 -0.3059
  136OSM   H15F14845   2.843   2.621   7.719  0.0233 -0.5751  2.5117
  136OSM   H15G14846   2.893   2.454   7.679  0.2164  0.7219  0.2910
  136OSM   C16F14847   2.761   2.452   7.834  0.7840  0.3345  0.6104
  136OSM   H16F14848   2.707   2.356   7.818  1.0971  0.3303 -0.5633
  136OSM   H16G14849   2.694   2.523   7.888 -0.5132  0.3243 -0.8803
  136OSM   C17F14850   2.881   2.414   7.915  0.2875 -0.2596 -1.0126
  136OSM   H17F14851   2.956   2.495   7.916  0.3694 -0.3189 -1.7870
  136OSM   H17G14852   2.922   2.326   7.862 -1.7708 -1.4928 -0.6901
  136OSM   C18F14853   2.841   2.386   8.056  0.0576 -0.1585 -0.2136
  136OSM   H18F14854   2.924   2.361   8.126 -0.4216 -1.3904 -0.0502
  136OSM   H18G14855   2.776   2.297   8.071  1.8601 -1.2105  2.1611
  136OSM   H18H14856   2.790   2.475   8.099  0.6327 -0.1172  0.4060
  137OSM      N14857   5.949   1.135   6.408 -0.0193 -0.4775  0.1865
  137OSM    C1514858   5.916   1.160   6.550  0.5598  0.3841  0.0517
  137OSM   H15A14859   5.817   1.125   6.576  0.7726  1.0864  1.9608
  137OSM   H15B14860   5.911   1.267   6.563 -2.1879  0.3098  0.1740
  137OSM   H15C14861   5.988   1.126   6.622  0.4886  1.0987  0.4722
  137OSM    C1414862   5.853   1.212   6.330 -0.2298 -0.6139 -0.4029
  137OSM   H14A14863   5.860   1.319   6.340  0.2988 -0.8299  1.8920
  137OSM   H14B14864   5.751   1.191   6.359 -1.0313  1.7366 -1.2612
  137OSM   H14C14865   5.864   1.207   6.222  0.3764 -1.7046 -0.3054
  137OSM    C1314866   6.084   1.176   6.379 -0.1345 -0.6557  0.2992
  137OSM   H13A14867   6.161   1.135   6.443  1.8482  2.6893  0.3031
  137OSM   H13B14868   6.097   1.282   6.396 -0.6734 -0.7280  1.2482
  137OSM   H13C14869   6.107   1.154   6.275 -2.0273 -0.9868 -0.0810
  137OSM    C1214870   5.934   0.991   6.362  0.7662 -0.4763  0.7232
  137OSM   H12A14871   5.925   0.990   6.255  0.8231 -1.9826  0.7093
  137OSM   H12B14872   5.840   0.952   6.397  1.0835 -2.2590 -0.2878
  137OSM    C1114873   6.040   0.892   6.413 -0.2875  0.6645  0.7227
  137OSM   H11A14874   6.029   0.880   6.523 -2.9463 -1.9077  0.2659
  137OSM   H11B14875   6.142   0.920   6.378  0.5305 -0.5106  2.0512
  137OSM      P14876   5.890   0.674   6.358 -0.4237 -0.0072  0.1952
  137OSM    O1314877   5.779   0.744   6.294 -0.0260 -0.3269 -0.2701
  137OSM    O1414878   5.936   0.542   6.309  0.3668 -0.3730  0.0344
  137OSM    O1114879   5.877   0.681   6.516  0.0356 -0.1354 -0.6203
  137OSM    O1214880   6.023   0.766   6.346  0.2671  0.2766  0.0054
  137OSM    C1S14881   5.964   0.596   6.603 -0.0276  0.1299 -0.7878
  137OSM    H1S14882   6.071   0.615   6.577 -0.2021  1.4866 -0.6277
  137OSM    H1T14883   5.928   0.492   6.595 -0.7360  0.2336  0.7618
  137OSM     NF14884   6.057   0.566   6.826  0.7834 -0.2362 -0.2610
  137OSM    HNF14885   6.040   0.469   6.817  0.4069 -0.1446 -0.5546
  137OSM    C2S14886   5.960   0.643   6.751 -0.0765 -0.7230  0.4616
  137OSM    H2S14887   5.980   0.753   6.757  1.3915 -0.9993  1.0378
  137OSM    C3S14888   5.813   0.622   6.803 -0.5719  0.4368 -0.2335
  137OSM    H3S14889   5.792   0.514   6.814 -0.9185  0.5261  0.0017
  137OSM     O314890   5.714   0.664   6.714 -0.6282 -0.0773 -0.0469
  137OSM    HO314891   5.758   0.687   6.633 -1.9570 -0.3067 -0.8658
  137OSM    C4S14892   5.799   0.700   6.937  1.3276 -0.2555  0.3849
  137OSM    H4S14893   5.793   0.636   7.027  0.1164 -1.5482 -0.5626
  137OSM    C5S14894   5.790   0.836   6.959  0.1849  0.2621  0.9961
  137OSM    H5S14895   5.791   0.893   6.865  0.7261  2.1142  2.0797
  137OSM    C6S14896   5.782   0.903   7.090 -0.4483 -0.3378 -0.4101
  137OSM    H6S14897   5.687   0.959   7.105 -0.7943 -1.0337  0.0551
  137OSM    H6T14898   5.873   0.962   7.114 -0.2077 -0.8309 -0.0982
  137OSM    C7S14899   5.769   0.799   7.209  0.4660 -0.9701 -0.3027
  137OSM    H7S14900   5.868   0.751   7.224 -1.3176 -4.1230  3.0431
  137OSM    H7T14901   5.697   0.715   7.195  0.0648 -0.6185 -0.3836
  137OSM    C8S14902   5.731   0.877   7.332 -0.0100 -0.6802 -0.9010
  137OSM    H8S14903   5.630   0.921   7.318 -0.1017 -0.4618  0.3556
  137OSM    H8T14904   5.812   0.952   7.349 -0.7430  0.3749 -1.8872
  137OSM    C9S14905   5.724   0.792   7.460 -0.3089 -0.1836 -0.3064
  137OSM    H9S14906   5.825   0.746   7.460  0.4455  1.3804 -1.5220
  137OSM    H9T14907   5.641   0.717   7.459  0.2300 -0.9284  2.3629
  137OSM   C10S14908   5.700   0.890   7.575  0.0638  0.8532  0.2678
  137OSM   H10S14909   5.625   0.967   7.547  0.1286  1.0719  0.6884
  137OSM   H10T14910   5.791   0.952   7.589 -1.4333  3.2099  0.1094
  137OSM   C11S14911   5.662   0.819   7.712  0.4074  0.6264  0.1270
  137OSM   H11S14912   5.742   0.746   7.738 -1.1508 -0.7801  1.1429
  137OSM   H11T14913   5.568   0.762   7.693  0.0142  1.1780  0.4059
  137OSM   C12S14914   5.630   0.922   7.815  0.6241  0.1242 -0.0003
  137OSM   H12S14915   5.551   0.991   7.780 -0.0173 -1.1235 -1.1238
  137OSM   H12T14916   5.722   0.984   7.824  1.3512 -1.0025  0.6363
  137OSM   C13S14917   5.578   0.858   7.947 -0.2072 -0.2999  0.3266
  137OSM   H13S14918   5.659   0.785   7.973 -0.2628  0.1336  1.7743
  137OSM   H13T14919   5.488   0.795   7.932 -1.0290  0.8632  0.2808
  137OSM   C14S14920   5.564   0.955   8.062 -0.1341 -0.0896  0.1088
  137OSM   H14S14921   5.499   1.035   8.021 -1.0840 -1.8961 -2.1916
  137OSM   H14T14922   5.665   0.998   8.073 -0.6836  1.6926 -1.2821
  137OSM   C15S14923   5.511   0.895   8.195  0.3910  0.1213 -1.0969
  137OSM   H15S14924   5.590   0.824   8.227  1.2394  1.7545  0.6769
  137OSM   H15T14925   5.410   0.851   8.177  0.8918 -1.4372 -0.2904
  137OSM   C16S14926   5.504   1.008   8.309 -0.0024  0.1981  0.4152
  137OSM   H16S14927   5.611   1.031   8.328  0.2231  1.0748 -1.5719
  137OSM   H16T14928   5.458   0.961   8.398 -0.9891 -0.2671 -0.3220
  137OSM   C17S14929   5.413   1.121   8.275  0.5273  0.1834  0.7200
  137OSM   H17S14930   5.328   1.090   8.211  0.3490  3.4114 -0.7946
  137OSM   H17T14931   5.471   1.175   8.197  0.4786 -2.4902 -1.2828
  137OSM   C18S14932   5.376   1.207   8.396  0.1373 -0.1331  0.0702
  137OSM   H18S14933   5.329   1.300   8.358  0.6103 -0.0838 -0.4095
  137OSM   H18T14934   5.468   1.231   8.453  1.4783  0.1381 -2.0572
  137OSM   H18U14935   5.302   1.150   8.456 -0.8251  0.4953 -0.4874
  137OSM    C1F14936   6.179   0.610   6.847 -0.2514 -0.7914 -0.1998
  137OSM     OF14937   6.200   0.730   6.856  0.4992  0.1262 -0.7303
  137OSM    C2F14938   6.291   0.516   6.844 -0.2739  0.1309 -0.2404
  137OSM    H2F14939   6.365   0.551   6.918 -0.4833 -0.6493  0.3578
  137OSM    H2G14940   6.344   0.541   6.750  0.8730 -0.1536  0.3123
  137OSM    C3F14941   6.264   0.362   6.851 -0.3464 -1.2673 -0.6958
  137OSM    H3F14942   6.364   0.315   6.844  0.2712 -0.6270  2.2710
  137OSM    H3G14943   6.213   0.327   6.759  1.1687 -2.8597 -0.9798
  137OSM    C4F14944   6.215   0.303   6.983  0.2034 -0.1906 -0.4925
  137OSM    H4F14945   6.220   0.192   6.982 -0.4296 -0.2271 -0.0459
  137OSM    H4G14946   6.110   0.337   6.988  0.1741 -0.3254 -0.1438
  137OSM    C5F14947   6.293   0.358   7.107  0.0765  1.0755 -0.6895
  137OSM    H5F14948   6.247   0.453   7.142 -1.2323  0.3959 -0.5006
  137OSM    H5G14949   6.401   0.376   7.087  0.4515 -1.7369 -1.6634
  137OSM    C6F14950   6.295   0.263   7.234 -0.0143 -0.0785  0.4978
  137OSM    H6F14951   6.347   0.173   7.193  1.2507  0.0194  1.7917
  137OSM    H6G14952   6.189   0.234   7.246 -0.4818  0.8049 -1.1749
  137OSM    C7F14953   6.353   0.315   7.362  0.3700 -0.1243  0.0138
  137OSM    H7F14954   6.283   0.386   7.411 -0.9587 -1.1075 -0.3991
  137OSM    H7G14955   6.446   0.372   7.340  1.8651 -0.6570  3.9538
  137OSM    C8F14956   6.405   0.215   7.467  0.1978  0.4285  0.0918
  137OSM    H8F14957   6.495   0.261   7.513 -0.4384  1.5018  0.3091
  137OSM    H8G14958   6.432   0.113   7.432 -3.6346 -0.8818  0.4987
  137OSM    C9F14959   6.292   0.196   7.565 -0.0749 -1.0273  0.1451
  137OSM    H9F14960   6.204   0.149   7.519 -0.1051 -0.3118 -0.5527
  137OSM   C10F14961   6.290   0.231   7.692 -0.5597 -1.0067  0.0525
  137OSM   H10F14962   6.201   0.225   7.757 -0.6328 -1.8288 -0.1111
  137OSM   C11F14963   6.403   0.306   7.767  0.1349 -0.2169 -0.1469
  137OSM   H11F14964   6.476   0.349   7.695  0.4758 -1.8377 -0.8307
  137OSM   H11G14965   6.470   0.242   7.829 -0.8278  0.8582  2.1443
  137OSM   C12F14966   6.354   0.403   7.873  0.5291 -0.3439  0.2084
  137OSM   H12F14967   6.278   0.466   7.822 -0.0151 -0.6660  0.6084
  137OSM   H12G14968   6.439   0.463   7.910 -0.0229  0.8811 -0.4594
  137OSM   C13F14969   6.298   0.339   7.999 -0.2104 -1.0934 -0.0113
  137OSM   H13F14970   6.385   0.302   8.057 -0.0416 -0.7190 -0.0172
  137OSM   H13G14971   6.234   0.250   7.983 -1.6013 -0.3837  1.3894
  137OSM   C14F14972   6.213   0.446   8.073 -0.1556  0.1028 -0.2353
  137OSM   H14F14973   6.113   0.448   8.025  0.6299 -0.4094 -1.9831
  137OSM   H14G14974   6.254   0.549   8.061  1.2992 -0.3895  0.3001
  137OSM   C15F14975   6.181   0.420   8.217 -0.3269  0.9628  0.0184
  137OSM   H15F14976   6.181   0.311   8.235  2.2535  0.4381 -2.3801
  137OSM   H15G14977   6.078   0.451   8.244 -0.9771 -1.8386  0.9776
  137OSM   C16F14978   6.269   0.487   8.316 -0.0792  0.8771 -0.0048
  137OSM   H16F14979   6.375   0.454   8.308 -0.7787 -1.0743 -3.0637
  137OSM   H16G14980   6.234   0.461   8.418 -0.3222  0.4116 -0.2060
  137OSM   C17F14981   6.268   0.639   8.304 -1.0755  0.2946 -0.7013
  137OSM   H17F14982   6.168   0.686   8.293 -1.1495  0.4952  0.6647
  137OSM   H17G14983   6.328   0.684   8.222 -0.1612  2.4584  1.0817
  137OSM   C18F14984   6.326   0.698   8.435 -0.3875  0.7719  0.1905
  137OSM   H18F14985   6.430   0.660   8.444 -0.0524  1.5947 -0.1192
  137OSM   H18G14986   6.268   0.649   8.516  1.9974 -0.0820  1.4712
  137OSM   H18H14987   6.330   0.808   8.424  1.0568  0.5041 -3.0272
  138OSM      N14988   1.142   1.364   6.001  0.5755 -1.0022 -0.0744
  138OSM    C1514989   1.296   1.354   6.003  0.5183 -0.3738 -0.0042
  138OSM   H15A14990   1.340   1.452   6.006  0.7383 -0.4856  0.6395
  138OSM   H15B14991   1.337   1.307   5.914  0.2343 -2.1549  0.7654
  138OSM   H15C14992   1.338   1.303   6.089 -0.7404 -2.1831 -0.4060
  138OSM    C1414993   1.111   1.401   5.859 -0.3655  0.1914 -0.6334
  138OSM   H14A14994   1.161   1.493   5.831 -0.0111  0.3059  0.3332
  138OSM   H14B14995   1.007   1.423   5.843 -0.2262  0.4288 -1.2408
  138OSM   H14C14996   1.137   1.327   5.784 -0.4955 -0.6358  0.1243
  138OSM    C1314997   1.096   1.226   6.027  0.2645 -0.2301 -0.0993
  138OSM   H13A14998   1.136   1.180   6.116  0.1454  1.5122  0.8806
  138OSM   H13B14999   1.112   1.148   5.954 -0.6895 -0.0203 -0.5526
  138OSM   H13C15000   0.989   1.230   6.044  0.2816 -0.3575  0.0388
  138OSM    C1215001   1.074   1.475   6.096 -0.1804 -0.2984  0.7085
  138OSM   H12A15002   0.968   1.458   6.078 -0.0697 -0.8820  0.5667
  138OSM   H12B15003   1.092   1.571   6.051 -0.5392 -0.5561 -0.0028
  138OSM    C1115004   1.114   1.477   6.242  0.1692  0.4345  0.3990
  138OSM   H11A15005   1.100   1.371   6.273 -0.6398 -0.5506 -2.9920
  138OSM   H11B15006   1.041   1.538   6.299  1.1748  2.0396  0.0567
  138OSM      P15007   1.283   1.666   6.253  0.0593 -0.3034 -0.2392
  138OSM    O1315008   1.414   1.687   6.312  0.1886 -0.2768 -0.2103
  138OSM    O1415009   1.271   1.705   6.110  0.0051 -0.1165  0.3743
  138OSM    O1115010   1.170   1.736   6.335  0.2545  0.3164 -0.5520
  138OSM    O1215011   1.248   1.516   6.269 -0.3899 -0.4448  0.3049
  138OSM    C1S15012   1.166   1.724   6.478 -0.0194  0.1145 -0.4188
  138OSM    H1S15013   1.265   1.759   6.515 -0.0671 -0.0043 -0.1757
  138OSM    H1T15014   1.155   1.617   6.506  1.2361 -0.1690 -0.9650
  138OSM     NF15015   1.048   1.785   6.691  0.5307 -0.1658  0.0579
  138OSM    HNF15016   1.011   1.700   6.726  1.5704 -1.0560 -0.9360
  138OSM    C2S15017   1.044   1.796   6.546  0.5001 -0.4736 -0.4332
  138OSM    H2S15018   1.039   1.902   6.515  0.2614 -0.5041 -0.5028
  138OSM    C3S15019   0.920   1.720   6.493  0.5404  0.0133  0.6053
  138OSM    H3S15020   0.934   1.614   6.522 -1.1376 -1.0343 -2.0745
  138OSM     O315021   0.895   1.731   6.350  0.0720 -0.0736 -0.0587
  138OSM    HO315022   0.980   1.736   6.307 -0.0496 -1.4726 -0.5217
  138OSM    C4S15023   0.794   1.756   6.573  0.3854  0.1766 -0.2587
  138OSM    H4S15024   0.798   1.695   6.664 -0.3396  0.5020 -0.0038
  138OSM    C5S15025   0.695   1.846   6.549  0.4735  0.0731 -0.0628
  138OSM    H5S15026   0.711   1.906   6.459  1.1429 -0.4581 -0.3042
  138OSM    C6S15027   0.567   1.872   6.627  0.1371 -0.3923 -0.1990
  138OSM    H6S15028   0.476   1.854   6.566  0.1723  1.2513 -0.8211
  138OSM    H6T15029   0.563   1.983   6.638  2.4261 -0.3519  0.9174
  138OSM    C7S15030   0.554   1.800   6.757 -0.1704 -0.0263 -0.2410
  138OSM    H7S15031   0.568   1.693   6.734 -1.7375 -0.2383 -0.3570
  138OSM    H7T15032   0.452   1.801   6.802  0.3929  1.1653  1.1169
  138OSM    C8S15033   0.644   1.858   6.866  0.1659 -1.3442  0.1520
  138OSM    H8S15034   0.606   1.962   6.874  0.7747 -1.0918 -0.1964
  138OSM    H8T15035   0.749   1.876   6.837  0.3420  1.0943  1.9848
  138OSM    C9S15036   0.618   1.803   7.003 -0.0130 -0.0250  0.0350
  138OSM    H9S15037   0.644   1.695   7.014  2.4382  0.3178 -1.7417
  138OSM    H9T15038   0.508   1.809   7.020  0.0446  1.0788  0.0898
  138OSM   C10S15039   0.705   1.871   7.110 -0.3897 -0.1611  0.1022
  138OSM   H10S15040   0.678   1.978   7.121 -0.0892  0.0409 -0.9621
  138OSM   H10T15041   0.808   1.860   7.068 -0.3244  1.8852 -0.3529
  138OSM   C11S15042   0.727   1.801   7.245  0.7899 -0.6439  0.8687
  138OSM   H11S15043   0.767   1.700   7.222  0.0549 -0.0542 -3.7791
  138OSM   H11T15044   0.633   1.799   7.304  0.3458 -2.3230  0.1673
  138OSM   C12S15045   0.821   1.864   7.354  0.2785 -1.0201  0.1061
  138OSM   H12S15046   0.844   1.968   7.323  3.9656 -2.0484 -1.1598
  138OSM   H12T15047   0.920   1.815   7.340  0.1496 -0.8989 -1.3735
  138OSM   C13S15048   0.773   1.824   7.497 -0.2032 -0.0619 -0.0574
  138OSM   H13S15049   0.748   1.716   7.492 -2.9209  0.4596  0.7677
  138OSM   H13T15050   0.689   1.894   7.517  1.0866  1.4675  0.2307
  138OSM   C14S15051   0.888   1.844   7.596  0.3689 -0.5509 -0.4348
  138OSM   H14S15052   0.928   1.948   7.602  0.1551 -0.4314 -1.0380
  138OSM   H14T15053   0.969   1.774   7.565  1.4235 -0.2761  1.5413
  138OSM   C15S15054   0.846   1.818   7.742 -0.1382  0.1042 -0.7336
  138OSM   H15S15055   0.939   1.780   7.791 -0.3815 -1.0090 -1.0964
  138OSM   H15T15056   0.780   1.729   7.741  0.8436 -0.6576 -1.9646
  138OSM   C16S15057   0.778   1.936   7.816  0.2216 -0.7119 -0.5292
  138OSM   H16S15058   0.674   1.951   7.781 -0.3596 -2.3140  0.3734
  138OSM   H16T15059   0.843   2.024   7.797 -0.6163  0.0039 -0.1752
  138OSM   C17S15060   0.773   1.917   7.969 -0.8314  0.2913  0.0521
  138OSM   H17S15061   0.879   1.896   7.995 -0.4314 -1.9512 -2.9703
  138OSM   H17T15062   0.712   1.832   8.006  0.0613 -0.4690 -0.2036
  138OSM   C18S15063   0.729   2.044   8.047 -0.8910  0.2157  0.1240
  138OSM   H18S15064   0.819   2.099   8.082 -0.7467  0.2780 -0.3412
  138OSM   H18T15065   0.670   2.026   8.140 -1.9341  1.9599 -0.1626
  138OSM   H18U15066   0.668   2.112   7.983 -0.7054  0.8857  0.6429
  138OSM    C1F15067   1.125   1.861   6.772  0.3297  1.8319  0.3778
  138OSM     OF15068   1.199   1.944   6.727 -0.2393  0.2536  0.3099
  138OSM    C2F15069   1.107   1.825   6.914 -0.5686 -0.2213  0.2133
  138OSM    H2F15070   1.158   1.729   6.938  1.2068  0.8110  0.8000
  138OSM    H2G15071   0.999   1.810   6.934 -0.8920 -0.2509 -1.4039
  138OSM    C3F15072   1.151   1.935   7.012 -0.2263 -0.2098 -0.1911
  138OSM    H3F15073   1.098   2.032   6.995  0.1544 -0.0067 -0.2370
  138OSM    H3G15074   1.260   1.953   7.001 -0.6184  2.7499 -0.2887
  138OSM    C4F15075   1.119   1.904   7.162 -0.0925  0.1973  0.5825
  138OSM    H4F15076   1.119   1.795   7.184  0.5880 -0.3884 -2.0061
  138OSM    H4G15077   1.016   1.947   7.163 -0.2740 -0.1621 -0.7791
  138OSM    C5F15078   1.217   1.974   7.250  0.7542  0.0837 -0.5646
  138OSM    H5F15079   1.251   2.071   7.208  0.1565  1.2681  1.5255
  138OSM    H5G15080   1.308   1.911   7.260 -0.0789 -1.4617 -2.2166
  138OSM    C6F15081   1.151   2.000   7.387 -0.2341  0.1536  0.2518
  138OSM    H6F15082   1.118   1.900   7.420  1.4516 -0.3767  0.4047
  138OSM    H6G15083   1.057   2.059   7.382  0.0228  0.4904 -1.0155
  138OSM    C7F15084   1.251   2.069   7.490  0.4569  0.1915  0.1618
  138OSM    H7F15085   1.265   2.161   7.428  0.7568 -0.6530 -1.0635
  138OSM    H7G15086   1.349   2.018   7.500  0.9814  1.3915  1.4013
  138OSM    C8F15087   1.185   2.100   7.626 -0.7807  0.2040 -0.1928
  138OSM    H8F15088   1.079   2.116   7.595 -0.3641  0.4412 -1.5616
  138OSM    H8G15089   1.202   2.202   7.664  1.1814  0.5029 -1.6810
  138OSM    C9F15090   1.198   1.984   7.727 -0.0536 -0.3065  0.2999
  138OSM    H9F15091   1.143   1.892   7.704  0.7766 -1.3793  2.3415
  138OSM   C10F15092   1.248   1.982   7.853 -0.1306 -0.6860 -0.0502
  138OSM   H10F15093   1.223   1.898   7.918 -2.2950 -0.4987 -0.5505
  138OSM   C11F15094   1.307   2.101   7.925  0.3333  0.3656  0.8628
  138OSM   H11F15095   1.342   2.171   7.846  3.1227 -2.0339 -0.2151
  138OSM   H11G15096   1.398   2.073   7.983 -0.0279 -0.3868  1.0774
  138OSM   C12F15097   1.204   2.155   8.033  0.0610  0.5665  0.5395
  138OSM   H12F15098   1.101   2.170   7.994  0.4695  0.3150 -0.7116
  138OSM   H12G15099   1.243   2.257   8.054 -2.4797  2.1902 -1.8222
  138OSM   C13F15100   1.211   2.083   8.167 -0.0382 -0.2522  0.2793
  138OSM   H13F15101   1.314   2.088   8.206 -0.4586  1.3485  1.2735
  138OSM   H13G15102   1.180   1.976   8.162  1.2632 -0.6040 -0.8909
  138OSM   C14F15103   1.106   2.148   8.264 -0.7064  0.3121 -0.4227
  138OSM   H14F15104   0.999   2.142   8.235 -1.2609  1.7968  1.1014
  138OSM   H14G15105   1.131   2.257   8.264  0.8535 -0.0245 -0.9722
  138OSM   C15F15106   1.116   2.085   8.403  0.3433 -0.4070 -1.2084
  138OSM   H15F15107   1.215   2.106   8.448 -0.4648  0.9846 -0.0069
  138OSM   H15G15108   1.102   1.975   8.389 -0.7695 -0.5111  0.3901
  138OSM   C16F15109   1.008   2.127   8.506 -0.5472 -0.5214 -0.8272
  138OSM   H16F15110   0.912   2.096   8.459 -2.2454  0.3404  1.8049
  138OSM   H16G15111   1.009   2.237   8.522  0.8785 -0.5713 -0.4012
  138OSM   C17F15112   1.017   2.058   8.638  0.3199  0.1554  0.3041
  138OSM   H17F15113   1.114   2.088   8.683  0.0758  1.1974  0.1703
  138OSM   H17G15114   1.003   1.950   8.620 -1.2778  0.4023 -0.1509
  138OSM   C18F15115   0.903   2.097   8.725  0.0927  0.1474  0.2398
  138OSM   H18F15116   0.881   2.024   8.806 -1.1378 -1.6219 -1.5921
  138OSM   H18G15117   0.803   2.104   8.677 -0.3315 -2.3999  0.6154
  138OSM   H18H15118   0.917   2.194   8.777  1.4724 -0.6229  1.3990
  139OSM      N15119   3.741   2.779   5.664 -0.2601  0.0530 -0.2300
  139OSM    C1515120   3.860   2.875   5.651 -0.2900  0.0760 -0.3627
  139OSM   H15A15121   3.860   2.934   5.560 -1.2325  1.8695  0.7579
  139OSM   H15B15122   3.952   2.818   5.647 -1.5037 -2.2163  1.7999
  139OSM   H15C15123   3.873   2.938   5.737 -2.3527 -0.8254  0.6936
  139OSM    C1415124   3.626   2.862   5.664  0.8285 -0.3593 -0.5051
  139OSM   H14A15125   3.615   2.917   5.572  1.7893  1.7658  0.5767
  139OSM   H14B15126   3.628   2.939   5.739  0.6584 -0.1631 -0.7023
  139OSM   H14C15127   3.536   2.806   5.681  1.9505 -2.3218 -0.7401
  139OSM    C1315128   3.745   2.689   5.556 -0.3651  0.2180  0.8357
  139OSM   H13A15129   3.757   2.744   5.464 -0.6284 -0.4859  0.3641
  139OSM   H13B15130   3.658   2.627   5.536  0.4026  0.1328 -2.8794
  139OSM   H13C15131   3.823   2.615   5.561  0.6020  1.2610  1.3802
  139OSM    C1215132   3.745   2.699   5.802 -0.2816  0.7426 -0.1150
  139OSM   H12A15133   3.831   2.633   5.798 -1.7973 -1.2844 -2.4324
  139OSM   H12B15134   3.664   2.627   5.797  1.4464 -1.3354  0.2707
  139OSM    C1115135   3.738   2.777   5.935 -0.3545  0.1203  0.5022
  139OSM   H11A15136   3.730   2.711   6.024 -2.0554 -0.1618  0.1700
  139OSM   H11B15137   3.643   2.834   5.922 -0.5687 -0.7174 -2.1536
  139OSM      P15138   3.993   2.813   5.990 -0.0062 -0.4696 -0.1695
  139OSM    O1315139   4.025   2.687   5.917 -0.1178 -0.0942  0.8701
  139OSM    O1415140   4.099   2.917   5.997 -0.0460  0.6552  1.0351
  139OSM    O1115141   3.966   2.765   6.137  0.2762  0.8572  0.1436
  139OSM    O1215142   3.851   2.870   5.940  0.3237 -0.2564  0.0101
  139OSM    C1S15143   3.905   2.865   6.226  0.3540 -0.0160  0.1867
  139OSM    H1S15144   3.821   2.921   6.180 -0.8251 -2.8937 -1.4920
  139OSM    H1T15145   3.979   2.942   6.254  1.2240 -0.9114  0.4310
  139OSM     NF15146   3.777   2.890   6.442  0.2914 -0.8299 -0.4564
  139OSM    HNF15147   3.825   2.916   6.525 -1.5310  0.1979  0.3296
  139OSM    C2S15148   3.860   2.799   6.367 -0.3500  0.0935  0.3641
  139OSM    H2S15149   3.802   2.707   6.346 -0.0756 -0.0433  0.2121
  139OSM    C3S15150   3.990   2.742   6.434  0.3674  0.1652 -0.3306
  139OSM    H3S15151   4.051   2.830   6.462 -1.0276  0.8616  0.6551
  139OSM     O315152   4.066   2.651   6.353 -0.1186 -0.4404  0.1734
  139OSM    HO315153   4.033   2.672   6.266  2.7702  0.3637 -0.8244
  139OSM    C4S15154   3.968   2.670   6.566  0.4484  0.0723  0.3249
  139OSM    H4S15155   3.998   2.734   6.650  1.4051  1.0175 -0.6998
  139OSM    C5S15156   3.929   2.546   6.591 -0.3985  0.1118 -0.3965
  139OSM    H5S15157   3.924   2.486   6.498  0.7871  1.8139 -1.6081
  139OSM    C6S15158   3.910   2.475   6.727 -0.9714 -0.0857  0.0382
  139OSM    H6S15159   3.990   2.400   6.742 -1.1758 -0.0989  1.1542
  139OSM    H6T15160   3.812   2.421   6.735 -1.3409  0.4686 -0.6745
  139OSM    C7S15161   3.921   2.569   6.844  0.3532 -0.8416 -0.0180
  139OSM    H7S15162   3.845   2.650   6.840  1.3393  0.3573  2.5981
  139OSM    H7T15163   4.024   2.611   6.846  0.1004 -0.2239  0.8550
  139OSM    C8S15164   3.919   2.485   6.977  0.0394 -0.0114  0.1172
  139OSM    H8S15165   4.001   2.409   6.974  1.7843  1.8221 -1.8400
  139OSM    H8T15166   3.815   2.445   6.979 -1.0476  2.2482 -3.3841
  139OSM    C9S15167   3.939   2.595   7.088  0.3995  0.0348 -0.1254
  139OSM    H9S15168   3.866   2.678   7.073  0.6215  0.1791 -0.4201
  139OSM    H9T15169   4.042   2.631   7.069  0.1182  0.4764 -0.8458
  139OSM   C10S15170   3.941   2.535   7.227  0.3984  0.3809 -0.4614
  139OSM   H10S15171   4.000   2.440   7.226 -0.4618 -0.1722 -0.0311
  139OSM   H10T15172   3.839   2.506   7.259  1.4140  0.4765  3.2351
  139OSM   C11S15173   3.989   2.643   7.335  0.6461 -0.2042  1.0757
  139OSM   H11S15174   3.944   2.743   7.313 -0.0736 -0.5605  0.9082
  139OSM   H11T15175   4.096   2.666   7.316  0.6756 -0.0634  1.4066
  139OSM   C12S15176   3.970   2.607   7.481 -0.4205 -0.3037 -0.3291
  139OSM   H12S15177   4.029   2.517   7.511  0.8892  0.4115 -0.6962
  139OSM   H12T15178   3.862   2.589   7.499 -1.0988  0.5852 -2.9742
  139OSM   C13S15179   3.997   2.724   7.576 -0.4454  0.1603  0.7338
  139OSM   H13S15180   3.918   2.799   7.555 -2.8515 -2.2190  0.7845
  139OSM   H13T15181   4.099   2.762   7.551 -0.0691 -1.3863 -0.2163
  139OSM   C14S15182   4.017   2.695   7.731  0.7276  0.0744 -0.1521
  139OSM   H14S15183   4.055   2.591   7.737  1.5031  0.2558 -1.4357
  139OSM   H14T15184   3.918   2.678   7.779  0.3357 -0.1740 -1.0254
  139OSM   C15S15185   4.093   2.801   7.803 -0.3002 -0.6234 -0.8899
  139OSM   H15S15186   4.071   2.902   7.760  3.0303  0.7924  0.4042
  139OSM   H15T15187   4.200   2.782   7.780 -0.4626 -0.8168 -1.4936
  139OSM   C16S15188   4.074   2.802   7.961  0.8086  0.1824 -0.1567
  139OSM   H16S15189   4.089   2.701   8.005  0.1953 -0.6262 -1.7205
  139OSM   H16T15190   3.973   2.839   7.987  1.9417  1.9743  2.1797
  139OSM   C17S15191   4.160   2.908   8.030  0.1514  0.8529  0.0166
  139OSM   H17S15192   4.137   3.008   7.989  0.2415 -0.2528 -2.9458
  139OSM   H17T15193   4.264   2.889   7.995 -0.0235 -0.9072  0.3730
  139OSM   C18S15194   4.160   2.902   8.184 -0.5210 -0.3484 -0.4874
  139OSM   H18S15195   4.196   2.800   8.210  0.8008  0.2919  0.2722
  139OSM   H18T15196   4.059   2.923   8.224 -0.2596 -0.9688  0.5319
  139OSM   H18U15197   4.236   2.970   8.229 -0.3652 -1.3290  0.7623
  139OSM    C1F15198   3.657   2.935   6.416  0.8258 -0.1457 -0.1373
  139OSM     OF15199   3.595   2.909   6.309 -0.1757  0.4907 -0.4354
  139OSM    C2F15200   3.600   3.033   6.517 -0.3313 -0.0073 -0.4435
  139OSM    H2F15201   3.492   3.033   6.490 -0.3431 -0.1681 -0.3987
  139OSM    H2G15202   3.647   3.130   6.494 -0.0788 -0.2698 -1.0769
  139OSM    C3F15203   3.626   2.999   6.668 -0.2660  0.1664 -0.0363
  139OSM    H3F15204   3.735   2.983   6.675  0.7618  5.7298  1.2057
  139OSM    H3G15205   3.574   2.905   6.696 -1.3351 -0.4059 -3.4458
  139OSM    C4F15206   3.584   3.104   6.770  0.0450  0.2473  0.5882
  139OSM    H4F15207   3.660   3.186   6.770 -0.2192  0.5522 -1.4401
  139OSM    H4G15208   3.583   3.068   6.875 -0.4655  1.3281  0.9618
  139OSM    C5F15209   3.442   3.160   6.744 -0.6495  0.5562  0.1453
  139OSM    H5F15210   3.360   3.093   6.776  0.0116 -0.7118 -0.7316
  139OSM    H5G15211   3.425   3.188   6.638  2.0255  3.0098  0.2506
  139OSM    C6F15212   3.411   3.269   6.843 -0.1462 -0.6583  0.8799
  139OSM    H6F15213   3.503   3.332   6.842 -0.1323 -0.6650 -0.7198
  139OSM    H6G15214   3.402   3.230   6.947  1.9854  1.2519  1.8784
  139OSM    C7F15215   3.290   3.356   6.800 -0.5683  0.1217 -0.4482
  139OSM    H7F15216   3.319   3.395   6.700  1.1832  0.4984  0.1611
  139OSM    H7G15217   3.280   3.440   6.871 -1.8267 -0.1831 -0.2498
  139OSM    C8F15218   3.156   3.281   6.794 -0.0753 -0.5817  0.5943
  139OSM    H8F15219   3.144   3.226   6.890  1.7286 -1.0337  0.5893
  139OSM    H8G15220   3.151   3.202   6.717 -0.2818 -1.5825  1.6060
  139OSM    C9F15221   3.042   3.377   6.763 -0.0757 -0.3134 -0.2411
  139OSM    H9F15222   3.064   3.428   6.668  0.1512 -1.7251 -0.9828
  139OSM   C10F15223   2.935   3.409   6.840 -0.6387  0.3042  1.4423
  139OSM   H10F15224   2.851   3.464   6.794 -3.2747 -4.2318  0.2541
  139OSM   C11F15225   2.903   3.359   6.972 -0.6827 -0.7531 -0.3020
  139OSM   H11F15226   2.873   3.437   7.046  1.3324 -0.3932  0.2030
  139OSM   H11G15227   2.993   3.312   7.018 -1.4225  0.3429  2.5135
  139OSM   C12F15228   2.786   3.251   6.968  0.3888 -0.9451  0.6220
  139OSM   H12F15229   2.829   3.177   6.898  1.1049  3.2603 -3.9465
  139OSM   H12G15230   2.693   3.281   6.913  0.5011 -2.3688 -0.4009
  139OSM   C13F15231   2.767   3.186   7.106 -0.3492 -0.1186  0.0660
  139OSM   H13F15232   2.860   3.169   7.165 -1.3712  1.2908  2.2239
  139OSM   H13G15233   2.724   3.086   7.085 -1.3200  0.5192 -1.0929
  139OSM   C14F15234   2.677   3.263   7.197 -0.3385 -0.0763  0.3536
  139OSM   H14F15235   2.582   3.283   7.142 -0.6857 -1.3684  0.4543
  139OSM   H14G15236   2.725   3.360   7.222  1.3780 -0.4994 -1.1256
  139OSM   C15F15237   2.658   3.186   7.329  0.2104  0.2051  0.8604
  139OSM   H15F15238   2.591   3.251   7.391  1.2004  2.5399 -0.3762
  139OSM   H15G15239   2.755   3.171   7.380  0.1076 -1.4056  0.6208
  139OSM   C16F15240   2.602   3.039   7.316 -0.3588  0.3916 -0.1800
  139OSM   H16F15241   2.682   2.979   7.269 -1.0018 -0.1200 -0.6219
  139OSM   H16G15242   2.517   3.048   7.246 -0.0465  0.7093 -0.5216
  139OSM   C17F15243   2.561   2.972   7.447  0.2891  0.0230 -0.1855
  139OSM   H17F15244   2.537   2.864   7.432 -2.2276  0.3798  0.7849
  139OSM   H17G15245   2.461   3.011   7.476  0.7678 -0.2656  2.0691
  139OSM   C18F15246   2.665   2.988   7.562  0.7580  0.0468  0.3557
  139OSM   H18F15247   2.765   2.965   7.520  2.2206  2.9986  1.8774
  139OSM   H18G15248   2.651   2.926   7.653  1.7323 -0.4146  0.2012
  139OSM   H18H15249   2.667   3.096   7.588  0.7810  0.4776 -1.3100
  140OSM      N15250   6.591   4.523   5.932 -0.6245 -0.1841  0.3456
  140OSM    C1515251   6.588   4.448   5.808 -0.1162 -0.2712  0.0647
  140OSM   H15A15252   6.489   4.407   5.805  0.5103 -1.8842  0.2972
  140OSM   H15B15253   6.659   4.368   5.793 -0.2620 -0.3803 -0.0448
  140OSM   H15C15254   6.587   4.508   5.719 -2.8657  0.8235  0.7322
  140OSM    C1415255   6.722   4.600   5.944 -0.6360 -0.3637 -0.1018
  140OSM   H14A15256   6.741   4.658   5.855 -0.5799  1.6469  1.1425
  140OSM   H14B15257   6.804   4.530   5.950 -0.4603 -0.0740  1.2498
  140OSM   H14C15258   6.727   4.656   6.036  0.9340 -2.1912  0.9863
  140OSM    C1315259   6.486   4.626   5.921 -0.1865  0.2245 -0.2153
  140OSM   H13A15260   6.389   4.580   5.934  0.1058 -0.4815 -0.4964
  140OSM   H13B15261   6.488   4.676   5.825  0.7493  0.2604 -0.1880
  140OSM   H13C15262   6.506   4.701   5.996  1.2561 -0.0224 -0.3304
  140OSM    C1215263   6.555   4.428   6.047  0.1355  0.0634  0.5922
  140OSM   H12A15264   6.622   4.343   6.037 -0.7002 -0.4664 -0.8612
  140OSM   H12B15265   6.459   4.380   6.036  0.6353 -1.5095  2.4587
  140OSM    C1115266   6.567   4.497   6.187  0.7966  0.1222  0.0282
  140OSM   H11A15267   6.514   4.429   6.256 -0.1095 -0.1408 -0.8963
  140OSM   H11B15268   6.512   4.594   6.192 -0.5157 -0.3638 -2.6618
  140OSM      P15269   6.798   4.419   6.268 -0.1477  0.2906 -0.5130
  140OSM    O1315270   6.757   4.375   6.403  0.6964 -0.2207 -0.0345
  140OSM    O1415271   6.813   4.311   6.170 -0.1765 -0.4138  0.2947
  140OSM    O1115272   6.936   4.494   6.289 -0.2127  0.2686  0.8884
  140OSM    O1215273   6.693   4.530   6.224  0.1786  0.2613 -0.3091
  140OSM    C1S15274   6.938   4.615   6.373  0.4292  0.0106  0.2063
  140OSM    H1S15275   6.843   4.670   6.356  0.8231  0.2677 -1.3701
  140OSM    H1T15276   7.016   4.686   6.338  0.2282 -0.0602 -0.3898
  140OSM     NF15277   6.927   4.701   6.603 -0.3110 -0.7419  0.1212
  140OSM    HNF15278   7.009   4.748   6.635 -0.3280  0.6849 -1.8078
  140OSM    C2S15279   6.954   4.579   6.526 -0.5606  0.4736  0.0601
  140OSM    H2S15280   6.878   4.503   6.554 -0.9766  1.5402  2.0526
  140OSM    C3S15281   7.088   4.512   6.555 -0.5263  0.3431  0.3271
  140OSM    H3S15282   7.168   4.579   6.517  0.1165 -1.0027 -0.8080
  140OSM     O315283   7.115   4.389   6.481  0.3805 -0.1982 -0.6046
  140OSM    HO315284   7.030   4.361   6.446  0.1712 -0.5834  0.1861
  140OSM    C4S15285   7.115   4.491   6.704  0.1587 -1.2241  0.4326
  140OSM    H4S15286   7.150   4.585   6.749 -0.5827 -0.7593  0.0494
  140OSM    C5S15287   7.109   4.381   6.775 -0.4983 -0.0686 -0.2884
  140OSM    H5S15288   7.070   4.299   6.712  0.8938 -0.3783 -0.7796
  140OSM    C6S15289   7.135   4.361   6.921  0.8997 -0.2741  0.3235
  140OSM    H6S15290   7.218   4.287   6.930  2.3645  1.0151 -1.6873
  140OSM    H6T15291   7.038   4.329   6.963  0.0935  1.7522  0.0849
  140OSM    C7S15292   7.176   4.483   6.998 -0.3842 -0.0855 -0.3773
  140OSM    H7S15293   7.092   4.553   7.020  0.2171  0.6762 -0.4735
  140OSM    H7T15294   7.243   4.546   6.937 -0.8637 -2.0294 -3.0599
  140OSM    C8S15295   7.243   4.440   7.134  0.3280 -0.2479 -0.3443
  140OSM    H8S15296   7.267   4.533   7.190 -0.8625 -0.0043 -0.2082
  140OSM    H8T15297   7.331   4.375   7.114  0.5220 -0.6854  1.6594
  140OSM    C9S15298   7.152   4.376   7.234  0.4407  0.4372 -0.4140
  140OSM    H9S15299   7.157   4.266   7.218  0.7196  0.4994 -0.7501
  140OSM    H9T15300   7.044   4.400   7.221  0.2726 -0.1298 -0.0989
  140OSM   C10S15301   7.194   4.392   7.371  0.1941  0.0341  0.1315
  140OSM   H10S15302   7.187   4.495   7.410 -1.5189  0.2584 -0.6500
  140OSM   H10T15303   7.303   4.373   7.377  0.4817  2.0063  2.7909
  140OSM   C11S15304   7.113   4.310   7.476 -0.0087  0.0445 -0.0600
  140OSM   H11S15305   7.132   4.202   7.459  2.3864  0.1949  1.2543
  140OSM   H11T15306   7.003   4.308   7.461 -0.5072 -1.7901  2.9480
  140OSM   C12S15307   7.145   4.370   7.611 -0.0558 -0.1957 -0.1830
  140OSM   H12S15308   7.068   4.439   7.652  0.6872  0.2922  0.3882
  140OSM   H12T15309   7.244   4.419   7.606  0.2807 -0.5925  1.9056
  140OSM   C13S15310   7.159   4.263   7.721 -0.0779  0.4439 -0.6861
  140OSM   H13S15311   7.199   4.305   7.815  0.2329 -0.6113 -0.3245
  140OSM   H13T15312   7.235   4.192   7.680  0.4426  0.0774  0.8518
  140OSM   C14S15313   7.028   4.174   7.736  0.3552  0.1904  0.0214
  140OSM   H14S15314   6.997   4.142   7.635 -0.5521  1.5472 -0.1553
  140OSM   H14T15315   6.943   4.228   7.785  0.1391  0.4225 -0.6013
  140OSM   C15S15316   7.047   4.046   7.822 -0.6355  0.8637 -0.1509
  140OSM   H15S15317   7.141   4.001   7.783 -0.1433  1.9996 -0.3162
  140OSM   H15T15318   6.967   3.975   7.794  0.7336 -1.0921  0.6835
  140OSM   C16S15319   7.032   4.063   7.977 -0.1545 -0.5829 -0.2804
  140OSM   H16S15320   6.928   4.095   7.997 -0.0799 -0.5641  0.0932
  140OSM   H16T15321   7.102   4.146   7.999  0.4799 -0.6897 -1.7618
  140OSM   C17S15322   7.075   3.951   8.066 -1.3116  0.4741 -0.3784
  140OSM   H17S15323   7.176   3.907   8.054 -1.8170 -0.3942 -1.7447
  140OSM   H17T15324   6.995   3.874   8.059 -0.3458 -0.5377 -0.5554
  140OSM   C18S15325   7.060   3.986   8.213 -0.5941 -0.4104 -0.9234
  140OSM   H18S15326   7.138   4.063   8.233 -1.5993  0.2204  0.7412
  140OSM   H18T15327   7.081   3.890   8.266  1.8849  0.6415  0.1624
  140OSM   H18U15328   6.957   4.023   8.230 -0.3294 -1.0994  3.1578
  140OSM    C1F15329   6.810   4.771   6.599 -0.4507 -0.8258  0.0292
  140OSM     OF15330   6.708   4.722   6.544  0.0803  0.1625  0.2157
  140OSM    C2F15331   6.818   4.910   6.653  0.0964  0.0819 -0.7947
  140OSM    H2F15332   6.760   4.965   6.575  3.7771 -1.4316 -5.0378
  140OSM    H2G15333   6.920   4.953   6.647  0.6315 -0.5214  2.3536
  140OSM    C3F15334   6.751   4.930   6.790 -0.4860  0.1307 -0.2102
  140OSM    H3F15335   6.640   4.919   6.781 -0.6874  2.0551 -0.4222
  140OSM    H3G15336   6.758   5.038   6.811 -0.4766  0.5679 -2.2647
  140OSM    C4F15337   6.826   4.855   6.902 -0.7613 -0.6026  0.5658
  140OSM    H4F15338   6.933   4.873   6.876 -1.0832 -1.0074 -1.1950
  140OSM    H4G15339   6.815   4.744   6.907 -1.0926 -0.5689  0.5684
  140OSM    C5F15340   6.796   4.916   7.037  0.1738 -0.3308 -0.0281
  140OSM    H5F15341   6.692   4.887   7.062  0.8330 -1.1173  2.0740
  140OSM    H5G15342   6.809   5.026   7.033  2.9101 -0.5682  0.3185
  140OSM    C6F15343   6.885   4.871   7.154 -0.2677  0.4480  0.7329
  140OSM    H6F15344   6.981   4.925   7.138 -0.3183  0.4034  0.2456
  140OSM    H6G15345   6.906   4.762   7.157 -1.2818  0.2274  0.1932
  140OSM    C7F15346   6.826   4.902   7.293  0.0964 -0.5549  0.4155
  140OSM    H7F15347   6.727   4.858   7.314 -0.1608 -0.1009  0.1557
  140OSM    H7G15348   6.799   5.010   7.298  0.2623 -0.5427  3.9793
  140OSM    C8F15349   6.916   4.848   7.409  0.9177 -0.2537  0.6649
  140OSM    H8F15350   7.013   4.903   7.406 -0.6438  2.7668  1.4960
  140OSM    H8G15351   6.943   4.742   7.389  0.4923 -0.9590  3.4061
  140OSM    C9F15352   6.860   4.877   7.546 -0.4453 -0.4277  0.0747
  140OSM    H9F15353   6.841   4.986   7.552  2.5025  0.2479 -0.9619
  140OSM   C10F15354   6.839   4.788   7.651 -0.4721 -0.1251 -0.5311
  140OSM   H10F15355   6.808   4.830   7.748  0.4411 -0.2497 -0.1808
  140OSM   C11F15356   6.873   4.640   7.657 -0.7636  0.5173  0.5804
  140OSM   H11F15357   6.957   4.621   7.727  1.3101  0.3053 -1.8421
  140OSM   H11G15358   6.904   4.606   7.556 -0.8334  1.0505  0.3720
  140OSM   C12F15359   6.765   4.544   7.714 -1.0870  0.3461 -0.3558
  140OSM   H12F15360   6.802   4.443   7.684  2.3192  1.4243 -0.2750
  140OSM   H12G15361   6.669   4.550   7.660 -1.0108 -1.7692 -0.8238
  140OSM   C13F15362   6.747   4.549   7.867  0.2681 -0.5529  0.2672
  140OSM   H13F15363   6.655   4.604   7.897 -0.3596 -0.5614 -1.5306
  140OSM   H13G15364   6.837   4.596   7.912 -0.9527  0.8220  1.3575
  140OSM   C14F15365   6.737   4.415   7.942  0.1525 -0.0528 -0.3127
  140OSM   H14F15366   6.819   4.348   7.911 -1.3476 -2.5007  0.7278
  140OSM   H14G15367   6.647   4.360   7.907  1.6959 -3.0531  0.1758
  140OSM   C15F15368   6.740   4.437   8.093 -0.1341  0.6676 -0.1520
  140OSM   H15F15369   6.656   4.507   8.116 -0.2539 -0.4474  3.5783
  140OSM   H15G15370   6.836   4.470   8.140 -0.1052  3.2615 -1.8431
  140OSM   C16F15371   6.704   4.309   8.166 -0.0845  0.2773 -0.4088
  140OSM   H16F15372   6.771   4.223   8.141 -1.9810 -1.5928  0.5896
  140OSM   H16G15373   6.601   4.272   8.145 -0.4959  2.1415 -1.8763
  140OSM   C17F15374   6.712   4.326   8.322 -0.6608 -0.3905  0.0873
  140OSM   H17F15375   6.629   4.276   8.377 -2.0075  1.3545 -0.2806
  140OSM   H17G15376   6.683   4.429   8.353 -1.6833 -1.2086  2.0115
  140OSM   C18F15377   6.845   4.285   8.394  0.6204 -0.7692  0.6106
  140OSM   H18F15378   6.876   4.187   8.350 -0.7346 -0.7153 -0.5186
  140OSM   H18G15379   6.824   4.268   8.501 -2.5181 -0.5182  0.1141
  140OSM   H18H15380   6.927   4.359   8.378  1.1620 -1.2118  1.2753
  141OSM      N15381   6.185   0.095   6.031  0.2557 -0.1623  0.6978
  141OSM    C1515382   6.315   0.037   6.000  0.2362  0.0423 -0.2947
  141OSM   H15A15383   6.301  -0.026   5.913 -0.0605 -2.7832  1.6708
  141OSM   H15B15384   6.361  -0.014   6.083 -2.8742  0.0641  1.5729
  141OSM   H15C15385   6.386   0.116   5.977 -0.3280  1.1376  1.5026
  141OSM    C1415386   6.200   0.207   6.128  0.0626 -0.9606 -0.2691
  141OSM   H14A15387   6.271   0.282   6.097  0.6129 -1.3062  0.1302
  141OSM   H14B15388   6.250   0.163   6.213 -2.2249 -0.2509  1.5549
  141OSM   H14C15389   6.102   0.234   6.163  0.2242 -1.2347  0.4152
  141OSM    C1315390   6.127   0.162   5.906  0.5313  0.1261 -0.5531
  141OSM   H13A15391   6.215   0.200   5.856  1.5648 -1.1557  0.2067
  141OSM   H13B15392   6.056   0.238   5.935  0.0981 -0.6408  0.4608
  141OSM   H13C15393   6.085   0.097   5.831 -1.0855  1.0969 -0.5200
  141OSM    C1215394   6.086   0.000   6.107 -0.3081 -0.1795 -0.5880
  141OSM   H12A15395   5.993   0.055   6.110  0.3371  0.8999  0.6630
  141OSM   H12B15396   6.122  -0.016   6.207 -3.0931 -0.3472  0.4917
  141OSM    C1115397   6.054  -0.136   6.038 -0.4134  0.1170 -0.3427
  141OSM   H11A15398   6.027  -0.121   5.932 -0.7071  0.3243 -0.2409
  141OSM   H11B15399   5.960  -0.178   6.081  0.8183 -1.7683  0.6347
  141OSM      P15400   6.199  -0.292   6.191  0.3136 -0.6051  0.0065
  141OSM    O1315401   6.168  -0.437   6.170  0.0024 -0.4426 -0.1223
  141OSM    O1415402   6.333  -0.255   6.237  0.5463  0.1893  0.0835
  141OSM    O1115403   6.090  -0.227   6.290  0.2301  0.4996 -0.4674
  141OSM    O1215404   6.165  -0.223   6.047  0.7258  0.3286 -0.2068
  141OSM    C1S15405   6.068  -0.293   6.423  0.2449 -0.0228  0.0892
  141OSM    H1S15406   6.156  -0.270   6.486 -0.4541  0.0708  1.0645
  141OSM    H1T15407   6.063  -0.404   6.417 -0.5058  0.0425 -0.8865
  141OSM     NF15408   5.937  -0.264   6.624  0.0896  0.2784 -0.1910
  141OSM    HNF15409   5.869  -0.327   6.660 -1.7854  1.1818 -1.9440
  141OSM    C2S15410   5.937  -0.236   6.484 -0.0207  0.4301  0.3330
  141OSM    H2S15411   5.948  -0.126   6.475  1.8240  0.1603 -1.6831
  141OSM    C3S15412   5.814  -0.291   6.414 -0.2222  0.1574  0.4141
  141OSM    H3S15413   5.833  -0.401   6.417  2.8033  0.5834 -0.0756
  141OSM     O315414   5.817  -0.270   6.278  0.1178 -0.0416  0.7021
  141OSM    HO315415   5.910  -0.249   6.262 -0.1267 -0.1472 -1.0055
  141OSM    C4S15416   5.684  -0.246   6.480  0.1587 -0.1020  0.2066
  141OSM    H4S15417   5.668  -0.138   6.473  1.5537  0.1128 -0.0002
  141OSM    C5S15418   5.595  -0.333   6.536  0.2432 -0.4523 -0.1852
  141OSM    H5S15419   5.622  -0.440   6.527 -0.3337 -0.6640  0.5249
  141OSM    C6S15420   5.468  -0.288   6.607  0.3730  0.0919  0.0769
  141OSM    H6S15421   5.385  -0.334   6.549  1.9820 -3.1291  0.0993
  141OSM    H6T15422   5.464  -0.178   6.588  3.3412  0.3764  0.5769
  141OSM    C7S15423   5.439  -0.319   6.753 -0.3145  0.1484 -0.0986
  141OSM    H7S15424   5.420  -0.427   6.772  1.8862 -0.4141 -0.7414
  141OSM    H7T15425   5.349  -0.257   6.774 -0.0052  0.6821 -0.3222
  141OSM    C8S15426   5.552  -0.272   6.858  0.4305  0.1935  0.1088
  141OSM    H8S15427   5.555  -0.164   6.831  0.2875  0.2624  0.3645
  141OSM    H8T15428   5.650  -0.322   6.842  1.1104  1.6197 -0.4403
  141OSM    C9S15429   5.508  -0.296   7.002  0.4643 -0.7043 -0.0258
  141OSM    H9S15430   5.540  -0.395   7.041 -4.1832 -2.1442  0.8683
  141OSM    H9T15431   5.397  -0.291   7.008  0.5384 -0.4883  1.4137
  141OSM   C10S15432   5.579  -0.193   7.099  0.7903 -0.4040  0.5793
  141OSM   H10S15433   5.556  -0.091   7.061  1.1001 -0.5384  0.0188
  141OSM   H10T15434   5.690  -0.199   7.092  0.9398  0.9804  1.3502
  141OSM   C11S15435   5.538  -0.236   7.235  0.0656  0.2232 -1.3304
  141OSM   H11S15436   5.557  -0.344   7.249 -0.7660  0.0519 -1.4530
  141OSM   H11T15437   5.427  -0.231   7.243  0.1316 -1.0590  1.3834
  141OSM   C12S15438   5.584  -0.152   7.348 -0.8441  0.0439 -0.1398
  141OSM   H12S15439   5.544  -0.050   7.330 -0.1164  0.4380  0.4395
  141OSM   H12T15440   5.695  -0.149   7.349 -0.8088 -0.8152 -0.0621
  141OSM   C13S15441   5.529  -0.209   7.485 -0.5028 -0.0287  0.3912
  141OSM   H13S15442   5.568  -0.314   7.488  2.7322  1.0791  1.8394
  141OSM   H13T15443   5.419  -0.216   7.471 -0.4511 -0.9379  0.3456
  141OSM   C14S15444   5.565  -0.131   7.606 -0.1498  0.0681 -0.0046
  141OSM   H14S15445   5.495  -0.046   7.615 -0.0582  0.0640  0.8519
  141OSM   H14T15446   5.668  -0.088   7.600  0.3063 -0.9808  0.0732
  141OSM   C15S15447   5.544  -0.215   7.731  0.0765  1.4166 -0.7309
  141OSM   H15S15448   5.612  -0.303   7.725 -0.1352  1.1545  0.4477
  141OSM   H15T15449   5.438  -0.248   7.727  0.0953  0.7270  2.3220
  141OSM   C16S15450   5.561  -0.143   7.870  0.6627  0.3083 -0.6746
  141OSM   H16S15451   5.506  -0.047   7.864 -0.8328 -0.5350 -0.8767
  141OSM   H16T15452   5.670  -0.124   7.881  0.9227 -0.5098 -1.6497
  141OSM   C17S15453   5.515  -0.220   8.001 -0.3883  0.4151  0.0089
  141OSM   H17S15454   5.413  -0.256   7.978 -0.1527  0.8936 -1.9273
  141OSM   H17T15455   5.507  -0.151   8.087  0.7284  0.2046  0.3000
  141OSM   C18S15456   5.612  -0.340   8.051 -0.2892 -0.2026 -0.5353
  141OSM   H18S15457   5.629  -0.411   7.967 -0.2390  0.5044 -1.1462
  141OSM   H18T15458   5.569  -0.391   8.139 -0.6794  1.4247  0.2675
  141OSM   H18U15459   5.714  -0.307   8.079 -0.8496  1.0666  0.1222
  141OSM    C1F15460   6.030  -0.200   6.702 -0.4940  0.5754 -0.4877
  141OSM     OF15461   6.100  -0.103   6.665  0.3515 -0.1822 -0.4547
  141OSM    C2F15462   6.054  -0.248   6.841  0.0707  0.2600 -0.4136
  141OSM    H2F15463   6.121  -0.337   6.835  0.7054  0.7818 -1.3433
  141OSM    H2G15464   5.961  -0.279   6.892 -0.8081  1.0522 -1.4844
  141OSM    C3F15465   6.122  -0.150   6.934 -0.2927 -0.2030  0.1400
  141OSM    H3F15466   6.060  -0.058   6.942 -1.9155 -1.3926  3.2583
  141OSM    H3G15467   6.222  -0.116   6.899 -0.6097  1.0605  0.4306
  141OSM    C4F15468   6.138  -0.201   7.083  0.1949 -0.0925  0.4573
  141OSM    H4F15469   6.216  -0.280   7.089 -1.2643 -1.5830  0.3799
  141OSM    H4G15470   6.045  -0.243   7.126 -1.5980  1.0858 -2.0023
  141OSM    C5F15471   6.192  -0.083   7.162  0.2876  0.0898  0.3141
  141OSM    H5F15472   6.126   0.007   7.160 -0.3830 -0.4027 -0.6385
  141OSM    H5G15473   6.298  -0.061   7.137  0.7595 -0.0950  2.0530
  141OSM    C6F15474   6.183  -0.116   7.310 -0.4068  1.2030  0.3057
  141OSM    H6F15475   6.252  -0.045   7.360  0.5060  0.8116 -0.3648
  141OSM    H6G15476   6.221  -0.218   7.333 -0.3108  0.9791 -0.7851
  141OSM    C7F15477   6.042  -0.094   7.361 -0.0073 -0.3342 -1.0053
  141OSM    H7F15478   5.968  -0.132   7.286 -0.6215  1.9504 -1.6595
  141OSM    H7G15479   6.021   0.015   7.370 -0.0093 -0.4797  1.2926
  141OSM    C8F15480   6.004  -0.171   7.492 -0.0151 -0.1769  0.9428
  141OSM    H8F15481   6.030  -0.277   7.468 -0.6324  0.2375 -2.0085
  141OSM    H8G15482   5.899  -0.171   7.526  0.3052 -4.0604  2.5291
  141OSM    C9F15483   6.095  -0.129   7.601 -0.4617  0.4838  0.0451
  141OSM    H9F15484   6.200  -0.158   7.587 -1.1460 -1.8721 -0.5588
  141OSM   C10F15485   6.063  -0.039   7.696  0.0370  0.6310  0.5306
  141OSM   H10F15486   6.143  -0.009   7.766  0.7863  0.3752 -0.1958
  141OSM   C11F15487   5.930   0.026   7.717 -0.0844 -0.1522  0.7309
  141OSM   H11F15488   5.858  -0.057   7.737  0.2836 -0.5388  0.4673
  141OSM   H11G15489   5.890   0.074   7.625 -1.6116 -2.4360  0.1178
  141OSM   C12F15490   5.930   0.134   7.827  0.0469  0.4317  0.1130
  141OSM   H12F15491   5.825   0.167   7.812 -0.0320 -0.4701 -1.5479
  141OSM   H12G15492   5.999   0.215   7.796  0.1281  0.3358  0.0427
  141OSM   C13F15493   5.951   0.080   7.979  0.0430  0.1087  0.1414
  141OSM   H13F15494   6.060   0.071   8.003  0.6065 -2.1392 -2.7182
  141OSM   H13G15495   5.901  -0.019   7.977 -0.5794  0.4298 -1.0424
  141OSM   C14F15496   5.869   0.166   8.081 -0.4869  0.5442 -0.6279
  141OSM   H14F15497   5.775   0.192   8.029 -0.7669  3.0390  0.9440
  141OSM   H14G15498   5.923   0.263   8.092  0.0114  0.1107  1.0713
  141OSM   C15F15499   5.849   0.106   8.217 -0.2847 -0.1860 -0.0721
  141OSM   H15F15500   5.956   0.088   8.241  0.4639  2.4663 -1.0423
  141OSM   H15G15501   5.785   0.016   8.210 -0.1489 -0.5159  2.0511
  141OSM   C16F15502   5.796   0.201   8.324  0.7213  0.1718  0.4837
  141OSM   H16F15503   5.700   0.241   8.283  0.1387 -1.0371  0.6385
  141OSM   H16G15504   5.867   0.286   8.337  1.1508 -0.4007  2.1230
  141OSM   C17F15505   5.772   0.136   8.462  0.1379  0.5906 -0.2128
  141OSM   H17F15506   5.748   0.208   8.543 -1.4056 -1.8222  1.6033
  141OSM   H17G15507   5.862   0.084   8.501 -0.1187 -2.0019 -2.7687
  141OSM   C18F15508   5.675   0.022   8.463 -0.3988 -0.5889  0.3405
  141OSM   H18F15509   5.578   0.058   8.423 -0.1728 -0.5575 -0.1752
  141OSM   H18G15510   5.651  -0.017   8.564 -0.9105  0.0311  0.4689
  141OSM   H18H15511   5.709  -0.066   8.405  0.2395  0.1825 -0.4777
  142OSM      N15512   0.460   1.213   5.779 -0.1512 -0.5196  0.2517
  142OSM    C1515513   0.486   1.242   5.635  0.2160  0.3889  0.2100
  142OSM   H15A15514   0.478   1.145   5.589 -2.9659 -0.3117  1.9835
  142OSM   H15B15515   0.581   1.292   5.619  0.3790  0.2953  0.8472
  142OSM   H15C15516   0.405   1.293   5.587  1.1378  0.2336 -1.5776
  142OSM    C1415517   0.330   1.157   5.802 -0.0286 -0.3863  0.2558
  142OSM   H14A15518   0.329   1.053   5.773  1.4715 -0.9882  2.1083
  142OSM   H14B15519   0.245   1.200   5.752 -0.4652 -0.7411  0.6768
  142OSM   H14C15520   0.300   1.156   5.906 -3.1821  0.7900 -0.5478
  142OSM    C1315521   0.565   1.107   5.809 -0.2778  0.0082 -0.6436
  142OSM   H13A15522   0.666   1.141   5.791  0.3445 -0.4062  1.7594
  142OSM   H13B15523   0.560   1.013   5.756 -0.0862 -2.1793  2.8672
  142OSM   H13C15524   0.542   1.091   5.913  0.4221 -0.2693 -0.5276
  142OSM    C1215525   0.486   1.344   5.866 -0.1665  0.1509 -0.2093
  142OSM   H12A15526   0.407   1.410   5.831  1.3755  2.0872 -0.2457
  142OSM   H12B15527   0.585   1.371   5.833 -0.5960  1.1257 -0.7613
  142OSM    C1115528   0.490   1.331   6.014  0.0286  0.5450 -0.3856
  142OSM   H11A15529   0.400   1.282   6.056  0.0188 -0.9928 -2.0623
  142OSM   H11B15530   0.496   1.436   6.051  1.6292  0.2399  0.2705
  142OSM      P15531   0.722   1.303   6.131 -0.1524 -0.0667  0.5907
  142OSM    O1315532   0.795   1.192   6.192 -0.5098 -0.3554 -0.0166
  142OSM    O1415533   0.790   1.400   6.043  0.0860 -0.0816 -0.0447
  142OSM    O1115534   0.638   1.386   6.240 -0.3618 -0.1557  0.1110
  142OSM    O1215535   0.595   1.248   6.061  0.2137  0.0944 -0.2349
  142OSM    C1S15536   0.611   1.317   6.364 -1.0708  0.2841 -0.8904
  142OSM    H1S15537   0.707   1.282   6.408 -1.2421  1.4692  0.4845
  142OSM    H1T15538   0.542   1.230   6.354 -1.2539  0.4461 -1.0319
  142OSM     NF15539   0.533   1.329   6.593 -0.2498 -0.3299  0.7118
  142OSM    HNF15540   0.442   1.308   6.629  0.1019 -2.3546  0.5195
  142OSM    C2S15541   0.541   1.400   6.471 -0.4629  0.2936 -0.7287
  142OSM    H2S15542   0.600   1.492   6.491  1.0904 -0.6305 -0.8808
  142OSM    C3S15543   0.400   1.450   6.407  0.4981  0.1158 -0.3757
  142OSM    H3S15544   0.341   1.362   6.374 -1.6342  0.1882  2.7068
  142OSM     O315545   0.397   1.529   6.286 -0.5282 -0.6164 -0.3392
  142OSM    HO315546   0.488   1.515   6.258 -0.4795 -2.5777  0.6732
  142OSM    C4S15547   0.307   1.517   6.502  0.5964 -0.4624 -0.5023
  142OSM    H4S15548   0.339   1.616   6.537 -1.7369  0.3249 -0.4662
  142OSM    C5S15549   0.181   1.494   6.539 -0.6138  0.7587  0.8562
  142OSM    H5S15550   0.131   1.405   6.499 -1.8247  0.7366  2.3339
  142OSM    C6S15551   0.097   1.577   6.630 -0.1120  0.3134  0.2713
  142OSM    H6S15552   0.009   1.515   6.659 -1.2735  2.1034  0.6744
  142OSM    H6T15553   0.071   1.663   6.565  1.8676  1.0507  0.3849
  142OSM    C7S15554   0.169   1.627   6.760 -0.0536  0.4687 -0.2302
  142OSM    H7S15555   0.103   1.706   6.802  0.6945  0.3550  1.2227
  142OSM    H7T15556   0.269   1.673   6.741  0.3898 -0.9542 -1.6140
  142OSM    C8S15557   0.190   1.518   6.863 -0.0555 -0.3537 -1.0082
  142OSM    H8S15558   0.257   1.448   6.809  1.6598  1.7695 -1.8227
  142OSM    H8T15559   0.092   1.468   6.875  1.2703 -2.7436  0.6348
  142OSM    C9S15560   0.262   1.581   6.985  0.1200  0.4087  0.2088
  142OSM    H9S15561   0.195   1.662   7.020 -2.5006 -1.3423 -0.5443
  142OSM    H9T15562   0.362   1.620   6.954  0.0823  0.3522  0.0203
  142OSM   C10S15563   0.285   1.481   7.096  0.6403  0.4295 -0.1443
  142OSM   H10S15564   0.353   1.398   7.067  1.9253  0.8338  1.5065
  142OSM   H10T15565   0.191   1.429   7.125 -0.7575  2.0307 -1.6393
  142OSM   C11S15566   0.326   1.548   7.220 -0.9774  0.7434 -0.6495
  142OSM   H11S15567   0.275   1.645   7.242  1.3781  2.1754 -1.1761
  142OSM   H11T15568   0.434   1.575   7.217 -0.9371  0.8760  0.9051
  142OSM   C12S15569   0.297   1.452   7.343  0.2594 -0.0852  0.1673
  142OSM   H12S15570   0.323   1.348   7.312 -0.9564 -1.1209  2.3760
  142OSM   H12T15571   0.191   1.448   7.374  0.4122 -0.5595  0.6304
  142OSM   C13S15572   0.385   1.486   7.467  0.1019 -1.0123 -0.4197
  142OSM   H13S15573   0.342   1.573   7.521 -1.6903 -0.9464 -1.8530
  142OSM   H13T15574   0.491   1.511   7.446 -1.0408  2.8744 -2.6011
  142OSM   C14S15575   0.392   1.368   7.561 -0.1211  0.8301  0.6612
  142OSM   H14S15576   0.464   1.295   7.520 -0.7746  0.8631 -0.5848
  142OSM   H14T15577   0.292   1.319   7.565  0.9814 -1.9163 -1.7005
  142OSM   C15S15578   0.435   1.403   7.700  0.0906  0.1087  0.2208
  142OSM   H15S15579   0.434   1.320   7.774 -0.5960  0.7863  0.9971
  142OSM   H15T15580   0.370   1.483   7.742 -0.4014 -0.6348  0.9111
  142OSM   C16S15581   0.588   1.440   7.712  0.2270 -0.5217  0.4425
  142OSM   H16S15582   0.614   1.534   7.657 -3.4871  1.0776  1.1390
  142OSM   H16T15583   0.642   1.355   7.666  2.1001  0.6401  0.3772
  142OSM   C17S15584   0.642   1.458   7.858  0.5153 -0.3439 -0.1915
  142OSM   H17S15585   0.599   1.374   7.918  1.1844 -1.2351 -0.9335
  142OSM   H17T15586   0.587   1.549   7.891  1.1419 -0.6244  1.7414
  142OSM   C18S15587   0.790   1.467   7.883 -0.1584 -0.3656  0.5605
  142OSM   H18S15588   0.822   1.501   7.984 -1.2413 -0.3145  0.8986
  142OSM   H18T15589   0.838   1.541   7.816  0.9423  0.8656  2.6037
  142OSM   H18U15590   0.848   1.373   7.873  0.2626 -0.1476  0.8981
  142OSM    C1F15591   0.640   1.306   6.677  0.8074 -0.0951 -0.2908
  142OSM     OF15592   0.755   1.347   6.651  0.2596  0.4288 -0.2955
  142OSM    C2F15593   0.602   1.250   6.807 -0.7196  0.1443 -0.2929
  142OSM    H2F15594   0.628   1.142   6.809  3.7909  1.0341 -0.4061
  142OSM    H2G15595   0.492   1.264   6.814 -0.3618  4.0636 -0.4146
  142OSM    C3F15596   0.680   1.320   6.918  0.7960 -0.4510 -0.0024
  142OSM    H3F15597   0.677   1.429   6.894  1.0333 -0.1661  1.1952
  142OSM    H3G15598   0.785   1.284   6.915  1.1294  0.4970 -0.1928
  142OSM    C4F15599   0.624   1.306   7.059  0.3128 -0.5485 -0.7853
  142OSM    H4F15600   0.541   1.233   7.052 -0.9310  0.6173  0.8128
  142OSM    H4G15601   0.578   1.398   7.101  0.3111 -0.3453 -1.2274
  142OSM    C5F15602   0.728   1.258   7.170 -0.4137 -0.1428  0.1767
  142OSM    H5F15603   0.765   1.350   7.220  0.5003 -1.4347  2.0068
  142OSM    H5G15604   0.808   1.197   7.123  0.2792 -0.9062  2.2558
  142OSM    C6F15605   0.664   1.166   7.283 -0.5343  0.5228 -0.1963
  142OSM    H6F15606   0.620   1.076   7.234 -0.5752  1.7845 -2.6270
  142OSM    H6G15607   0.582   1.222   7.332 -1.1226 -1.2807  0.9824
  142OSM    C7F15608   0.775   1.139   7.382  0.1634  1.0216 -0.5217
  142OSM    H7F15609   0.825   1.233   7.414  0.3012  0.4303  1.1102
  142OSM    H7G15610   0.850   1.065   7.346 -1.2481 -0.4754 -0.5172
  142OSM    C8F15611   0.707   1.087   7.512 -0.2512 -0.0436  0.0800
  142OSM    H8F15612   0.661   0.988   7.491 -2.2179  1.0844 -1.3293
  142OSM    H8G15613   0.622   1.152   7.542 -1.3840 -0.1392 -2.6077
  142OSM    C9F15614   0.811   1.086   7.625 -0.7261  0.3557  0.3065
  142OSM    H9F15615   0.854   1.186   7.638 -1.2261  0.5579  0.4003
  142OSM   C10F15616   0.849   0.988   7.707  0.3483  0.3264  0.2073
  142OSM   H10F15617   0.918   1.008   7.789 -0.3172 -1.3210  1.2181
  142OSM   C11F15618   0.797   0.845   7.705 -0.2587 -0.6957  0.1955
  142OSM   H11F15619   0.877   0.768   7.710 -1.2396 -1.6489  2.1241
  142OSM   H11G15620   0.752   0.822   7.606 -0.3192  1.2513 -0.2864
  142OSM   C12F15621   0.695   0.833   7.808  0.4109  0.1346 -0.1042
  142OSM   H12F15622   0.641   0.736   7.806  1.5017 -0.6566  3.3848
  142OSM   H12G15623   0.613   0.906   7.792  1.4792  1.3074 -0.3660
  142OSM   C13F15624   0.750   0.845   7.952  0.2252  0.6799 -0.6359
  142OSM   H13F15625   0.792   0.946   7.971  1.0909  0.3670 -0.8416
  142OSM   H13G15626   0.834   0.776   7.971 -1.6895 -1.5749  0.1556
  142OSM   C14F15627   0.630   0.830   8.047 -0.2720 -0.1047 -0.5238
  142OSM   H14F15628   0.611   0.721   8.059 -1.3937  0.1720  0.3753
  142OSM   H14G15629   0.547   0.889   8.005 -0.7524  0.3038  0.9337
  142OSM   C15F15630   0.661   0.889   8.185  0.5073  0.2206 -0.0322
  142OSM   H15F15631   0.758   0.855   8.228  2.0409  1.9014 -1.9463
  142OSM   H15G15632   0.583   0.854   8.256  1.0342 -1.7271 -0.3403
  142OSM   C16F15633   0.654   1.048   8.177 -0.2380 -0.1521 -0.9873
  142OSM   H16F15634   0.555   1.081   8.138 -0.0556 -0.4788 -1.7405
  142OSM   H16G15635   0.739   1.087   8.118  2.9095 -2.3058  1.7713
  142OSM   C17F15636   0.672   1.114   8.313  0.5915 -0.0914 -0.3969
  142OSM   H17F15637   0.764   1.074   8.359 -0.2482  0.5619  1.9654
  142OSM   H17G15638   0.593   1.088   8.386  1.4894  1.0642  1.0554
  142OSM   C18F15639   0.687   1.268   8.299  0.3994 -0.4050 -0.4710
  142OSM   H18F15640   0.761   1.288   8.219 -0.6760 -2.4496 -2.0601
  142OSM   H18G15641   0.714   1.306   8.400  1.0146 -1.9937 -0.0092
  142OSM   H18H15642   0.585   1.298   8.266 -0.9303 -1.2257  2.5157
  143OSM      N15643   0.443   3.495   5.678  0.7781 -0.3786 -0.1845
  143OSM    C1515644   0.401   3.633   5.660  0.4666 -0.3878  0.3428
  143OSM   H15A15645   0.443   3.696   5.736 -0.4538 -0.1641  0.6677
  143OSM   H15B15646   0.293   3.636   5.662  0.4320 -1.5567  0.9695
  143OSM   H15C15647   0.425   3.676   5.564 -0.8780 -1.1840 -0.3888
  143OSM    C1415648   0.382   3.405   5.574  0.3458 -0.5622 -0.3615
  143OSM   H14A15649   0.414   3.303   5.586 -1.3706 -1.3493 -1.8881
  143OSM   H14B15650   0.416   3.434   5.476  1.8120 -0.0785  0.2642
  143OSM   H14C15651   0.274   3.411   5.567  0.3953 -0.9163 -1.7004
  143OSM    C1315652   0.596   3.486   5.663  0.0606  0.8274  0.0177
  143OSM   H13A15653   0.641   3.393   5.693  0.4177  1.8649  3.1332
  143OSM   H13B15654   0.657   3.555   5.720  0.9502 -0.3909  0.5901
  143OSM   H13C15655   0.627   3.514   5.564  2.4843  2.0481  1.0292
  143OSM    C1215656   0.404   3.448   5.811 -0.5379 -0.0728 -0.5778
  143OSM   H12A15657   0.453   3.507   5.887 -1.5640 -1.2266  1.0443
  143OSM   H12B15658   0.438   3.346   5.819 -1.5509 -0.3046  1.2441
  143OSM    C1115659   0.256   3.441   5.857 -0.2423  0.1626  0.9591
  143OSM   H11A15660   0.253   3.382   5.951  0.2579 -0.2307  0.7327
  143OSM   H11B15661   0.196   3.371   5.797  1.5401 -3.6054  3.2004
  143OSM      P15662   0.226   3.663   6.003 -0.4007  0.2649  0.4639
  143OSM    O1315663   0.328   3.754   5.953 -0.1503  0.3111  0.6307
  143OSM    O1415664   0.103   3.724   6.054  0.2538  0.3934  0.7093
  143OSM    O1115665   0.285   3.578   6.120 -0.5369  0.2361  0.4293
  143OSM    O1215666   0.194   3.567   5.885 -0.1864  0.1320  0.0094
  143OSM    C1S15667   0.204   3.522   6.226 -0.4604  0.0391 -0.3441
  143OSM    H1S15668   0.131   3.447   6.188  1.2100 -1.2440 -1.2003
  143OSM    H1T15669   0.135   3.599   6.265  0.2677  1.4444 -1.7216
  143OSM     NF15670   0.206   3.431   6.451 -0.1420 -0.1593 -1.0188
  143OSM    HNF15671   0.194   3.473   6.541  0.6726  0.2926 -1.1160
  143OSM    C2S15672   0.296   3.481   6.345 -0.3178 -0.0048 -0.4399
  143OSM    H2S15673   0.375   3.412   6.311  1.5984  0.3428  2.8837
  143OSM    C3S15674   0.372   3.607   6.395 -0.0275  0.6589  0.8156
  143OSM    H3S15675   0.294   3.681   6.424  0.4125  1.2638  0.4664
  143OSM     O315676   0.451   3.681   6.303  0.3247 -0.5087  0.3497
  143OSM    HO315677   0.436   3.644   6.216 -0.9090 -0.2042  0.4245
  143OSM    C4S15678   0.463   3.567   6.509  0.2521 -0.3535  0.2825
  143OSM    H4S15679   0.420   3.602   6.604 -0.8977 -1.2220  0.0917
  143OSM    C5S15680   0.566   3.480   6.518 -0.5056 -0.0072 -0.1595
  143OSM    H5S15681   0.583   3.409   6.436 -0.9324  0.5667 -0.7556
  143OSM    C6S15682   0.645   3.454   6.644 -0.0114  0.2770  0.2592
  143OSM    H6S15683   0.755   3.462   6.639 -0.0807  1.0137 -0.2557
  143OSM    H6T15684   0.618   3.350   6.672 -1.6183  0.6944  0.3767
  143OSM    C7S15685   0.601   3.519   6.778 -0.8558 -0.7631  0.1766
  143OSM    H7S15686   0.491   3.518   6.793 -0.6054 -0.9403  2.3946
  143OSM    H7T15687   0.629   3.626   6.783 -3.6553  0.0924 -0.6708
  143OSM    C8S15688   0.662   3.449   6.896  0.1641  0.4635 -0.1087
  143OSM    H8S15689   0.770   3.474   6.888  0.3074  0.4361  1.4563
  143OSM    H8T15690   0.646   3.339   6.883  3.7285  0.0184 -1.9673
  143OSM    C9S15691   0.605   3.506   7.023  0.1776 -0.0004  0.1415
  143OSM    H9S15692   0.495   3.493   7.028  0.2399 -1.4802 -1.3336
  143OSM    H9T15693   0.623   3.615   7.030  1.7356 -0.1909 -0.5559
  143OSM   C10S15694   0.651   3.433   7.146 -0.0830  0.4197  0.6890
  143OSM   H10S15695   0.761   3.420   7.137 -0.4265 -1.7497 -1.4019
  143OSM   H10T15696   0.608   3.331   7.155  0.3103  0.1720 -0.1760
  143OSM   C11S15697   0.617   3.509   7.274  0.5554  0.2777  0.4093
  143OSM   H11S15698   0.507   3.523   7.269  0.6921  1.4120  0.2657
  143OSM   H11T15699   0.669   3.607   7.270  2.2340 -0.5262 -4.2122
  143OSM   C12S15700   0.670   3.428   7.401 -0.4341 -0.1793  0.5421
  143OSM   H12S15701   0.779   3.406   7.400 -0.6241 -1.3982 -1.7745
  143OSM   H12T15702   0.624   3.326   7.396 -0.1978 -0.2954  0.7343
  143OSM   C13S15703   0.621   3.484   7.539  0.7716  0.1321  0.1919
  143OSM   H13S15704   0.510   3.490   7.540  0.8582  3.4323  1.4738
  143OSM   H13T15705   0.659   3.588   7.545  0.4749  0.5194 -2.9665
  143OSM   C14S15706   0.666   3.408   7.666  0.6104 -0.1703  0.4355
  143OSM   H14S15707   0.772   3.438   7.676  0.7122  1.1483 -3.2642
  143OSM   H14T15708   0.647   3.298   7.657 -0.2391  0.1339 -2.3689
  143OSM   C15S15709   0.588   3.438   7.788 -0.7036 -0.3641 -0.2890
  143OSM   H15S15710   0.487   3.394   7.780 -0.5775 -0.9511  1.0389
  143OSM   H15T15711   0.580   3.548   7.801  1.8451  0.0332 -1.4588
  143OSM   C16S15712   0.668   3.381   7.906  0.1258 -0.2286 -0.3792
  143OSM   H16S15713   0.770   3.424   7.894 -1.1868  2.9356 -1.3517
  143OSM   H16T15714   0.668   3.274   7.876  0.6749  0.1270 -1.7647
  143OSM   C17S15715   0.604   3.405   8.045 -0.4742 -0.1526 -0.0706
  143OSM   H17S15716   0.498   3.374   8.034 -0.7128  0.6320  0.0013
  143OSM   H17T15717   0.624   3.510   8.074  0.5979  0.1494 -1.7355
  143OSM   C18S15718   0.667   3.311   8.153 -0.4173  0.6766 -0.6969
  143OSM   H18S15719   0.772   3.339   8.174 -0.1927  1.5501 -2.7141
  143OSM   H18T15720   0.663   3.203   8.125  0.1227  0.5875 -0.4266
  143OSM   H18U15721   0.618   3.330   8.251  3.7809  0.7274  1.6117
  143OSM    C1F15722   0.138   3.317   6.438  0.1150  0.2379 -0.0918
  143OSM     OF15723   0.173   3.238   6.350  0.2057 -0.1776 -0.0465
  143OSM    C2F15724   0.016   3.283   6.519 -0.2271 -0.7460  0.1118
  143OSM    H2F15725  -0.054   3.244   6.442  0.0705 -1.5294  0.2276
  143OSM    H2G15726  -0.033   3.378   6.550  0.7466  1.1542 -3.5936
  143OSM    C3F15727   0.047   3.190   6.631 -0.1568 -0.3543 -0.0133
  143OSM    H3F15728   0.081   3.094   6.585 -1.3672 -0.6554 -0.3075
  143OSM    H3G15729  -0.047   3.156   6.679 -2.1833  0.1397 -3.3589
  143OSM    C4F15730   0.147   3.247   6.736  0.7506  0.0444 -0.7113
  143OSM    H4F15731   0.087   3.332   6.775 -0.2328 -0.8756 -0.1642
  143OSM    H4G15732   0.240   3.280   6.685  1.1821  0.0097  0.0412
  143OSM    C5F15733   0.172   3.142   6.839  0.5542 -0.2395 -0.1751
  143OSM    H5F15734   0.213   3.051   6.791 -0.0094  0.0304 -1.1894
  143OSM    H5G15735   0.075   3.116   6.887  0.8997 -1.7064 -0.1981
  143OSM    C6F15736   0.252   3.196   6.953  0.0514 -0.5658  0.4138
  143OSM    H6F15737   0.187   3.274   6.997 -0.2561  0.6009 -1.9553
  143OSM    H6G15738   0.349   3.241   6.922  1.4761 -2.9302  1.1976
  143OSM    C7F15739   0.283   3.095   7.063 -0.4035  0.7139 -0.4751
  143OSM    H7F15740   0.327   2.999   7.028 -0.4269  0.2865  0.6458
  143OSM    H7G15741   0.187   3.058   7.104 -0.4960  1.3816 -0.0836
  143OSM    C8F15742   0.379   3.147   7.173 -0.6711 -0.5034  0.0758
  143OSM    H8F15743   0.472   3.182   7.124 -0.7379  0.6941  0.7631
  143OSM    H8G15744   0.393   3.056   7.235 -2.7339 -0.0783  1.2657
  143OSM    C9F15745   0.320   3.263   7.250 -0.3214 -0.0544 -0.3789
  143OSM    H9F15746   0.321   3.352   7.187  1.4771 -0.3802 -0.8651
  143OSM   C10F15747   0.254   3.260   7.367  0.9281 -0.4078  0.2976
  143OSM   H10F15748   0.231   3.357   7.413 -1.9974 -0.7405 -0.2969
  143OSM   C11F15749   0.224   3.150   7.468  0.4363  0.5437  0.3632
  143OSM   H11F15750   0.224   3.048   7.424 -0.5266 -0.4565  2.5039
  143OSM   H11G15751   0.121   3.155   7.510 -0.1585  1.2323 -1.1051
  143OSM   C12F15752   0.333   3.152   7.581  0.4090  0.2278  0.7851
  143OSM   H12F15753   0.302   3.231   7.653 -2.6379  0.3794 -0.5423
  143OSM   H12G15754   0.432   3.167   7.531  0.3024 -0.5261  0.3299
  143OSM   C13F15755   0.346   3.020   7.659 -0.4504 -0.0926  0.6769
  143OSM   H13F15756   0.384   2.935   7.598  0.1888 -0.6352  1.7956
  143OSM   H13G15757   0.237   3.008   7.678 -0.4806 -1.1265 -0.0268
  143OSM   C14F15758   0.435   3.026   7.783  0.7136  0.0450 -0.3706
  143OSM   H14F15759   0.393   3.094   7.860 -0.0652 -0.8169 -0.0138
  143OSM   H14G15760   0.536   3.065   7.758  0.5652  2.0673  1.8234
  143OSM   C15F15761   0.456   2.891   7.854 -0.1455  0.1128 -0.2159
  143OSM   H15F15762   0.524   2.913   7.939 -0.7086  2.0254 -0.2360
  143OSM   H15G15763   0.522   2.834   7.785  0.6133 -1.9865  2.0748
  143OSM   C16F15764   0.327   2.815   7.909 -0.4890 -0.6133  1.5516
  143OSM   H16F15765   0.367   2.733   7.973 -0.2230 -1.2347  0.6092
  143OSM   H16G15766   0.275   2.772   7.821 -0.3152  2.1529 -0.0117
  143OSM   C17F15767   0.235   2.908   7.988  0.7655 -0.8683 -0.2675
  143OSM   H17F15768   0.179   2.973   7.917 -1.6909 -1.8853  0.6331
  143OSM   H17G15769   0.287   2.982   8.052 -0.0720  1.2238 -1.8456
  143OSM   C18F15770   0.127   2.838   8.066 -0.3642  0.1974 -0.2459
  143OSM   H18F15771   0.173   2.778   8.147  1.8119  0.2316 -1.4020
  143OSM   H18G15772   0.064   2.773   8.002 -0.2557 -0.6987  0.5246
  143OSM   H18H15773   0.057   2.911   8.113  0.0218  1.4833 -1.5811
  144OSM      N15774   5.517   3.352   6.011  0.0948 -0.9214 -0.6283
  144OSM    C1515775   5.557   3.285   6.143  0.4646  0.3462  0.0912
  144OSM   H15A15776   5.628   3.203   6.136 -1.7476 -2.0381  2.8542
  144OSM   H15B15777   5.472   3.240   6.194  0.2284 -0.4563 -0.9764
  144OSM   H15C15778   5.604   3.359   6.206  0.9595 -1.8696  2.5282
  144OSM    C1415779   5.635   3.397   5.931 -0.2888  0.2148  0.8776
  144OSM   H14A15780   5.682   3.312   5.886 -1.0551  0.1205  0.2329
  144OSM   H14B15781   5.711   3.453   5.983  1.2030 -2.3790  1.6730
  144OSM   H14C15782   5.606   3.459   5.848 -1.0531 -0.9687  0.2359
  144OSM    C1315783   5.431   3.252   5.936 -0.0331 -0.0007 -0.1744
  144OSM   H13A15784   5.327   3.244   5.966 -0.7343  1.9613 -1.8429
  144OSM   H13B15785   5.476   3.155   5.953  0.2747  0.4078  1.5602
  144OSM   H13C15786   5.436   3.272   5.830 -2.0264  2.2066  0.0718
  144OSM    C1215787   5.423   3.471   6.044 -0.3422 -0.2710  0.3256
  144OSM   H12A15788   5.396   3.519   5.951 -1.9843  2.0595  1.8875
  144OSM   H12B15789   5.482   3.540   6.103  1.1969 -2.3989  1.3780
  144OSM    C1115790   5.296   3.446   6.122 -0.8205  0.3189 -0.4653
  144OSM   H11A15791   5.231   3.378   6.064 -1.2742  0.3749 -0.0293
  144OSM   H11B15792   5.250   3.546   6.141 -0.1892  0.4748  0.3407
  144OSM      P15793   5.201   3.303   6.334  0.0006 -0.0799  0.5015
  144OSM    O1315794   5.115   3.401   6.399  0.2492 -0.3468 -0.0906
  144OSM    O1415795   5.144   3.199   6.248 -0.1365  0.7974  0.0585
  144OSM    O1115796   5.295   3.222   6.443  0.2627  0.4841 -0.0855
  144OSM    O1215797   5.319   3.382   6.249  0.9376 -0.6680 -0.3108
  144OSM    C1S15798   5.356   3.305   6.538  0.1202 -0.1093 -0.0758
  144OSM    H1S15799   5.275   3.335   6.609 -0.3226 -0.8490 -0.2600
  144OSM    H1T15800   5.392   3.401   6.495  0.2836 -0.0929  0.0972
  144OSM     NF15801   5.524   3.343   6.708  0.7581  1.1471  0.3701
  144OSM    HNF15802   5.605   3.392   6.676  1.3129 -0.4089 -0.7230
  144OSM    C2S15803   5.470   3.239   6.621  0.1535 -0.3065 -0.4166
  144OSM    H2S15804   5.431   3.158   6.686  2.1289 -1.4219 -0.5306
  144OSM    C3S15805   5.571   3.177   6.522 -0.4251 -0.1962 -0.3625
  144OSM    H3S15806   5.625   3.251   6.460  1.2217 -2.5612 -1.9143
  144OSM     O315807   5.523   3.092   6.422  0.2765 -0.2625 -0.2346
  144OSM    HO315808   5.430   3.118   6.419  0.1264 -0.8078 -0.3705
  144OSM    C4S15809   5.698   3.114   6.590 -0.0602 -0.3723  0.2296
  144OSM    H4S15810   5.772   3.192   6.613 -1.3878  0.4301  1.9470
  144OSM    C5S15811   5.730   2.985   6.615  0.1684 -0.0587 -0.0128
  144OSM    H5S15812   5.651   2.913   6.591 -0.8125  0.6237  1.0624
  144OSM    C6S15813   5.856   2.929   6.676 -0.4912  0.4942  0.1066
  144OSM    H6S15814   5.912   2.886   6.590  1.9557  0.9125  1.4325
  144OSM    H6T15815   5.834   2.849   6.750  0.8813 -1.2018 -1.2438
  144OSM    C7S15816   5.944   3.043   6.732  0.3492 -0.3832  0.2579
  144OSM    H7S15817   5.885   3.089   6.815  0.9025 -1.9623  1.5768
  144OSM    H7T15818   5.964   3.132   6.668 -1.9387 -0.5048 -0.7356
  144OSM    C8S15819   6.083   2.989   6.773  0.0692 -0.5293  0.1819
  144OSM    H8S15820   6.146   3.072   6.811  1.1434 -0.5923 -1.3924
  144OSM    H8T15821   6.148   2.955   6.690  2.9080  4.2330  0.0631
  144OSM    C9S15822   6.071   2.872   6.877 -0.3024  0.2392  0.4307
  144OSM    H9S15823   6.178   2.841   6.883 -0.2600 -0.5793 -2.7130
  144OSM    H9T15824   6.015   2.786   6.834 -1.5519 -0.3056  2.9635
  144OSM   C10S15825   6.015   2.913   7.015 -0.1510 -0.4497 -0.2549
  144OSM   H10S15826   5.908   2.933   6.991  0.1498  2.8404  0.6820
  144OSM   H10T15827   6.054   3.014   7.040 -1.5803  0.5106 -1.6795
  144OSM   C11S15828   6.043   2.816   7.129  0.3527  0.0700 -0.2830
  144OSM   H11S15829   6.149   2.803   7.159  0.3207 -0.2353 -0.2932
  144OSM   H11T15830   6.013   2.713   7.099  2.6544 -0.2803 -1.6162
  144OSM   C12S15831   5.962   2.842   7.257 -0.5538 -0.1368 -0.0343
  144OSM   H12S15832   5.853   2.827   7.242 -0.6314  0.9579 -0.6684
  144OSM   H12T15833   5.966   2.951   7.277  0.5984 -0.3599  1.1007
  144OSM   C13S15834   6.001   2.772   7.387 -0.6987  0.0196 -0.3648
  144OSM   H13S15835   6.102   2.811   7.409 -0.6218  0.4259 -1.3876
  144OSM   H13T15836   6.005   2.662   7.374 -0.6675 -0.2149  1.3866
  144OSM   C14S15837   5.900   2.778   7.506 -0.4398 -0.2230  0.2480
  144OSM   H14S15838   5.799   2.737   7.482 -0.8589  1.4513 -1.0077
  144OSM   H14T15839   5.896   2.888   7.523  0.9130  0.0455 -0.9381
  144OSM   C15S15840   5.950   2.717   7.638  0.8890  0.0747 -0.5155
  144OSM   H15S15841   6.025   2.787   7.682 -0.3078  0.3122  1.2696
  144OSM   H15T15842   6.007   2.624   7.619  0.6565 -0.5371  1.5799
  144OSM   C16S15843   5.835   2.697   7.736  1.2856  0.6079 -0.0986
  144OSM   H16S15844   5.764   2.623   7.694  0.0376  1.4946  0.3992
  144OSM   H16T15845   5.779   2.792   7.752  1.6413  0.7050  0.6341
  144OSM   C17S15846   5.881   2.644   7.867  0.1159  0.2592  0.2544
  144OSM   H17S15847   5.790   2.619   7.924  0.2901 -0.0848  0.3869
  144OSM   H17T15848   5.929   2.732   7.915  0.7401 -0.0563  0.2270
  144OSM   C18S15849   5.954   2.514   7.858 -0.4568  0.1864 -0.7646
  144OSM   H18S15850   5.896   2.444   7.795 -0.7677 -1.6815  1.4648
  144OSM   H18T15851   5.964   2.473   7.961  0.7677  0.9846 -0.5357
  144OSM   H18U15852   6.057   2.529   7.817  1.4029 -3.8422  1.7908
  144OSM    C1F15853   5.476   3.369   6.830  0.0657 -0.2863 -0.5527
  144OSM     OF15854   5.396   3.295   6.877 -0.1372  0.3095 -0.4932
  144OSM    C2F15855   5.536   3.478   6.910 -0.0180 -0.4797  0.0375
  144OSM    H2F15856   5.455   3.554   6.903 -0.9626 -1.5934 -2.0289
  144OSM    H2G15857   5.630   3.514   6.863 -1.4638 -0.2579 -2.8727
  144OSM    C3F15858   5.566   3.434   7.051 -0.5765  0.7539  0.1033
  144OSM    H3F15859   5.478   3.387   7.099 -1.3461  1.5821 -0.4745
  144OSM    H3G15860   5.606   3.520   7.108 -0.9816  1.5604 -0.8050
  144OSM    C4F15861   5.677   3.325   7.051  0.2626  0.5293  0.2917
  144OSM    H4F15862   5.771   3.359   7.004 -0.0219 -0.6397 -1.2289
  144OSM    H4G15863   5.645   3.236   6.992  1.6872 -0.2117  0.6134
  144OSM    C5F15864   5.707   3.276   7.197  0.2481  0.3609 -0.1414
  144OSM    H5F15865   5.798   3.213   7.194  2.1384  2.8681  1.0906
  144OSM    H5G15866   5.625   3.206   7.224 -0.4028  1.1558 -0.0153
  144OSM    C6F15867   5.717   3.387   7.296  0.0100  0.1746 -0.7068
  144OSM    H6F15868   5.624   3.448   7.304 -0.1758 -0.2697  1.1263
  144OSM    H6G15869   5.799   3.454   7.263 -0.6933  1.4270 -0.0190
  144OSM    C7F15870   5.748   3.338   7.438 -0.7593 -0.0731 -0.8433
  144OSM    H7F15871   5.731   3.413   7.519 -0.4357  0.1832 -1.0102
  144OSM    H7G15872   5.856   3.312   7.433 -1.2917 -2.3403 -1.6232
  144OSM    C8F15873   5.669   3.209   7.491  0.4505 -0.1613 -0.3320
  144OSM    H8F15874   5.678   3.125   7.419  2.0559 -1.9792  1.8463
  144OSM    H8G15875   5.564   3.243   7.507  0.9542  1.2885  0.0303
  144OSM    C9F15876   5.721   3.157   7.624 -0.5934  0.2181 -0.4165
  144OSM    H9F15877   5.800   3.081   7.617 -0.3789  0.3713  0.2588
  144OSM   C10F15878   5.677   3.186   7.751 -0.3410  0.0913 -0.5037
  144OSM   H10F15879   5.726   3.134   7.834  0.8201  0.5967 -0.8477
  144OSM   C11F15880   5.564   3.282   7.782  0.2206 -0.0008  0.6001
  144OSM   H11F15881   5.492   3.291   7.698  0.2447  1.0954  0.6852
  144OSM   H11G15882   5.613   3.382   7.792  0.7848 -0.3574  1.5230
  144OSM   C12F15883   5.503   3.245   7.923 -0.4402 -0.2814  0.5700
  144OSM   H12F15884   5.568   3.189   7.993 -0.6270  1.1119  1.8885
  144OSM   H12G15885   5.414   3.184   7.895 -2.6888  3.0904 -0.2028
  144OSM   C13F15886   5.438   3.365   7.994 -0.4319 -0.1762  0.4444
  144OSM   H13F15887   5.361   3.414   7.930  0.4846  0.0576 -0.4979
  144OSM   H13G15888   5.518   3.441   8.010  1.7806 -2.9206  3.9334
  144OSM   C14F15889   5.386   3.325   8.131  0.3234  0.2945  0.3660
  144OSM   H14F15890   5.468   3.284   8.193  0.5403  0.8923  0.4838
  144OSM   H14G15891   5.310   3.247   8.108  2.2853 -1.6447  0.1613
  144OSM   C15F15892   5.323   3.441   8.215 -0.0050  0.1288 -0.1158
  144OSM   H15F15893   5.235   3.470   8.154  0.5882  1.6815 -0.2871
  144OSM   H15G15894   5.397   3.524   8.218 -0.2142  0.3983 -1.5964
  144OSM   C16F15895   5.300   3.411   8.362 -0.4450 -0.1011  0.1178
  144OSM   H16F15896   5.393   3.378   8.415 -0.6892  0.1075  0.6905
  144OSM   H16G15897   5.231   3.323   8.359 -0.0055 -0.4329 -0.6147
  144OSM   C17F15898   5.245   3.533   8.440  0.4738  0.4109 -0.4116
  144OSM   H17F15899   5.315   3.620   8.434  0.5282  0.4057  0.1619
  144OSM   H17G15900   5.236   3.497   8.544 -0.2741  0.2433 -0.5269
  144OSM   C18F15901   5.107   3.573   8.397  0.9793  0.8043 -0.7872
  144OSM   H18F15902   5.045   3.481   8.398  0.6925  0.9110  2.5208
  144OSM   H18G15903   5.116   3.613   8.294 -1.7978  1.1073 -0.9887
  144OSM   H18H15904   5.072   3.654   8.463  0.6932 -2.3092  3.2875
  145SAPE     N15905   5.486   5.367  10.686 -0.1199 -0.1043 -0.5144
  145SAPE   HN115906   5.549   5.376  10.604  1.4007 -0.7462  0.5319
  145SAPE   HN215907   5.484   5.266  10.709  1.2329 -0.2173 -0.7706
  145SAPE   HN315908   5.396   5.399  10.646 -0.3357 -1.3947 -1.1141
  145SAPE   C1215909   5.549   5.452  10.794  0.1091 -0.1359  0.2145
  145SAPE  H12A15910   5.593   5.365  10.847 -0.1797 -2.6366 -3.2702
  145SAPE  H12B15911   5.467   5.504  10.848  0.0965  1.3462 -1.1572
  145SAPE   C1115912   5.642   5.548  10.729  0.6750  0.2123  0.6155
  145SAPE  H11A15913   5.682   5.602  10.818  0.5173  1.1539  0.1307
  145SAPE  H11B15914   5.591   5.635  10.683  4.0068  1.7384 -0.5368
  145SAPE     P15915   5.762   5.520  10.495  0.3307  0.0488  0.0854
  145SAPE   O1315916   5.721   5.663  10.460  0.0437  0.2232 -0.3885
  145SAPE   O1415917   5.892   5.467  10.458 -0.0652  0.3841  0.2222
  145SAPE   O1215918   5.753   5.502  10.655  0.5133  0.7257 -0.1714
  145SAPE   O1115919   5.632   5.427  10.463  0.5370  0.3172  0.3749
  145SAPE    C115920   5.661   5.295  10.416 -0.2869  0.1034 -0.0104
  145SAPE    HA15921   5.754   5.246  10.452 -1.0589 -1.5745 -0.1600
  145SAPE    HB15922   5.582   5.226  10.454 -0.4518  1.4929  2.3787
  145SAPE    C215923   5.670   5.279  10.267  0.6481  0.5890  0.9315
  145SAPE    HS15924   5.775   5.295  10.234  1.2392 -4.2602 -0.3261
  145SAPE   O2115925   5.564   5.344  10.192  0.1161 -0.3985 -0.4171
  145SAPE   C2115926   5.592   5.472  10.162  0.0675  0.5147 -0.8833
  145SAPE   O2215927   5.698   5.526  10.177  0.2426 -0.4445 -0.1835
  145SAPE   C2215928   5.458   5.530  10.107 -0.7840  0.4382 -0.2685
  145SAPE   H2R15929   5.404   5.453  10.048 -1.1548  0.6072 -0.1529
  145SAPE   H2S15930   5.385   5.548  10.189 -0.5626 -0.0259  0.0349
  145SAPE    C315931   5.653   5.130  10.234  0.6261  0.3987 -0.0283
  145SAPE    HX15932   5.557   5.099  10.280  1.5101 -0.1650  1.5181
  145SAPE    HY15933   5.728   5.068  10.287 -1.8097 -2.0227  0.7818
  145SAPE   O3115934   5.662   5.090  10.101 -1.1688 -0.6209  1.0995
  145SAPE   C3115935   5.557   5.057  10.031  0.7701  0.6320  0.1467
  145SAPE   O3215936   5.442   5.044  10.067  0.6313 -0.7623  0.0189
  145SAPE   C3215937   5.606   5.034   9.886 -0.3697 -0.8624 -0.3434
  145SAPE   H2X15938   5.611   4.924   9.872 -0.8828 -0.9762  0.2998
  145SAPE   H2Y15939   5.710   5.074   9.884 -0.4709 -0.3711  1.6472
  145SAPE   C2315940   5.489   5.661  10.027 -0.3568  0.0200 -0.3803
  145SAPE   H3R15941   5.551   5.738  10.079  1.7150 -1.9911  0.2784
  145SAPE   H3S15942   5.395   5.711   9.995 -1.1444 -0.0737  1.6641
  145SAPE   C2415943   5.554   5.627   9.885 -0.5303  0.4352 -0.5190
  145SAPE   H4R15944   5.657   5.663   9.904 -0.8852  1.1637  0.0854
  145SAPE   H4S15945   5.501   5.699   9.818 -2.7560 -1.6128 -1.0995
  145SAPE   C2515946   5.574   5.496   9.816 -0.4939  0.4670 -0.3328
  145SAPE   H5R15947   5.561   5.413   9.887  1.0028 -0.4667 -1.0952
  145SAPE   C2615948   5.608   5.463   9.686 -0.3849 -0.3696 -0.6263
  145SAPE   H6R15949   5.628   5.358   9.661 -0.8446 -0.1656 -1.8722
  145SAPE   C2715950   5.636   5.557   9.580  0.1727  0.1733  0.1364
  145SAPE   H7R15951   5.726   5.525   9.524  0.4134 -0.0691  0.6537
  145SAPE   H7S15952   5.652   5.655   9.631 -1.5481 -0.8712  2.9440
  145SAPE   C2815953   5.519   5.558   9.490 -0.5635 -0.7415 -0.4577
  145SAPE   H8R15954   5.443   5.626   9.532 -1.5953 -1.2002 -1.5287
  145SAPE   C2915955   5.500   5.508   9.369 -0.5839  0.7452  0.5403
  145SAPE   H9R15956   5.399   5.523   9.329 -1.1998  0.3247  1.8787
  145SAPE  C21015957   5.601   5.440   9.279 -0.7273 -0.3140 -0.1910
  145SAPE  H10R15958   5.557   5.362   9.214  0.8558 -0.2761 -1.3755
  145SAPE  H10S15959   5.676   5.391   9.345  1.3403  1.2409 -1.2547
  145SAPE  C21115960   5.686   5.528   9.197  0.1038  0.2858  0.6277
  145SAPE  H11R15961   5.708   5.627   9.238 -1.8866  1.1660 -0.2535
  145SAPE  C21215962   5.729   5.494   9.072  0.0794 -0.1243 -0.3202
  145SAPE  H12R15963   5.787   5.565   9.013  1.3113  1.0493  2.1487
  145SAPE  C21315964   5.695   5.369   9.002 -0.2183 -0.0971  0.2173
  145SAPE  H13R15965   5.656   5.296   9.076 -0.6944  0.7525  0.8157
  145SAPE  H13S15966   5.779   5.304   8.967 -1.1521 -0.1651 -2.0347
  145SAPE  C21415967   5.591   5.373   8.888  0.2940 -0.4321 -0.2936
  145SAPE  H14R15968   5.490   5.359   8.928  0.2441 -1.2065 -0.6775
  145SAPE  C21515969   5.618   5.382   8.758 -0.2912 -0.2560 -0.2140
  145SAPE  H15R15970   5.535   5.391   8.685  1.0160 -0.7825 -1.8442
  145SAPE  C21615971   5.756   5.402   8.691 -0.6126  0.6397 -0.1035
  145SAPE  H16R15972   5.786   5.298   8.663 -4.4192 -0.5238 -0.3776
  145SAPE  H16S15973   5.831   5.442   8.762 -1.4805 -0.4461  1.4895
  145SAPE  C21715974   5.757   5.489   8.569 -0.1311  0.2850  0.5951
  145SAPE  H17R15975   5.718   5.588   8.602 -1.5635 -0.0424 -0.0767
  145SAPE  H17S15976   5.691   5.457   8.486  0.2452  1.3677 -0.1397
  145SAPE  C21815977   5.900   5.503   8.517 -0.2805  0.6030 -0.5349
  145SAPE  H18R15978   5.925   5.402   8.478 -3.0053 -1.4129  2.4717
  145SAPE  H18S15979   5.976   5.523   8.595 -1.4056  4.3797 -0.2319
  145SAPE  C21915980   5.916   5.605   8.403 -0.1237  0.5412 -0.3073
  145SAPE  H19R15981   5.913   5.704   8.454  2.0027  0.5934 -0.1772
  145SAPE  H19S15982   5.837   5.599   8.325  0.2541  3.4140 -1.0397
  145SAPE  C22015983   6.055   5.583   8.332  0.3169  0.7717  0.5925
  145SAPE  H20R15984   6.063   5.492   8.269 -0.6414  0.3376  1.0775
  145SAPE  H20S15985   6.136   5.589   8.408  0.8042 -1.3414  0.3040
  145SAPE  H20T15986   6.064   5.675   8.270 -1.4724  1.1110  0.7897
  145SAPE   C3315987   5.518   5.093   9.771 -0.5562  0.1921  0.2683
  145SAPE   H3X15988   5.514   5.204   9.770  0.6930  0.2516  0.6466
  145SAPE   H3Y15989   5.419   5.043   9.782  0.8154 -2.6527  0.5166
  145SAPE   C3415990   5.578   5.041   9.638  0.7747 -0.3513 -0.2264
  145SAPE   H4X15991   5.582   4.930   9.632 -0.2364 -0.3854 -0.3093
  145SAPE   H4Y15992   5.683   5.077   9.633  0.8038 -0.5141 -0.8327
  145SAPE   C3515993   5.500   5.085   9.516  0.1083  0.1185  0.0376
  145SAPE   H5X15994   5.521   5.194   9.514  2.6989 -0.2820  1.2027
  145SAPE   H5Y15995   5.392   5.062   9.529  0.4350 -0.7778  1.4077
  145SAPE   C3615996   5.554   5.017   9.387 -0.1440  0.2823 -0.3246
  145SAPE   H6X15997   5.550   4.906   9.392 -0.3844  0.2591 -0.9836
  145SAPE   H6Y15998   5.664   5.030   9.373 -0.0750 -1.1999 -1.4596
  145SAPE   C3715999   5.483   5.056   9.261  0.5904  0.0255 -0.6141
  145SAPE   H7X16000   5.476   5.167   9.258  2.2273  0.1494 -0.8646
  145SAPE   H7Y16001   5.381   5.013   9.258 -0.2826  1.9577 -0.3660
  145SAPE   C3816002   5.551   5.007   9.140  0.7770  0.2710  0.7282
  145SAPE   H8X16003   5.566   4.897   9.132 -1.3973  0.0510 -2.8424
  145SAPE   H8Y16004   5.658   5.034   9.127  2.0045 -3.5276  1.6641
  145SAPE   C3916005   5.466   5.020   9.010  0.0004 -0.3966  0.0544
  145SAPE   H9X16006   5.397   5.106   9.014 -1.6226 -1.5985 -0.8736
  145SAPE   H9Y16007   5.392   4.937   9.003 -0.5208 -0.1632  2.1222
  145SAPE  C31016008   5.558   5.034   8.884  0.8595 -0.1768 -0.1467
  145SAPE  H10X16009   5.633   5.116   8.884  0.0371  0.7096  2.4670
  145SAPE  H10Y16010   5.493   5.049   8.795  0.0602  1.5460  0.6728
  145SAPE  C31116011   5.630   4.897   8.862 -0.1638 -0.5540 -0.4031
  145SAPE  H11X16012   5.561   4.815   8.888  1.2603 -2.9283 -3.4527
  145SAPE  H11Y16013   5.713   4.883   8.934  0.0398  1.4871 -0.1767
  145SAPE  C31216014   5.678   4.885   8.711  0.1898 -0.5794 -0.6982
  145SAPE  H12X16015   5.590   4.917   8.650 -1.2998  0.5582  1.8585
  145SAPE  H12Y16016   5.719   4.782   8.704 -2.4232 -2.1036  3.0274
  145SAPE  C31316017   5.790   4.986   8.672  0.0605 -0.4772  0.6625
  145SAPE  H13X16018   5.860   4.968   8.756  0.6382 -1.3837  0.0128
  145SAPE  H13Y16019   5.756   5.090   8.687 -0.2322 -0.5273  0.3652
  145SAPE  C31416020   5.863   4.956   8.541  0.6227 -0.4530 -0.2233
  145SAPE  H14X16021   5.794   4.971   8.455  1.1911 -1.0687 -0.7912
  145SAPE  H14Y16022   5.892   4.849   8.541 -0.0062 -0.6324 -0.8505
  145SAPE  C31516023   5.984   5.042   8.523  0.4669 -0.2501 -0.0129
  145SAPE  H15X16024   6.049   5.056   8.612  1.2707 -0.9803 -0.4675
  145SAPE  H15Y16025   5.942   5.141   8.495 -0.6260 -1.2077 -1.9868
  145SAPE  C31616026   6.073   4.982   8.414 -0.1054  0.3668 -0.0536
  145SAPE  H16X16027   6.009   4.976   8.324  1.8644  1.0198 -1.5823
  145SAPE  H16Y16028   6.110   4.882   8.444 -1.8478 -0.7853 -1.5742
  145SAPE  C31716029   6.199   5.075   8.389 -0.0876  0.3683 -0.1996
  145SAPE  H17X16030   6.250   5.116   8.478 -0.6819  1.7782 -0.4784
  145SAPE  H17Y16031   6.164   5.171   8.345 -0.1548  1.3376  1.8388
  145SAPE  C31816032   6.302   5.032   8.288  0.3923  0.3084  0.0967
  145SAPE  H18X16033   6.371   4.961   8.339 -0.0134 -0.3273 -0.2333
  145SAPE  H18Y16034   6.362   5.112   8.240  0.0437  0.0003 -0.8828
  145SAPE  H18Z16035   6.259   4.964   8.211 -0.3651 -0.4829  1.1904
  146SAPE     N16036   3.970   4.850  10.899  0.0041 -0.2620 -0.2485
  146SAPE   HN116037   3.911   4.845  10.814 -0.0451 -1.9745 -0.1656
  146SAPE   HN216038   4.060   4.798  10.890  1.0618  0.9219  2.4636
  146SAPE   HN316039   3.925   4.798  10.978  0.9585 -0.1455  0.3931
  146SAPE   C1216040   4.001   4.990  10.945 -0.0628 -0.1134 -0.4487
  146SAPE  H12A16041   4.040   4.989  11.049  3.2575  0.0303 -1.5919
  146SAPE  H12B16042   3.905   5.045  10.932  1.2872  2.3717 -0.5091
  146SAPE   C1116043   4.103   5.043  10.843  0.1744  0.0637 -0.3725
  146SAPE  H11A16044   4.184   4.967  10.845 -2.4693 -2.9909  1.2178
  146SAPE  H11B16045   4.136   5.146  10.867  0.6623 -0.3497  0.7634
  146SAPE     P16046   4.136   4.986  10.592 -0.1950 -0.4315 -0.3754
  146SAPE   O1316047   4.275   5.009  10.611 -0.0052 -0.5012  0.0835
  146SAPE   O1416048   4.098   4.846  10.581  0.6570 -0.0204 -0.1708
  146SAPE   O1216049   4.047   5.050  10.706 -0.0880  0.6481 -0.1250
  146SAPE   O1116050   4.086   5.056  10.463  0.7477  0.0308 -0.3445
  146SAPE    C116051   3.951   5.036  10.425  0.0661  0.0327 -0.3046
  146SAPE    HA16052   3.885   5.016  10.512  0.1432 -1.1577 -0.5020
  146SAPE    HB16053   3.917   5.125  10.369 -0.2954  0.0923  0.0027
  146SAPE    C216054   3.942   4.917  10.334  0.1361 -0.6492  0.3078
  146SAPE    HS16055   4.016   4.842  10.369 -0.0597 -0.1081  1.9912
  146SAPE   O2116056   3.968   4.968  10.198  0.7158 -0.2474 -0.6724
  146SAPE   C2116057   4.054   4.913  10.122  0.7694  0.9226  0.5300
  146SAPE   O2216058   4.117   4.811  10.143  0.6263 -0.8149  0.1695
  146SAPE   C2216059   4.077   5.008  10.006  0.2484  0.6317 -0.0334
  146SAPE   H2R16060   3.977   5.051   9.982  0.6714  1.8410  0.2717
  146SAPE   H2S16061   4.138   5.095  10.038 -1.8411  1.0328  3.4194
  146SAPE    C316062   3.798   4.853  10.316  0.3129  0.0153  0.7864
  146SAPE    HX16063   3.733   4.932  10.273 -2.1534 -1.7022  1.1020
  146SAPE    HY16064   3.753   4.820  10.412 -0.7437  0.9714  0.6381
  146SAPE   O3116065   3.802   4.754  10.218  0.0784  0.1903  0.0732
  146SAPE   C3116066   3.841   4.637  10.259 -0.4208 -0.1365 -0.6820
  146SAPE   O3216067   3.859   4.606  10.373 -0.5379 -0.2420 -0.0852
  146SAPE   C3216068   3.867   4.538  10.147  0.1906 -0.1951 -0.3094
  146SAPE   H2X16069   3.893   4.440  10.192 -0.9265 -0.0589  0.6514
  146SAPE   H2Y16070   3.954   4.579  10.090  1.4763  0.1643  1.7989
  146SAPE   C2316071   4.149   4.945   9.887  0.8410 -0.3193 -0.0553
  146SAPE   H3R16072   4.254   4.931   9.919  0.5841 -0.6888  0.6509
  146SAPE   H3S16073   4.145   5.024   9.809  0.1064  0.2991  0.5785
  146SAPE   C2416074   4.080   4.815   9.828  0.6739 -0.2928  0.0638
  146SAPE   H4R16075   4.081   4.738   9.908  2.4105 -0.1710  0.2094
  146SAPE   H4S16076   4.154   4.787   9.750  1.9076  2.4048  0.1444
  146SAPE   C2516077   3.934   4.852   9.786  0.0330  0.0162  0.0957
  146SAPE   H5R16078   3.864   4.872   9.868  0.6843 -0.7568  0.8636
  146SAPE   C2616079   3.890   4.867   9.662 -0.1028  1.4051 -0.0886
  146SAPE   H6R16080   3.792   4.914   9.642  0.0449  1.1769 -1.4150
  146SAPE   C2716081   3.980   4.862   9.542 -0.3375 -0.2699 -0.6465
  146SAPE   H7R16082   4.078   4.901   9.577 -1.0748  1.2927 -0.2705
  146SAPE   H7S16083   3.943   4.934   9.466 -0.2868 -1.2669 -1.6625
  146SAPE   C2816084   3.991   4.716   9.490  0.3586 -0.6898  0.1383
  146SAPE   H8R16085   4.023   4.634   9.556  2.1011 -0.1672 -0.0190
  146SAPE   C2916086   3.962   4.685   9.360  0.5333  0.5700  0.5175
  146SAPE   H9R16087   3.964   4.582   9.321  1.0821  0.6776  0.2519
  146SAPE  C21016088   3.926   4.783   9.248  0.2781 -0.3929 -0.1660
  146SAPE  H10R16089   3.851   4.859   9.278  3.0602  4.1276 -3.3732
  146SAPE  H10S16090   3.873   4.721   9.173 -0.2339  0.4354 -0.4982
  146SAPE  C21116091   4.035   4.860   9.185 -0.5959 -0.2515  0.8010
  146SAPE  H11R16092   4.118   4.888   9.250 -0.7616  0.7334  0.6019
  146SAPE  C21216093   4.047   4.901   9.056 -0.1145  0.4794  0.2703
  146SAPE  H12R16094   4.142   4.950   9.033  0.1328  0.9960  2.2182
  146SAPE  C21316095   3.958   4.880   8.937  0.4421 -0.0442 -0.1391
  146SAPE  H13R16096   3.920   4.983   8.919  1.1842  0.6847  2.1099
  146SAPE  H13S16097   3.876   4.812   8.969  0.5390  1.1459  3.0806
  146SAPE  C21416098   4.042   4.846   8.816  0.1408 -0.1775 -0.5376
  146SAPE  H14R16099   4.139   4.797   8.836  0.1072  0.4859  1.4419
  146SAPE  C21516100   4.010   4.875   8.689 -1.4024  0.5672  0.0283
  146SAPE  H15R16101   4.079   4.845   8.609 -1.3380 -0.9662  0.6294
  146SAPE  C21616102   3.888   4.942   8.639 -0.3871  0.3492 -0.2167
  146SAPE  H16R16103   3.821   4.968   8.724 -1.2103 -0.5870 -0.5561
  146SAPE  H16S16104   3.831   4.868   8.578 -1.1183  1.3265 -0.7464
  146SAPE  C21716105   3.909   5.063   8.556  0.1503 -0.5406  0.8127
  146SAPE  H17R16106   3.983   5.128   8.606  0.5419  1.1298 -1.7608
  146SAPE  H17S16107   3.815   5.122   8.547  1.1898  1.2069  0.9616
  146SAPE  C21816108   3.947   5.035   8.411  0.4196 -0.3034 -0.4121
  146SAPE  H18R16109   3.878   4.957   8.372  0.7449 -0.4243 -0.7559
  146SAPE  H18S16110   4.047   4.986   8.413 -0.5569 -2.3557  0.0501
  146SAPE  C21916111   3.936   5.160   8.317 -0.1539  0.7193  0.7340
  146SAPE  H19R16112   3.834   5.202   8.326 -1.1154 -1.0755 -0.9710
  146SAPE  H19S16113   3.944   5.113   8.217  1.8414  0.0344  1.1635
  146SAPE  C22016114   4.049   5.264   8.341  0.2995  0.9893 -0.1713
  146SAPE  H20R16115   4.149   5.220   8.323  0.5321  1.2283  0.5178
  146SAPE  H20S16116   4.041   5.295   8.447 -3.3819 -2.9756  1.0218
  146SAPE  H20T16117   4.044   5.348   8.268  2.7321 -1.1191 -3.0040
  146SAPE   C3316118   3.736   4.516  10.063  0.2700  0.2964 -0.4817
  146SAPE   H3X16119   3.640   4.511  10.119 -0.0419 -1.8202 -1.1068
  146SAPE   H3Y16120   3.741   4.413  10.023  0.2536  0.5100 -1.0436
  146SAPE   C3416121   3.718   4.610   9.946  0.3902  0.1457 -0.0842
  146SAPE   H4X16122   3.804   4.605   9.876  0.3942 -2.2103  0.0067
  146SAPE   H4Y16123   3.712   4.716   9.977 -0.4304  0.1185 -0.1161
  146SAPE   C3516124   3.594   4.578   9.851 -0.0862 -0.2067 -0.0891
  146SAPE   H5X16125   3.502   4.543   9.903 -0.5066  0.1451 -0.5827
  146SAPE   H5Y16126   3.626   4.487   9.795  2.9184 -1.4860  3.2994
  146SAPE   C3616127   3.538   4.696   9.770 -0.1177 -0.9480  0.0479
  146SAPE   H6X16128   3.621   4.762   9.735 -0.6686  0.8211  1.8688
  146SAPE   H6Y16129   3.480   4.760   9.839  0.7864 -0.8891  0.7775
  146SAPE   C3716130   3.439   4.664   9.655  0.2306 -0.3641  0.1597
  146SAPE   H7X16131   3.348   4.639   9.714  1.6467 -4.5833  0.9122
  146SAPE   H7Y16132   3.469   4.575   9.596  1.9296  0.3116 -0.0331
  146SAPE   C3816133   3.417   4.782   9.565 -0.1339  0.3860 -0.7343
  146SAPE   H8X16134   3.398   4.871   9.628  1.2394  0.0686  0.1630
  146SAPE   H8Y16135   3.333   4.746   9.501  0.0557 -2.8838  0.6103
  146SAPE   C3916136   3.540   4.814   9.473  0.7099 -0.1975  0.2941
  146SAPE   H9X16137   3.569   4.719   9.423  0.6763  0.3418 -0.7667
  146SAPE   H9Y16138   3.631   4.855   9.522 -0.2040 -1.5884  3.4591
  146SAPE  C31016139   3.508   4.926   9.362 -0.3643 -0.7807  0.1550
  146SAPE  H10X16140   3.602   4.978   9.333 -0.6294  0.3175  1.1968
  146SAPE  H10Y16141   3.452   5.016   9.394  0.8275  0.1329 -0.2515
  146SAPE  C31116142   3.431   4.872   9.237 -0.0761  0.2549  0.0225
  146SAPE  H11X16143   3.322   4.867   9.257 -0.9022  1.5936 -3.4754
  146SAPE  H11Y16144   3.472   4.772   9.210  0.1780 -0.0161  1.3305
  146SAPE  C31216145   3.464   4.954   9.112 -0.1698  0.0702 -0.9141
  146SAPE  H12X16146   3.569   4.954   9.075  0.4980  2.5809  0.7262
  146SAPE  H12Y16147   3.451   5.059   9.148  3.2219 -0.2732  1.8195
  146SAPE  C31316148   3.368   4.934   8.990 -0.5935 -0.1546 -1.0594
  146SAPE  H13X16149   3.264   4.960   9.018 -0.6771 -1.1500 -0.3793
  146SAPE  H13Y16150   3.363   4.825   8.972  0.1897 -0.6521  1.3387
  146SAPE  C31416151   3.405   5.011   8.866  0.0676 -0.3721 -0.1660
  146SAPE  H14X16152   3.503   4.982   8.822 -0.1693 -0.2874 -0.7522
  146SAPE  H14Y16153   3.406   5.119   8.890 -1.7613 -0.2578 -0.4812
  146SAPE  C31516154   3.309   4.976   8.746  0.6021  0.3386  0.3805
  146SAPE  H15X16155   3.213   5.032   8.760 -0.3150 -1.1618  0.3392
  146SAPE  H15Y16156   3.285   4.868   8.759  1.2294  0.0643 -0.6236
  146SAPE  C31616157   3.377   4.993   8.599  0.7946 -0.2237  0.1533
  146SAPE  H16X16158   3.406   5.100   8.590  1.9293 -0.5665 -0.4307
  146SAPE  H16Y16159   3.297   4.967   8.526  0.3372 -0.4480  0.7223
  146SAPE  C31716160   3.501   4.907   8.586 -0.2134 -0.1408 -0.1311
  146SAPE  H17X16161   3.476   4.800   8.604 -1.3424  0.2137  0.5368
  146SAPE  H17Y16162   3.584   4.942   8.650 -0.0479 -2.3504  0.9300
  146SAPE  C31816163   3.549   4.913   8.443  0.1893  0.8718  0.8464
  146SAPE  H18X16164   3.490   4.841   8.382 -0.0999 -1.0250  3.2022
  146SAPE  H18Y16165   3.658   4.898   8.432  0.2699  2.4601 -0.7537
  146SAPE  H18Z16166   3.529   5.011   8.396 -2.1744 -1.3675 -3.3261
  147SAPE     N16167   5.829   3.582  10.597 -0.3418 -0.6094  0.2690
  147SAPE   HN116168   5.758   3.523  10.644  0.0053 -0.4432  1.0222
  147SAPE   HN216169   5.893   3.598  10.678 -0.2763 -3.9710  1.0375
  147SAPE   HN316170   5.784   3.670  10.565 -0.0244  0.1556  1.8256
  147SAPE   C1216171   5.907   3.514  10.493 -0.5752 -0.8246 -0.0839
  147SAPE  H12A16172   5.987   3.585  10.461 -0.1684 -1.1521  0.1917
  147SAPE  H12B16173   5.841   3.481  10.410  0.6790  2.4013 -2.5893
  147SAPE   C1116174   5.983   3.397  10.549 -0.9913  0.1058 -0.1998
  147SAPE  H11A16175   6.042   3.351  10.467 -0.5111 -0.2542  0.3363
  147SAPE  H11B16176   5.916   3.317  10.589 -1.3976  2.1380  3.6978
  147SAPE     P16177   6.213   3.372  10.688  0.0291  0.5618 -0.0492
  147SAPE   O1316178   6.292   3.458  10.783  0.1366  0.4708 -0.2287
  147SAPE   O1416179   6.199   3.231  10.732  0.3738  0.2980  0.0300
  147SAPE   O1216180   6.071   3.433  10.655 -0.8055 -0.4277  0.3072
  147SAPE   O1116181   6.284   3.381  10.546 -0.1707  0.2996  0.4631
  147SAPE    C116182   6.366   3.486  10.495  0.5411 -0.6177  0.1042
  147SAPE    HA16183   6.383   3.567  10.569 -0.8873  0.0423 -0.2492
  147SAPE    HB16184   6.461   3.436  10.468  0.4683 -0.3945 -0.5672
  147SAPE    C216185   6.299   3.551  10.373 -0.0011 -0.2359  0.0663
  147SAPE    HS16186   6.207   3.598  10.412  1.2566  2.8214 -0.3412
  147SAPE   O2116187   6.280   3.454  10.272  0.1974  0.3946 -0.3865
  147SAPE   C2116188   6.160   3.444  10.216  0.0430  0.3428  0.4676
  147SAPE   O2216189   6.063   3.505  10.249  0.3317  0.0677  0.0512
  147SAPE   C2216190   6.166   3.346  10.108  0.7289 -0.1147 -0.1499
  147SAPE   H2R16191   6.269   3.340  10.067  1.3718  0.2784  1.3397
  147SAPE   H2S16192   6.134   3.252  10.159  0.7343 -0.1173 -0.1507
  147SAPE    C316193   6.382   3.662  10.313 -0.2985  0.0171 -0.0768
  147SAPE    HX16194   6.403   3.736  10.393 -1.9959 -0.4987  0.8888
  147SAPE    HY16195   6.314   3.724  10.250 -1.0628 -1.0010 -0.2740
  147SAPE   O3116196   6.499   3.617  10.240  0.0852  0.3133  0.0133
  147SAPE   C3116197   6.488   3.592  10.111 -0.2192 -0.3730 -0.4670
  147SAPE   O3216198   6.402   3.620  10.032  0.2166  0.2630 -0.1848
  147SAPE   C3216199   6.619   3.525  10.061  0.1980 -0.8789  0.0932
  147SAPE   H2X16200   6.624   3.422  10.102  1.1384 -0.5486  0.8635
  147SAPE   H2Y16201   6.712   3.573  10.098  0.0752  0.6374 -1.4457
  147SAPE   C2316202   6.074   3.381   9.993 -0.6105  0.5320  0.1411
  147SAPE   H3R16203   6.124   3.465   9.939 -0.0316  1.2782  1.7760
  147SAPE   H3S16204   5.972   3.408  10.028 -2.1965 -1.2272 -2.7124
  147SAPE   C2416205   6.056   3.259   9.894  0.5277 -0.1261  0.0314
  147SAPE   H4R16206   5.973   3.296   9.831 -0.5506  0.6033  1.7871
  147SAPE   H4S16207   6.024   3.162   9.940 -0.9059 -1.0890 -2.7827
  147SAPE   C2516208   6.185   3.227   9.820  1.1541 -0.8038 -0.5385
  147SAPE   H5R16209   6.231   3.307   9.761  0.8659 -1.0511 -1.1104
  147SAPE   C2616210   6.261   3.117   9.832  0.4952 -0.0445  1.0294
  147SAPE   H6R16211   6.350   3.110   9.767  0.2869 -3.0251  0.9382
  147SAPE   C2716212   6.242   2.992   9.904 -0.1826 -0.3197 -0.5731
  147SAPE   H7R16213   6.249   3.017  10.012  0.8676  1.4881 -1.0099
  147SAPE   H7S16214   6.343   2.948   9.890 -0.1356  0.2669 -2.3583
  147SAPE   C2816215   6.129   2.889   9.875 -0.7674  0.0701 -0.1503
  147SAPE   H8R16216   6.055   2.872   9.954 -2.6307  1.7882 -1.4222
  147SAPE   C2916217   6.110   2.823   9.760 -0.1035  0.0514  0.4940
  147SAPE   H9R16218   6.024   2.756   9.744 -0.3556  0.4727  0.0801
  147SAPE  C21016219   6.199   2.835   9.637 -0.5508 -0.0440 -0.1251
  147SAPE  H10R16220   6.195   2.733   9.594 -2.0589  0.1269 -0.4317
  147SAPE  H10S16221   6.306   2.845   9.666 -0.8098 -0.5210  1.0905
  147SAPE  C21116222   6.154   2.940   9.544 -0.1791 -0.4065 -0.1484
  147SAPE  H11R16223   6.069   3.003   9.574 -1.1084 -2.0420  0.7940
  147SAPE  C21216224   6.203   2.970   9.419 -0.2003  0.3209 -0.4855
  147SAPE  H12R16225   6.173   3.068   9.379 -0.2144  0.0364 -1.1985
  147SAPE  C21316226   6.321   2.899   9.349  0.2798  0.2752 -0.7487
  147SAPE  H13R16227   6.351   2.804   9.399  0.6918  0.4349 -0.6880
  147SAPE  H13S16228   6.407   2.969   9.359  1.2350 -0.9414 -0.0885
  147SAPE  C21416229   6.289   2.862   9.203 -0.4457  0.0337 -0.7336
  147SAPE  H14R16230   6.200   2.797   9.193 -0.8064  0.4661 -0.3979
  147SAPE  C21516231   6.358   2.888   9.096 -0.0611  0.5962 -0.0131
  147SAPE  H15R16232   6.314   2.854   9.001 -0.4528 -2.2161  1.0818
  147SAPE  C21616233   6.485   2.965   9.088 -0.1495 -0.3534 -0.6098
  147SAPE  H16R16234   6.528   2.988   9.188 -3.4752  0.7826  0.7012
  147SAPE  H16S16235   6.470   3.069   9.054  2.6289  0.4004  0.1459
  147SAPE  C21716236   6.601   2.899   9.010 -0.3306  0.3186  0.1566
  147SAPE  H17R16237   6.580   2.885   8.902 -1.0509 -1.4674  0.5038
  147SAPE  H17S16238   6.621   2.797   9.048 -3.2528 -0.1530  0.6211
  147SAPE  C21816239   6.734   2.972   9.014 -0.3384  0.4031 -0.2571
  147SAPE  H18R16240   6.809   2.911   8.960  0.2349  1.4973 -0.7210
  147SAPE  H18S16241   6.777   2.985   9.116 -1.6582  2.4609  0.0930
  147SAPE  C21916242   6.739   3.109   8.950  0.5346  0.8115  0.1913
  147SAPE  H19R16243   6.669   3.165   9.015 -0.2699  0.0257  0.0068
  147SAPE  H19S16244   6.720   3.103   8.840  0.3632 -0.1291  0.2686
  147SAPE  C22016245   6.887   3.164   8.973 -0.4169  0.4166 -0.1010
  147SAPE  H20R16246   6.904   3.263   8.927  0.7470  0.0669 -0.4446
  147SAPE  H20S16247   6.966   3.103   8.923  0.7277  2.7059 -1.2449
  147SAPE  H20T16248   6.909   3.175   9.081  0.4531 -0.9376 -0.1069
  147SAPE   C3316249   6.623   3.525   9.899  0.2182 -0.4703 -0.0887
  147SAPE   H3X16250   6.588   3.622   9.857 -1.9497 -1.5189 -0.8441
  147SAPE   H3Y16251   6.553   3.446   9.866  1.1386 -0.6817 -1.6819
  147SAPE   C3416252   6.766   3.488   9.846  0.6504  0.0275  0.2114
  147SAPE   H4X16253   6.802   3.395   9.895 -2.8410 -1.8282 -0.4273
  147SAPE   H4Y16254   6.834   3.574   9.866  2.6115 -1.0089 -1.5425
  147SAPE   C3516255   6.761   3.485   9.692 -0.3898 -0.0380 -0.1412
  147SAPE   H5X16256   6.734   3.585   9.651 -0.4965 -0.3178 -0.7553
  147SAPE   H5Y16257   6.694   3.402   9.661  1.9291 -2.3259  0.5611
  147SAPE   C3616258   6.903   3.460   9.623  0.6973 -0.4443 -0.0051
  147SAPE   H6X16259   6.942   3.360   9.651 -1.0960 -1.3867 -0.7498
  147SAPE   H6Y16260   6.967   3.541   9.664 -1.7985  1.0173  1.1630
  147SAPE   C3716261   6.900   3.486   9.472  0.1826  0.1200 -0.4219
  147SAPE   H7X16262   6.852   3.584   9.451  1.7115  0.9269 -0.3012
  147SAPE   H7Y16263   6.833   3.408   9.429 -1.7214  0.0496  2.4125
  147SAPE   C3816264   7.030   3.474   9.388 -0.4109 -0.6926 -0.5034
  147SAPE   H8X16265   7.073   3.372   9.384  3.6386  0.8493 -0.9526
  147SAPE   H8Y16266   7.104   3.553   9.413 -1.8144  0.4961  0.0681
  147SAPE   C3916267   6.997   3.506   9.238 -0.1100  0.1543 -0.3508
  147SAPE   H9X16268   6.945   3.603   9.223  0.4122  0.3929 -0.6378
  147SAPE   H9Y16269   6.936   3.427   9.190 -3.2597  1.9438  0.3868
  147SAPE  C31016270   7.130   3.513   9.155 -0.2890 -0.6357  0.5995
  147SAPE  H10X16271   7.199   3.426   9.156  0.6693  0.0324 -1.8145
  147SAPE  H10Y16272   7.195   3.590   9.202 -0.9281  1.0700 -1.1556
  147SAPE  C31116273   7.118   3.559   9.009  0.1457 -0.4211  0.5291
  147SAPE  H11X16274   7.101   3.669   9.009 -1.5694 -0.6168 -1.4407
  147SAPE  H11Y16275   7.024   3.521   8.964 -0.5795  0.1654  1.5166
  147SAPE  C31216276   7.234   3.526   8.922  1.4028  0.1818  0.5260
  147SAPE  H12X16277   7.259   3.418   8.923  1.7602  0.2547  1.5946
  147SAPE  H12Y16278   7.323   3.583   8.957  0.3824  1.9870  0.2824
  147SAPE  C31316279   7.217   3.570   8.775  0.0026  0.0845 -0.1474
  147SAPE  H13X16280   7.196   3.678   8.761  1.9057  0.6517  1.0909
  147SAPE  H13Y16281   7.138   3.503   8.734 -0.6714  0.1925  0.9463
  147SAPE  C31416282   7.350   3.548   8.689 -0.0345  0.3942  0.1578
  147SAPE  H14X16283   7.368   3.441   8.709  1.6233  0.6340  0.1194
  147SAPE  H14Y16284   7.429   3.605   8.743 -0.6118  0.2805  1.1551
  147SAPE  C31516285   7.347   3.572   8.539 -0.2157 -0.5403  0.3169
  147SAPE  H15X16286   7.284   3.494   8.491  0.9939 -0.6965 -1.1111
  147SAPE  H15Y16287   7.446   3.540   8.500  0.2502  1.3067 -0.1154
  147SAPE  C31616288   7.299   3.708   8.498 -0.3587 -0.3731 -0.4335
  147SAPE  H16X16289   7.353   3.777   8.567 -1.0599 -1.0663  0.8458
  147SAPE  H16Y16290   7.189   3.718   8.512 -0.1841 -0.2605  1.1053
  147SAPE  C31716291   7.316   3.725   8.351 -0.7826  0.3447  0.0207
  147SAPE  H17X16292   7.425   3.710   8.333 -0.4302  0.0524  2.1515
  147SAPE  H17Y16293   7.289   3.826   8.315  1.0335  1.6297  2.0358
  147SAPE  C31816294   7.238   3.624   8.265  0.0696  0.0305 -0.3230
  147SAPE  H18X16295   7.238   3.518   8.297 -0.4504  0.5727  1.6148
  147SAPE  H18Y16296   7.255   3.627   8.155  2.2674 -1.0845 -0.0698
  147SAPE  H18Z16297   7.136   3.664   8.284  1.3301  1.5132  4.9241
  148SAPE     N16298   1.197   5.062  10.978  0.1548 -0.1468 -0.9920
  148SAPE   HN116299   1.227   5.145  10.923 -0.8465 -0.2568 -1.7531
  148SAPE   HN216300   1.093   5.055  10.982  0.2423 -0.9634  2.1975
  148SAPE   HN316301   1.225   5.080  11.076 -1.7552  0.4540 -0.5149
  148SAPE   C1216302   1.255   4.933  10.920 -0.9797 -0.1181 -0.5466
  148SAPE  H12A16303   1.194   4.911  10.830 -0.9081  3.1833 -1.5349
  148SAPE  H12B16304   1.252   4.856  11.001 -0.7498  0.4620  0.0211
  148SAPE   C1116305   1.398   4.952  10.861  0.3806  0.5770  0.1394
  148SAPE  H11A16306   1.426   4.863  10.801  1.8963  0.5838  0.7865
  148SAPE  H11B16307   1.472   4.965  10.943 -0.1584 -0.3275  0.7970
  148SAPE     P16308   1.419   5.069  10.627 -0.3895  0.0083 -0.3632
  148SAPE   O1316309   1.374   5.198  10.571 -0.4025 -0.0369  0.9781
  148SAPE   O1416310   1.563   5.039  10.614 -0.0381  0.0852  0.6875
  148SAPE   O1216311   1.390   5.073  10.780 -0.0168  0.2042  0.5639
  148SAPE   O1116312   1.318   4.955  10.569 -0.5602 -0.5329 -0.6028
  148SAPE    C116313   1.180   4.972  10.557 -0.0451  0.0412  0.0162
  148SAPE    HA16314   1.118   4.915  10.629 -2.6434  3.7859  1.0547
  148SAPE    HB16315   1.140   5.074  10.578 -3.7783 -0.7230 -2.3458
  148SAPE    C216316   1.139   4.947  10.411 -0.2256 -0.3461  0.1784
  148SAPE    HS16317   1.032   4.978  10.407 -0.5837 -1.6340 -1.4140
  148SAPE   O2116318   1.143   4.804  10.386 -0.2604 -0.5793 -0.9808
  148SAPE   C2116319   1.051   4.723  10.439  0.3626  0.1932  0.6337
  148SAPE   O2216320   0.961   4.752  10.523 -0.8497 -0.0217 -0.0298
  148SAPE   C2216321   1.081   4.586  10.375 -0.2267  0.4993  0.4447
  148SAPE   H2R16322   1.189   4.560  10.372 -0.4573 -0.3857 -1.8576
  148SAPE   H2S16323   1.027   4.501  10.423  1.9014 -1.0383  0.2792
  148SAPE    C316324   1.232   5.024  10.310 -0.7742  0.2519  0.6810
  148SAPE    HX16325   1.340   5.006  10.331 -0.2334  0.8405 -1.3623
  148SAPE    HY16326   1.224   5.135  10.316  0.2536  0.3780  0.0255
  148SAPE   O3116327   1.207   4.986  10.171  0.2553  0.0907 -0.1420
  148SAPE   C3116328   1.274   4.885  10.121  0.7635  0.1532  0.5788
  148SAPE   O3216329   1.349   4.813  10.184 -0.0266  0.5160  0.6555
  148SAPE   C3216330   1.229   4.875   9.971  1.4168  0.2641 -0.2048
  148SAPE   H2X16331   1.250   4.974   9.924  2.9870 -0.3072 -0.7705
  148SAPE   H2Y16332   1.120   4.857   9.963  1.4672 -1.5892  2.1926
  148SAPE   C2316333   1.048   4.580  10.223  0.2837  0.0090  0.2202
  148SAPE   H3R16334   1.045   4.476  10.184  0.6965 -0.4480  1.3587
  148SAPE   H3S16335   1.136   4.631  10.179  0.8175  0.5676  1.8443
  148SAPE   C2416336   0.915   4.650  10.181  0.0316 -0.4496 -0.4149
  148SAPE   H4R16337   0.911   4.672  10.072 -0.5352  1.2983 -0.0674
  148SAPE   H4S16338   0.912   4.744  10.240 -0.3244  0.0822 -1.2548
  148SAPE   C2516339   0.805   4.552  10.222 -0.2256  0.0880 -0.4100
  148SAPE   H5R16340   0.802   4.520  10.327 -0.2932 -1.5672 -0.8753
  148SAPE   C2616341   0.712   4.500  10.140  0.2127 -0.5052  0.4394
  148SAPE   H6R16342   0.640   4.431  10.187 -0.8133  0.3355  0.1347
  148SAPE   C2716343   0.699   4.527   9.988  0.5250  0.1756  0.4691
  148SAPE   H7R16344   0.656   4.431   9.952  0.7611 -0.5257  1.9791
  148SAPE   H7S16345   0.804   4.529   9.951  0.2595  0.7417 -0.2783
  148SAPE   C2816346   0.624   4.645   9.934  0.2979 -0.5431  0.1771
  148SAPE   H8R16347   0.540   4.684   9.994  0.9992  0.5737  0.4556
  148SAPE   C2916348   0.650   4.694   9.809  0.3124 -0.1100 -0.4821
  148SAPE   H9R16349   0.611   4.793   9.781 -0.2029 -0.6117 -1.5949
  148SAPE  C21016350   0.740   4.644   9.697  0.3956  0.0680  0.2192
  148SAPE  H10R16351   0.680   4.604   9.612  0.5155 -1.3907  0.7865
  148SAPE  H10S16352   0.804   4.554   9.714  0.5080  0.0947 -0.0564
  148SAPE  C21116353   0.834   4.755   9.656 -0.0816  0.7264  0.3174
  148SAPE  H11R16354   0.918   4.771   9.726  1.6138 -1.2866 -1.1301
  148SAPE  C21216355   0.815   4.832   9.541  0.0406  0.2021  0.2841
  148SAPE  H12R16356   0.879   4.920   9.524  0.9436 -0.3080  0.9387
  148SAPE  C21316357   0.699   4.822   9.445  0.1123  0.1073 -0.8200
  148SAPE  H13R16358   0.653   4.918   9.415 -1.5631 -0.4242 -0.0286
  148SAPE  H13S16359   0.616   4.771   9.498 -1.0672  2.1208 -0.6519
  148SAPE  C21416360   0.746   4.744   9.322  0.2523  0.5554 -0.4640
  148SAPE  H14R16361   0.788   4.642   9.335 -3.1172 -0.5084  5.3890
  148SAPE  C21516362   0.731   4.771   9.193 -0.4439 -1.4747  0.1540
  148SAPE  H15R16363   0.787   4.710   9.122 -0.1211 -0.6773 -0.2857
  148SAPE  C21616364   0.674   4.901   9.137 -0.3934 -0.0776  0.4598
  148SAPE  H16R16365   0.644   4.975   9.215  1.2336  1.2300 -0.0835
  148SAPE  H16S16366   0.581   4.879   9.081  1.1895 -1.5323 -1.7885
  148SAPE  C21716367   0.769   4.968   9.043 -0.2963  0.7311  0.3741
  148SAPE  H17R16368   0.862   4.997   9.098  1.0705 -1.9729 -0.3089
  148SAPE  H17S16369   0.718   5.060   9.007 -0.6389  0.3789 -0.0547
  148SAPE  C21816370   0.800   4.880   8.917  0.0030 -0.1165 -0.6895
  148SAPE  H18R16371   0.707   4.857   8.862  0.3524  0.5809 -1.5879
  148SAPE  H18S16372   0.865   4.796   8.950 -0.8170 -1.0138 -1.3253
  148SAPE  C21916373   0.889   4.973   8.830 -0.4122  0.0613  0.4800
  148SAPE  H19R16374   0.991   4.979   8.872 -0.2064  0.1649 -0.0297
  148SAPE  H19S16375   0.834   5.069   8.833  0.2518  0.4447  0.4473
  148SAPE  C22016376   0.907   4.919   8.689  0.2171 -0.0365  1.0155
  148SAPE  H20R16377   0.962   4.996   8.631  1.0567  0.3447  2.2935
  148SAPE  H20S16378   0.808   4.896   8.644  0.5200  1.6590 -0.6282
  148SAPE  H20T16379   0.973   4.829   8.689 -0.7219 -0.7608 -0.1483
  148SAPE   C3316380   1.295   4.757   9.899 -1.0233 -0.0071 -0.3518
  148SAPE   H3X16381   1.266   4.661   9.947  0.1458 -0.2433 -0.0974
  148SAPE   H3Y16382   1.404   4.763   9.917 -0.4691 -1.7134 -2.6984
  148SAPE   C3416383   1.261   4.741   9.753  0.0858  0.1963 -0.3482
  148SAPE   H4X16384   1.151   4.752   9.753  0.0164 -0.3732  0.3572
  148SAPE   H4Y16385   1.298   4.638   9.731  3.4217  0.1396  4.0507
  148SAPE   C3516386   1.330   4.843   9.667  0.7198  0.2471  0.4910
  148SAPE   H5X16387   1.440   4.831   9.679  0.9371  0.1837 -1.3122
  148SAPE   H5Y16388   1.303   4.944   9.703  0.2830  0.3140 -0.0157
  148SAPE   C3616389   1.299   4.827   9.515 -0.3181 -0.0163 -0.1205
  148SAPE   H6X16390   1.332   4.732   9.469  2.7519  2.2891 -3.2248
  148SAPE   H6Y16391   1.354   4.905   9.458 -1.4056  1.9910  1.4218
  148SAPE   C3716392   1.149   4.827   9.484  0.7170  0.0659  0.3272
  148SAPE   H7X16393   1.098   4.919   9.520 -2.6705 -2.4701  2.5371
  148SAPE   H7Y16394   1.090   4.743   9.525 -0.2676 -0.2608 -1.6225
  148SAPE   C3816395   1.124   4.831   9.329  0.0197  0.1882  0.1833
  148SAPE   H8X16396   1.184   4.911   9.281 -1.4026  0.5489 -1.0730
  148SAPE   H8Y16397   1.018   4.859   9.310  0.6770  3.1884  0.5047
  148SAPE   C3916398   1.172   4.706   9.259  0.3362 -0.0721  0.2576
  148SAPE   H9X16399   1.138   4.617   9.317  0.0590 -0.0677  0.1032
  148SAPE   H9Y16400   1.281   4.694   9.275  0.0314  0.5766  3.4853
  148SAPE  C31016401   1.120   4.690   9.109 -0.0179  0.0291 -0.3740
  148SAPE  H10X16402   1.185   4.754   9.046  0.8911 -0.6062 -0.0971
  148SAPE  H10Y16403   1.015   4.726   9.109 -0.5785 -1.4897  0.9176
  148SAPE  C31116404   1.127   4.547   9.055  0.0407 -0.6183  0.2146
  148SAPE  H11X16405   1.094   4.471   9.129  0.4705 -1.8653 -0.8392
  148SAPE  H11Y16406   1.233   4.515   9.040 -0.4549 -1.9150 -0.6840
  148SAPE  C31216407   1.054   4.526   8.923 -0.3642  0.4766  0.0560
  148SAPE  H12X16408   1.122   4.556   8.841  1.1265 -0.1729  1.0208
  148SAPE  H12Y16409   0.964   4.591   8.938  0.6225  1.5602  1.5446
  148SAPE  C31316410   1.029   4.373   8.904  0.0547 -0.3113 -0.0664
  148SAPE  H13X16411   0.984   4.335   8.999  2.6760 -0.0163  1.3921
  148SAPE  H13Y16412   1.125   4.318   8.901 -1.0236 -2.3408  0.3730
  148SAPE  C31416413   0.970   4.341   8.766  0.7700  0.0844 -0.3792
  148SAPE  H14X16414   1.040   4.375   8.686  1.9219 -3.2220 -0.9593
  148SAPE  H14Y16415   0.875   4.395   8.746  0.3719 -1.2549 -2.4198
  148SAPE  C31516416   0.947   4.185   8.764 -0.3054 -0.1411 -0.1829
  148SAPE  H15X16417   0.889   4.145   8.851 -0.3192  3.4438  1.6187
  148SAPE  H15Y16418   1.047   4.137   8.765 -0.6159 -0.7966  0.8692
  148SAPE  C31616419   0.889   4.129   8.632  0.7095  0.7652 -0.7754
  148SAPE  H16X16420   0.968   4.135   8.554 -0.4372  1.9893 -1.8939
  148SAPE  H16Y16421   0.804   4.186   8.588  0.9249  1.8764  0.1759
  148SAPE  C31716422   0.847   3.983   8.637 -0.0101 -0.3859 -0.4195
  148SAPE  H17X16423   0.755   3.970   8.698 -0.5035  3.1762 -0.1577
  148SAPE  H17Y16424   0.928   3.916   8.672 -0.9301 -1.8671 -1.0378
  148SAPE  C31816425   0.807   3.931   8.503 -0.1627 -0.1663  0.1446
  148SAPE  H18X16426   0.768   3.829   8.518  1.0020 -0.5710  0.5573
  148SAPE  H18Y16427   0.884   3.949   8.424 -0.9976  1.5546 -0.3259
  148SAPE  H18Z16428   0.720   3.992   8.469  0.5241  1.4983  1.2093
  149SAPE     N16429   2.211   6.513  10.984  0.0760 -0.0153 -0.4025
  149SAPE   HN116430   2.276   6.500  11.064 -1.4057 -0.4278  0.7805
  149SAPE   HN216431   2.180   6.612  10.982 -1.9535 -0.6093 -2.1328
  149SAPE   HN316432   2.133   6.446  11.002 -0.2199  0.1972 -0.8752
  149SAPE   C1216433   2.256   6.481  10.840  0.5347 -0.1587  0.2773
  149SAPE  H12A16434   2.294   6.376  10.834 -0.4392 -0.5047  0.0140
  149SAPE  H12B16435   2.335   6.555  10.814  0.9785 -0.8822 -0.5126
  149SAPE   C1116436   2.132   6.503  10.746 -0.9328  0.4613 -0.4188
  149SAPE  H11A16437   2.062   6.422  10.775 -1.6692  1.3974  0.5037
  149SAPE  H11B16438   2.161   6.489  10.640  1.3426 -0.3354  0.2349
  149SAPE     P16439   1.929   6.663  10.779  0.2801  0.2447 -0.1331
  149SAPE   O1316440   1.865   6.564  10.867 -0.6890 -0.3198 -0.0523
  149SAPE   O1416441   1.913   6.802  10.824 -0.4086  0.0049  0.2941
  149SAPE   O1216442   2.080   6.634  10.760  0.1303 -0.7922 -0.4486
  149SAPE   O1116443   1.864   6.645  10.644 -0.1242 -0.3538 -0.0637
  149SAPE    C116444   1.937   6.648  10.519 -0.0843  0.5903 -0.1204
  149SAPE    HA16445   2.003   6.559  10.524 -0.8713 -0.0802 -1.2937
  149SAPE    HB16446   1.863   6.619  10.442  0.3974  0.1921 -0.4374
  149SAPE    C216447   2.006   6.772  10.467  0.2323 -0.3352  0.0818
  149SAPE    HS16448   2.083   6.794  10.544  0.0866  0.2619  0.0545
  149SAPE   O2116449   1.907   6.883  10.465 -0.0753 -0.0978 -0.1720
  149SAPE   C2116450   1.963   7.002  10.448  0.9782 -0.5979  0.2516
  149SAPE   O2216451   2.077   7.021  10.476 -0.6972 -0.0598  0.1488
  149SAPE   C2216452   1.854   7.103  10.396 -0.8636  0.2778  1.0902
  149SAPE   H2R16453   1.764   7.044  10.366 -0.5755 -0.4575  1.6735
  149SAPE   H2S16454   1.817   7.167  10.478 -0.8068 -1.3528  2.4363
  149SAPE    C316455   2.080   6.752  10.331  0.9587 -0.5004  0.2551
  149SAPE    HX16456   2.148   6.665  10.325  2.3019  0.5768 -0.6618
  149SAPE    HY16457   2.141   6.843  10.311 -1.0689  0.7855 -0.3964
  149SAPE   O3116458   1.988   6.753  10.217 -0.6391 -0.3169  0.3590
  149SAPE   C3116459   1.967   6.644  10.158  0.2342  0.6631  0.1296
  149SAPE   O3216460   1.990   6.526  10.200 -0.3356  0.6006  0.0958
  149SAPE   C3216461   1.918   6.669  10.021 -0.2209 -0.0991  0.1459
  149SAPE   H2X16462   1.986   6.738   9.967  1.1479 -1.7156 -0.2756
  149SAPE   H2Y16463   1.818   6.718  10.027  0.1628  0.6746  0.2601
  149SAPE   C2316464   1.906   7.197  10.284  0.5581  0.2167 -0.0614
  149SAPE   H3R16465   2.012   7.223  10.302  0.5033 -0.5229  1.4297
  149SAPE   H3S16466   1.848   7.292  10.282  1.0857  0.5839 -2.9137
  149SAPE   C2416467   1.898   7.131  10.144 -0.4811  0.0992 -0.2456
  149SAPE   H4R16468   1.944   7.032  10.164  0.1325  0.7649  2.0108
  149SAPE   H4S16469   1.958   7.187  10.070 -1.8718 -0.4275 -1.8219
  149SAPE   C2516470   1.767   7.127  10.082 -0.3287  0.0732 -0.8691
  149SAPE   H5R16471   1.686   7.145  10.155 -0.3385  0.2857 -0.9326
  149SAPE   C2616472   1.725   7.115   9.960  0.1325  0.2505 -0.0633
  149SAPE   H6R16473   1.616   7.111   9.946  0.0164 -0.6798  1.0082
  149SAPE   C2716474   1.806   7.111   9.833 -0.3580 -0.2606 -0.4016
  149SAPE   H7R16475   1.915   7.108   9.856  0.4220  0.0433 -3.5195
  149SAPE   H7S16476   1.800   7.207   9.778 -0.9467 -0.0090  0.0997
  149SAPE   C2816477   1.765   7.000   9.748  0.4854  0.4060 -0.3654
  149SAPE   H8R16478   1.801   6.901   9.781 -0.8028  0.5181  1.5155
  149SAPE   C2916479   1.663   6.999   9.659  0.3417  0.9170 -0.7780
  149SAPE   H9R16480   1.647   6.905   9.604  2.3817 -0.0256  0.1331
  149SAPE  C21016481   1.572   7.107   9.621  0.0673 -0.5143 -0.0781
  149SAPE  H10R16482   1.562   7.180   9.703 -1.3699 -0.6544 -0.1001
  149SAPE  H10S16483   1.466   7.072   9.613 -0.5643  1.0266  1.1032
  149SAPE  C21116484   1.616   7.181   9.495  0.0460 -0.2782 -0.1851
  149SAPE  H11R16485   1.674   7.274   9.507 -1.6191  0.9006 -0.8024
  149SAPE  C21216486   1.613   7.138   9.364  0.0550 -0.2637 -0.0394
  149SAPE  H12R16487   1.650   7.204   9.284  2.9706  1.2236  2.3315
  149SAPE  C21316488   1.552   7.014   9.306 -1.1425  0.0547  0.5127
  149SAPE  H13R16489   1.491   6.966   9.385 -2.0504 -2.3426 -1.5057
  149SAPE  H13S16490   1.638   6.956   9.268 -0.9325  0.4050  0.4486
  149SAPE  C21416491   1.443   7.043   9.198  0.0331 -0.6543  0.0916
  149SAPE  H14R16492   1.351   7.093   9.229  1.5595  1.7645  0.9918
  149SAPE  C21516493   1.465   7.027   9.065  0.7043 -0.9844  0.1402
  149SAPE  H15R16494   1.381   7.057   9.000  0.0336  0.6514  1.6591
  149SAPE  C21616495   1.587   6.977   8.987 -0.3364 -0.3352 -0.0015
  149SAPE  H16R16496   1.663   6.942   9.060  0.7184 -0.7562 -1.2597
  149SAPE  H16S16497   1.632   7.057   8.924  0.5153 -0.4246  0.4859
  149SAPE  C21716498   1.543   6.847   8.914 -0.1411  0.3768  0.7196
  149SAPE  H17R16499   1.452   6.883   8.861 -0.5782 -0.4931  0.8630
  149SAPE  H17S16500   1.508   6.771   8.987  1.6951 -0.5805  0.6527
  149SAPE  C21816501   1.655   6.777   8.841 -0.4141  0.6563 -0.4258
  149SAPE  H18R16502   1.638   6.667   8.841  0.8029  0.4390 -2.1887
  149SAPE  H18S16503   1.751   6.789   8.896 -0.5123 -1.3038  0.2884
  149SAPE  C21916504   1.684   6.822   8.705 -0.4880  0.1083 -0.2868
  149SAPE  H19R16505   1.671   6.932   8.706  0.8190  0.2751 -0.0336
  149SAPE  H19S16506   1.600   6.800   8.635 -0.5101 -0.0870 -0.1998
  149SAPE  C22016507   1.817   6.778   8.631  0.1001  0.2359 -0.0296
  149SAPE  H20R16508   1.814   6.673   8.596  1.9954 -0.1660  0.8578
  149SAPE  H20S16509   1.909   6.808   8.686  2.2077 -1.5767 -2.3710
  149SAPE  H20T16510   1.824   6.842   8.540  0.3991  0.0741 -0.1203
  149SAPE   C3316511   1.913   6.541   9.927 -0.3408  0.1069  1.0029
  149SAPE   H3X16512   1.851   6.470   9.985  0.5316 -1.0197  0.5916
  149SAPE   H3Y16513   2.008   6.493   9.896  0.5615 -0.3676  4.1419
  149SAPE   C3416514   1.851   6.577   9.792 -0.0929  0.0643 -0.0101
  149SAPE   H4X16515   1.893   6.670   9.749 -0.1067  0.5979  1.0918
  149SAPE   H4Y16516   1.743   6.591   9.813  0.2332  2.5584  0.3375
  149SAPE   C3516517   1.847   6.463   9.694  0.6797 -0.4317 -0.2359
  149SAPE   H5X16518   1.821   6.370   9.749  0.5928  0.2924  0.9803
  149SAPE   H5Y16519   1.946   6.448   9.646  0.2411 -0.0287 -1.2895
  149SAPE   C3616520   1.741   6.487   9.586 -0.2716  0.6957 -0.4003
  149SAPE   H6X16521   1.634   6.497   9.614 -1.4999  0.5440 -4.3668
  149SAPE   H6Y16522   1.739   6.395   9.523  1.5291  1.0826 -1.0735
  149SAPE   C3716523   1.788   6.612   9.512 -0.0531  0.0328  0.6492
  149SAPE   H7X16524   1.899   6.613   9.510  0.0410 -1.6236 -3.1405
  149SAPE   H7Y16525   1.747   6.697   9.572 -2.4999 -0.2591 -0.5167
  149SAPE   C3816526   1.750   6.633   9.359  0.4578  0.4964 -0.9033
  149SAPE   H8X16527   1.797   6.732   9.337 -2.0294  2.1385  0.5976
  149SAPE   H8Y16528   1.640   6.646   9.352  0.5208  0.4785 -2.2897
  149SAPE   C3916529   1.805   6.519   9.273  0.1242  0.2774  0.1296
  149SAPE   H9X16530   1.762   6.420   9.301 -0.2835  0.6056  0.6988
  149SAPE   H9Y16531   1.915   6.524   9.286  0.1044  0.6138  0.1757
  149SAPE  C31016532   1.781   6.531   9.120  0.7329 -0.2158 -0.5680
  149SAPE  H10X16533   1.814   6.632   9.087  0.4046  0.0552 -0.0913
  149SAPE  H10Y16534   1.674   6.517   9.092  1.0302 -0.8522 -1.4336
  149SAPE  C31116535   1.867   6.431   9.047  0.9004  0.4433  0.3454
  149SAPE  H11X16536   1.829   6.330   9.073 -1.3538  1.2281  0.3110
  149SAPE  H11Y16537   1.969   6.424   9.090  0.6991  1.8658  1.0957
  149SAPE  C31216538   1.874   6.444   8.899  0.3226 -0.1559  0.2645
  149SAPE  H12X16539   1.942   6.531   8.894 -0.2600  0.4181  1.7681
  149SAPE  H12Y16540   1.775   6.466   8.853  1.1170  0.2125 -1.3365
  149SAPE  C31316541   1.931   6.316   8.822  0.6073 -0.1336  0.2431
  149SAPE  H13X16542   1.887   6.224   8.866  2.7856 -1.1402  0.4615
  149SAPE  H13Y16543   2.038   6.321   8.852  1.1133  0.0138 -1.4670
  149SAPE  C31416544   1.912   6.326   8.672  0.0415 -0.0618  0.0903
  149SAPE  H14X16545   1.952   6.424   8.637 -1.1220  0.5731  0.4741
  149SAPE  H14Y16546   1.803   6.329   8.653  0.1919  0.3757 -0.7967
  149SAPE  C31516547   1.971   6.211   8.590  0.1391  0.4331 -0.4030
  149SAPE  H15X16548   1.939   6.221   8.484 -0.4900 -1.8148 -0.4805
  149SAPE  H15Y16549   1.926   6.114   8.620  1.1460 -0.9223 -2.9430
  149SAPE  C31616550   2.120   6.195   8.596  0.2360 -0.2109  0.0082
  149SAPE  H16X16551   2.156   6.244   8.689  1.9912 -0.3625 -0.5538
  149SAPE  H16Y16552   2.152   6.265   8.515  0.1993  0.8528  0.8921
  149SAPE  C31716553   2.180   6.054   8.594 -0.0071 -0.2431 -0.3382
  149SAPE  H17X16554   2.130   5.999   8.677 -1.6179 -0.7356 -1.5731
  149SAPE  H17Y16555   2.289   6.061   8.612 -0.5054  0.2847  3.2390
  149SAPE  C31816556   2.164   5.975   8.464 -0.2774  0.7487  0.1238
  149SAPE  H18X16557   2.058   5.951   8.439 -0.1013  0.8676 -0.7706
  149SAPE  H18Y16558   2.223   5.882   8.467  0.4410  1.2141  1.1033
  149SAPE  H18Z16559   2.195   6.036   8.376  1.8053 -2.4496 -1.5401
  150SAPE     N16560   4.612   5.692  10.820 -0.4058 -0.1994  0.5449
  150SAPE   HN116561   4.526   5.743  10.791 -0.8221 -0.5988  1.0591
  150SAPE   HN216562   4.601   5.590  10.802  0.3406  0.2548 -3.3289
  150SAPE   HN316563   4.623   5.695  10.923  3.3023  0.0785  0.3007
  150SAPE   C1216564   4.743   5.728  10.744  0.4546  0.6774 -0.0959
  150SAPE  H12A16565   4.765   5.658  10.660 -1.1151  1.3870 -1.1470
  150SAPE  H12B16566   4.825   5.741  10.818  0.5860 -0.3075 -0.0478
  150SAPE   C1116567   4.719   5.857  10.670  0.6995 -0.4358 -0.5131
  150SAPE  H11A16568   4.631   5.867  10.602 -0.5943  0.9843  1.2768
  150SAPE  H11B16569   4.805   5.870  10.600 -0.3053 -0.1047 -1.7234
  150SAPE     P16570   4.720   6.108  10.718  0.1412 -0.3337  0.3003
  150SAPE   O1316571   4.595   6.147  10.651 -0.6188  0.4630  0.0688
  150SAPE   O1416572   4.763   6.190  10.829 -0.4346 -0.2050 -1.0159
  150SAPE   O1216573   4.704   5.961  10.762 -0.8231  0.0786 -0.0917
  150SAPE   O1116574   4.838   6.111  10.613 -0.2061 -0.1712 -0.3042
  150SAPE    C116575   4.963   6.165  10.638  0.5551  0.0142  0.0269
  150SAPE    HA16576   4.963   6.257  10.701  0.5420 -0.2372  0.3979
  150SAPE    HB16577   5.024   6.093  10.696 -1.1447 -0.6239  1.1258
  150SAPE    C216578   5.036   6.191  10.506 -0.3774  0.6812 -0.0569
  150SAPE    HS16579   5.111   6.269  10.531  0.8337 -0.6798  0.7407
  150SAPE   O2116580   4.942   6.232  10.406  0.3839 -0.2728  0.6583
  150SAPE   C2116581   4.944   6.357  10.379 -0.7748 -0.3063 -0.1143
  150SAPE   O2216582   5.030   6.439  10.419  0.2257 -0.9316  0.0505
  150SAPE   C2216583   4.817   6.388  10.301 -0.6403  0.2923  0.1310
  150SAPE   H2R16584   4.737   6.313  10.319 -1.2879  0.9395  0.0150
  150SAPE   H2S16585   4.767   6.479  10.340  0.3176 -0.2615  2.8747
  150SAPE    C316586   5.100   6.059  10.462 -0.3252  0.2433 -0.1779
  150SAPE    HX16587   5.015   5.987  10.465  0.3807 -0.6259  2.4362
  150SAPE    HY16588   5.171   6.024  10.541 -2.5390 -1.8763  1.0129
  150SAPE   O3116589   5.164   6.069  10.326  0.2851 -0.2623 -0.3202
  150SAPE   C3116590   5.088   6.011  10.231 -0.3372 -0.1874 -0.2175
  150SAPE   O3216591   4.978   5.964  10.247 -0.1675 -0.1141 -0.2247
  150SAPE   C3216592   5.171   6.015  10.099  0.5962 -0.2349  0.3896
  150SAPE   H2X16593   5.276   5.992  10.127  1.1914  1.2354 -0.4801
  150SAPE   H2Y16594   5.167   6.119  10.060  0.9405  0.5224  2.2670
  150SAPE   C2316595   4.849   6.394  10.144  0.5573  0.0516  0.3333
  150SAPE   H3R16596   4.937   6.458  10.121  1.1524 -0.8794 -0.0425
  150SAPE   H3S16597   4.769   6.450  10.091  0.9719  1.3453  1.0285
  150SAPE   C2416598   4.859   6.261  10.066 -0.3348 -0.2507 -1.2624
  150SAPE   H4R16599   4.936   6.196  10.114  1.2411  1.3760 -1.4390
  150SAPE   H4S16600   4.895   6.288   9.964 -2.2106 -2.3555 -2.5684
  150SAPE   C2516601   4.722   6.194  10.053 -0.4353 -0.6079 -0.0652
  150SAPE   H5R16602   4.641   6.239  10.112  1.0598 -1.3499  2.6958
  150SAPE   C2616603   4.693   6.102   9.965 -0.3886  0.2072  0.5302
  150SAPE   H6R16604   4.596   6.049   9.958  0.3777 -1.2829  0.8051
  150SAPE   C2716605   4.785   6.029   9.860 -0.4109 -0.8953 -0.1544
  150SAPE   H7R16606   4.804   5.921   9.881 -0.7191 -1.1235 -0.9929
  150SAPE   H7S16607   4.888   6.071   9.869 -0.8376 -0.1676  1.7621
  150SAPE   C2816608   4.736   6.028   9.719  0.1966  0.0904 -0.7040
  150SAPE   H8R16609   4.656   5.954   9.701 -2.8688  3.6743 -3.2419
  150SAPE   C2916610   4.770   6.096   9.610 -0.5504  0.5477  0.0782
  150SAPE   H9R16611   4.712   6.089   9.517 -0.6506  1.0100  0.1015
  150SAPE  C21016612   4.877   6.201   9.605 -0.4290  0.1464  0.1874
  150SAPE  H10R16613   4.945   6.161   9.527 -0.8864  1.3140 -0.8499
  150SAPE  H10S16614   4.932   6.212   9.701  1.6652 -2.8250 -0.5308
  150SAPE  C21116615   4.824   6.328   9.553  0.3968 -0.3579 -0.0568
  150SAPE  H11R16616   4.792   6.397   9.633 -1.8888  0.4908 -1.5930
  150SAPE  C21216617   4.801   6.367   9.423  0.3660 -0.2778  0.2444
  150SAPE  H12R16618   4.747   6.461   9.406  0.4378 -0.2491  0.1739
  150SAPE  C21316619   4.825   6.270   9.313 -0.9822  0.0764 -0.0582
  150SAPE  H13R16620   4.842   6.164   9.342 -2.4635 -0.2588 -0.3071
  150SAPE  H13S16621   4.917   6.306   9.263 -1.1577  0.1473 -0.3349
  150SAPE  C21416622   4.721   6.253   9.204  0.0762  0.1510  0.1877
  150SAPE  H14R16623   4.640   6.181   9.223 -0.4740  0.4344 -0.9885
  150SAPE  C21516624   4.703   6.331   9.095 -0.0264  0.2774  0.1386
  150SAPE  H15R16625   4.616   6.316   9.030 -0.1798 -2.1082  0.8155
  150SAPE  C21616626   4.784   6.452   9.062  0.4254  0.0334 -0.7826
  150SAPE  H16R16627   4.826   6.502   9.152  0.5712  1.0618 -1.4125
  150SAPE  H16S16628   4.703   6.515   9.019  0.0749  0.2609  0.1816
  150SAPE  C21716629   4.881   6.431   8.942 -0.1870  0.4762  0.7336
  150SAPE  H17R16630   4.937   6.343   8.981 -4.4413 -2.6432  0.4848
  150SAPE  H17S16631   4.959   6.510   8.934  0.0292  0.2219  0.3007
  150SAPE  C21816632   4.825   6.387   8.806 -0.0136  0.3727  0.1579
  150SAPE  H18R16633   4.784   6.477   8.756  1.5686  2.3189  2.1661
  150SAPE  H18S16634   4.752   6.304   8.821  2.3222 -1.5786  1.5360
  150SAPE  C21916635   4.935   6.347   8.703  1.2754 -0.1476  0.0030
  150SAPE  H19R16636   4.994   6.264   8.746  0.5916 -0.2588  0.7453
  150SAPE  H19S16637   5.001   6.435   8.690  0.5195  0.2225 -1.6454
  150SAPE  C22016638   4.877   6.312   8.566 -0.2153 -0.7250 -0.1304
  150SAPE  H20R16639   4.814   6.220   8.557  0.5126 -1.1232 -1.4534
  150SAPE  H20S16640   4.959   6.295   8.493 -0.4120 -0.5469 -0.3967
  150SAPE  H20T16641   4.828   6.400   8.519  0.9150  0.0010  0.0304
  150SAPE   C3316642   5.132   5.898  10.003 -0.5290 -0.4331  0.1874
  150SAPE   H3X16643   5.021   5.906   9.996 -0.4795  2.1452  1.1041
  150SAPE   H3Y16644   5.164   5.801  10.046 -0.2729 -0.5315 -0.2259
  150SAPE   C3416645   5.216   5.907   9.869  0.2076 -0.7622  0.7363
  150SAPE   H4X16646   5.323   5.879   9.876  1.1623  2.5516  1.3449
  150SAPE   H4Y16647   5.199   6.011   9.832 -0.3833 -0.2307  2.3635
  150SAPE   C3516648   5.156   5.808   9.766  0.5929  0.5856 -0.6713
  150SAPE   H5X16649   5.045   5.808   9.765  0.5220 -1.7276  0.0780
  150SAPE   H5Y16650   5.175   5.706   9.807  0.8708  0.5386 -0.9120
  150SAPE   C3616651   5.224   5.799   9.625  0.6421  0.5260 -0.4698
  150SAPE   H6X16652   5.225   5.693   9.591 -3.2516 -0.1874  1.1096
  150SAPE   H6Y16653   5.326   5.843   9.614  0.3773  1.1151 -0.5959
  150SAPE   C3716654   5.147   5.869   9.519 -0.1644 -0.2858  0.1170
  150SAPE   H7X16655   5.157   5.979   9.532 -0.4107 -0.2291 -0.1696
  150SAPE   H7Y16656   5.041   5.838   9.522  0.2075 -1.5581  1.4518
  150SAPE   C3816657   5.205   5.846   9.376 -0.5003 -0.0218 -0.2862
  150SAPE   H8X16658   5.194   5.738   9.353  0.3212 -0.2358  0.2668
  150SAPE   H8Y16659   5.312   5.874   9.377 -0.7888  1.2567 -1.4983
  150SAPE   C3916660   5.137   5.921   9.257 -0.3455 -0.3995 -0.0014
  150SAPE   H9X16661   5.196   5.889   9.168 -0.4886  0.7012 -0.5019
  150SAPE   H9Y16662   5.155   6.029   9.279 -0.1080 -0.1080 -1.5143
  150SAPE  C31016663   4.992   5.904   9.221 -0.7613 -0.3340 -0.5037
  150SAPE  H10X16664   4.943   5.964   9.300 -1.6306  1.6299 -2.4097
  150SAPE  H10Y16665   4.959   5.799   9.237  1.3825 -1.2368 -1.5626
  150SAPE  C31116666   4.962   5.969   9.082  0.2707  0.6826  0.3451
  150SAPE  H11X16667   5.030   5.919   9.010 -1.2656  2.0881 -2.2358
  150SAPE  H11Y16668   4.990   6.076   9.097  3.1174 -0.1325  1.4472
  150SAPE  C31216669   4.819   5.952   9.032 -0.0125  0.4834 -0.1142
  150SAPE  H12X16670   4.748   5.981   9.112 -0.9116 -0.0964 -0.6822
  150SAPE  H12Y16671   4.791   5.845   9.018 -1.9659  1.0732 -1.1560
  150SAPE  C31316672   4.779   6.018   8.905  0.0130 -0.0632  0.4252
  150SAPE  H13X16673   4.773   6.128   8.923 -2.8727  0.3794 -2.3044
  150SAPE  H13Y16674   4.677   5.985   8.874 -0.6451 -0.6830  3.0104
  150SAPE  C31416675   4.862   5.984   8.780 -0.1984 -0.1694  0.3200
  150SAPE  H14X16676   4.966   6.017   8.800 -0.5858  0.2871  1.6895
  150SAPE  H14Y16677   4.832   6.047   8.694  0.7081  1.1628  0.9561
  150SAPE  C31516678   4.847   5.837   8.739 -0.0868 -0.4803 -0.6608
  150SAPE  H15X16679   4.760   5.785   8.786  0.1532  0.9469  1.4863
  150SAPE  H15Y16680   4.937   5.793   8.787 -0.0700  0.6912  0.4193
  150SAPE  C31616681   4.872   5.807   8.589  0.2740  0.1935 -0.1085
  150SAPE  H16X16682   4.977   5.827   8.556 -0.0538  0.3717 -1.0813
  150SAPE  H16Y16683   4.799   5.872   8.536  0.0918  0.4389  0.4441
  150SAPE  C31716684   4.841   5.653   8.573  0.2155 -0.4967  0.2299
  150SAPE  H17X16685   4.740   5.627   8.610  0.5609  0.3319  1.8434
  150SAPE  H17Y16686   4.921   5.594   8.624  0.7854 -1.5337 -1.7842
  150SAPE  C31816687   4.835   5.601   8.429  0.7715 -0.5778 -0.1128
  150SAPE  H18X16688   4.933   5.614   8.380  1.4677 -0.7728  1.1964
  150SAPE  H18Y16689   4.762   5.654   8.363  1.4528 -1.8279 -1.9508
  150SAPE  H18Z16690   4.805   5.493   8.428 -1.5983 -0.0342  1.7106
  151SAPE     N16691   3.543   2.533  10.517 -0.1051  0.4858  0.7362
  151SAPE   HN116692   3.481   2.474  10.458  1.2217  0.3833 -0.5951
  151SAPE   HN216693   3.633   2.483  10.504 -1.2258 -0.8144 -3.1161
  151SAPE   HN316694   3.507   2.505  10.611 -2.5228  0.7388 -0.0374
  151SAPE   C1216695   3.559   2.677  10.489  0.4267  0.6167 -0.5055
  151SAPE  H12A16696   3.567   2.731  10.585 -0.9336 -0.5104  0.2840
  151SAPE  H12B16697   3.464   2.708  10.440  1.0004  2.8251 -0.3061
  151SAPE   C1116698   3.679   2.712  10.401  0.0629  0.1261 -0.6563
  151SAPE  H11A16699   3.694   2.822  10.403  0.5016  0.1044  2.5118
  151SAPE  H11B16700   3.651   2.691  10.295  0.5269 -0.6345 -0.6328
  151SAPE     P16701   3.885   2.733  10.556 -0.2793  0.2331 -0.0409
  151SAPE   O1316702   3.863   2.875  10.565  0.1326  0.1206 -0.0939
  151SAPE   O1416703   3.864   2.658  10.679  0.4367 -0.0385 -1.1147
  151SAPE   O1216704   3.806   2.658  10.446  0.4280 -0.5164  0.1939
  151SAPE   O1116705   4.038   2.703  10.511 -0.4853 -0.1146 -0.0783
  151SAPE    C116706   4.060   2.656  10.381 -0.1993  0.5086  0.3618
  151SAPE    HA16707   3.981   2.604  10.321  0.6650 -0.7838  0.3029
  151SAPE    HB16708   4.100   2.742  10.323 -0.6801  1.9888  2.1300
  151SAPE    C216709   4.171   2.551  10.378 -0.7080 -0.3015 -0.0054
  151SAPE    HS16710   4.256   2.587  10.442 -1.7496  4.1747 -0.7634
  151SAPE   O2116711   4.219   2.552  10.240  0.1726 -0.1774 -0.2848
  151SAPE   C2116712   4.320   2.473  10.215 -0.3547  0.2161 -0.1103
  151SAPE   O2216713   4.393   2.421  10.300  0.2480  0.6983  0.2157
  151SAPE   C2216714   4.349   2.480  10.068 -0.1995  0.2606  0.6425
  151SAPE   H2R16715   4.250   2.487  10.017  0.3764  2.3628 -0.3115
  151SAPE   H2S16716   4.404   2.576  10.061 -2.2205  1.4827  0.5683
  151SAPE    C316717   4.128   2.413  10.434 -0.1520 -0.7815  0.6946
  151SAPE    HX16718   4.105   2.431  10.541  2.0671 -2.0357  1.4538
  151SAPE    HY16719   4.213   2.341  10.431  1.5509  1.1701 -0.7676
  151SAPE   O3116720   4.001   2.379  10.367 -0.7312  0.2471  0.3242
  151SAPE   C3116721   4.023   2.309  10.252 -0.8311 -0.7370  0.0628
  151SAPE   O3216722   4.127   2.251  10.223  0.2035 -0.0816  0.4434
  151SAPE   C3216723   3.897   2.312  10.167 -0.3846  0.1665  0.2292
  151SAPE   H2X16724   3.890   2.419  10.139  1.3369  0.2727  0.1121
  151SAPE   H2Y16725   3.817   2.277  10.236  0.2884 -0.2475  0.8242
  151SAPE   C2316726   4.437   2.369  10.022 -0.1903 -0.6964  0.1281
  151SAPE   H3R16727   4.394   2.272  10.056  0.7939 -1.7374 -1.4568
  151SAPE   H3S16728   4.537   2.378  10.069  0.0626  2.7833 -0.8214
  151SAPE   C2416729   4.447   2.391   9.871 -0.1209  0.6924 -0.4856
  151SAPE   H4R16730   4.472   2.494   9.840  1.3322  0.7768  0.8629
  151SAPE   H4S16731   4.352   2.371   9.817 -1.3938  0.1981  1.8474
  151SAPE   C2516732   4.545   2.291   9.816  0.0342 -0.5933 -0.7673
  151SAPE   H5R16733   4.589   2.225   9.892 -0.6385  0.9092  1.0104
  151SAPE   C2616734   4.586   2.291   9.683  0.1398  0.2365 -0.6172
  151SAPE   H6R16735   4.659   2.212   9.663  1.1533  0.2992  2.2936
  151SAPE   C2716736   4.528   2.389   9.577  0.0293 -0.1661 -0.2717
  151SAPE   H7R16737   4.610   2.445   9.527 -0.8770  2.7535  1.2816
  151SAPE   H7S16738   4.469   2.469   9.627  0.7347  1.3141 -1.7045
  151SAPE   C2816739   4.432   2.319   9.480 -0.1310 -0.1141 -0.3591
  151SAPE   H8R16740   4.326   2.333   9.505  0.1346 -1.8331  2.1417
  151SAPE   C2916741   4.468   2.232   9.379  0.8600 -0.1440 -0.1182
  151SAPE   H9R16742   4.384   2.197   9.317 -1.2678  0.9934  1.9249
  151SAPE  C21016743   4.605   2.180   9.334  0.2990 -0.3028  0.5992
  151SAPE  H10R16744   4.688   2.229   9.388 -2.5404  2.6245  2.7087
  151SAPE  H10S16745   4.615   2.224   9.233 -2.0356 -0.0852  0.4025
  151SAPE  C21116746   4.614   2.029   9.346 -0.0609 -0.3641  0.5035
  151SAPE  H11R16747   4.600   1.985   9.446  0.1840  0.0348  0.7169
  151SAPE  C21216748   4.641   1.943   9.253 -0.7229  0.9632  0.0695
  151SAPE  H12R16749   4.657   1.838   9.281 -3.2195  0.0648 -1.5366
  151SAPE  C21316750   4.682   1.975   9.115  0.0079 -0.3566 -0.4994
  151SAPE  H13R16751   4.788   1.941   9.111 -0.0568 -0.8154  0.9880
  151SAPE  H13S16752   4.698   2.084   9.102  4.1712 -0.5940  0.9228
  151SAPE  C21416753   4.612   1.912   9.004  0.3879 -0.0995  0.8220
  151SAPE  H14R16754   4.551   1.824   9.029  0.9608 -0.8476 -0.3412
  151SAPE  C21516755   4.621   1.949   8.877  0.6544  0.5118  0.4133
  151SAPE  H15R16756   4.557   1.894   8.807  1.6503 -0.0567 -0.0699
  151SAPE  C21616757   4.700   2.060   8.818 -0.5152  0.5596  0.0716
  151SAPE  H16R16758   4.744   2.122   8.899  0.6392  2.7675 -2.0921
  151SAPE  H16S16759   4.630   2.125   8.761  0.1895  1.0990 -0.1930
  151SAPE  C21716760   4.803   2.012   8.720  0.2687  1.0879  0.7471
  151SAPE  H17R16761   4.852   2.101   8.675  2.3144 -0.7094 -0.8147
  151SAPE  H17S16762   4.746   1.962   8.638  2.0192 -1.1552  0.8245
  151SAPE  C21816763   4.916   1.924   8.782  0.4752 -0.5950  0.1284
  151SAPE  H18R16764   4.870   1.831   8.819 -1.4224  0.2558  0.0167
  151SAPE  H18S16765   4.941   1.979   8.875 -2.3239  1.3695 -0.1416
  151SAPE  C21916766   5.029   1.894   8.689  0.0316 -0.3002  0.3976
  151SAPE  H19R16767   5.077   1.993   8.672  2.3761 -1.1239  1.7964
  151SAPE  H19S16768   4.997   1.850   8.592  0.0690  1.3905 -0.4084
  151SAPE  C22016769   5.144   1.811   8.745  0.5350  0.1287  0.5162
  151SAPE  H20R16770   5.176   1.847   8.845 -1.2267  2.1320  0.4075
  151SAPE  H20S16771   5.228   1.798   8.672 -0.4458 -0.4452 -0.5534
  151SAPE  H20T16772   5.094   1.713   8.764 -0.4744  0.6436  0.5656
  151SAPE   C3316773   3.913   2.226  10.038 -0.1919 -0.3816 -0.1398
  151SAPE   H3X16774   3.817   2.186   9.998  0.3657 -0.4380 -1.4560
  151SAPE   H3Y16775   3.981   2.139  10.048 -0.9975 -1.3634 -2.6194
  151SAPE   C3416776   3.987   2.309   9.932  0.1516  1.0766  0.8187
  151SAPE   H4X16777   4.087   2.342   9.966  0.0988  1.8580  0.2462
  151SAPE   H4Y16778   3.931   2.401   9.907  0.0832  0.5851 -1.0497
  151SAPE   C3516779   3.991   2.210   9.819 -0.3797 -0.2715  0.4858
  151SAPE   H5X16780   3.888   2.173   9.801  0.4336 -2.6907  0.5292
  151SAPE   H5Y16781   4.046   2.118   9.848 -1.3307 -0.6595  1.1076
  151SAPE   C3616782   4.045   2.272   9.685 -0.2845  0.3281 -0.2216
  151SAPE   H6X16783   4.151   2.303   9.701  0.3464 -1.2022 -1.1741
  151SAPE   H6Y16784   3.975   2.355   9.660  0.1108  1.8623  3.1680
  151SAPE   C3716785   4.042   2.161   9.578 -0.6737 -0.1598  0.0570
  151SAPE   H7X16786   3.950   2.103   9.598  0.0785 -1.1802  0.6840
  151SAPE   H7Y16787   4.130   2.093   9.586 -0.7873 -0.1538  1.6369
  151SAPE   C3816788   4.028   2.223   9.440 -0.4569  0.1665 -0.4105
  151SAPE   H8X16789   4.110   2.297   9.427  1.8962 -1.7777  2.0588
  151SAPE   H8Y16790   3.927   2.267   9.430 -1.2136 -1.1347  1.1525
  151SAPE   C3916791   4.038   2.115   9.324  0.0311  0.6893 -0.2285
  151SAPE   H9X16792   3.960   2.037   9.344 -0.9002  1.4286 -0.8925
  151SAPE   H9Y16793   4.133   2.059   9.317  0.2457  1.1724 -1.4237
  151SAPE  C31016794   4.011   2.185   9.192  0.9744  0.8210 -0.1208
  151SAPE  H10X16795   4.105   2.244   9.183  1.2638  0.3102 -0.5109
  151SAPE  H10Y16796   3.920   2.247   9.176 -1.2211 -2.5907 -1.8189
  151SAPE  C31116797   4.005   2.075   9.087 -0.1850 -0.4064  0.2698
  151SAPE  H11X16798   3.939   1.992   9.120  0.3872 -0.4709  1.2727
  151SAPE  H11Y16799   4.102   2.022   9.090 -0.1799 -0.3811  0.6001
  151SAPE  C31216800   3.971   2.137   8.949 -0.2462  0.0401  0.0151
  151SAPE  H12X16801   4.053   2.212   8.941  0.6252 -1.0138 -1.4202
  151SAPE  H12Y16802   3.874   2.191   8.939 -0.2030  0.3507  1.1053
  151SAPE  C31316803   3.999   2.053   8.814 -0.1791  0.4020 -1.3100
  151SAPE  H13X16804   3.925   1.971   8.806 -1.3753  1.3272 -0.1640
  151SAPE  H13Y16805   4.098   2.010   8.841 -0.2015  0.6751 -0.7708
  151SAPE  C31416806   3.985   2.129   8.685  0.4702  0.1953 -0.1676
  151SAPE  H14X16807   4.057   2.213   8.692  1.1966 -0.2121 -2.0429
  151SAPE  H14Y16808   3.880   2.166   8.695  1.0360  1.1720  3.4799
  151SAPE  C31516809   4.019   2.034   8.570 -0.3630 -0.1956  0.1236
  151SAPE  H15X16810   3.979   1.931   8.583 -0.5149 -0.0799  0.5869
  151SAPE  H15Y16811   4.130   2.030   8.575 -0.2189  2.1984 -0.0173
  151SAPE  C31616812   3.992   2.098   8.432  0.5134 -0.3381  0.5176
  151SAPE  H16X16813   4.078   2.065   8.371  0.0493 -1.2790  0.3604
  151SAPE  H16Y16814   3.971   2.207   8.442  0.6752 -0.5034  3.3813
  151SAPE  C31716815   3.871   2.032   8.367  0.1188  0.5953 -0.2644
  151SAPE  H17X16816   3.847   2.087   8.273  0.8343  1.7490  0.2005
  151SAPE  H17Y16817   3.779   2.045   8.428  0.9818  2.0758  0.8069
  151SAPE  C31816818   3.872   1.881   8.344 -0.3606 -0.1124 -0.0568
  151SAPE  H18X16819   3.787   1.846   8.281  0.0576  1.3323 -1.4876
  151SAPE  H18Y16820   3.884   1.815   8.433 -0.3489 -2.0134 -1.4011
  151SAPE  H18Z16821   3.959   1.853   8.280 -1.4517 -0.5566 -1.4011
  152SAPE     N16822   2.482   0.966  10.686  0.2732  0.4554  0.1138
  152SAPE   HN116823   2.517   0.869  10.668  1.5425  1.3763 -3.1159
  152SAPE   HN216824   2.571   1.015  10.707  2.0170 -2.2558 -0.4103
  152SAPE   HN316825   2.417   0.963  10.767 -1.5646 -2.8646 -1.2471
  152SAPE   C1216826   2.421   1.024  10.560  0.2841 -0.1574 -0.3010
  152SAPE  H12A16827   2.502   1.023  10.484  0.7738  0.5064  0.1986
  152SAPE  H12B16828   2.387   1.126  10.586 -1.5119 -0.9819  0.7825
  152SAPE   C1116829   2.288   0.944  10.521 -0.7095  0.1295  0.6471
  152SAPE  H11A16830   2.312   0.835  10.517  3.1542  0.8901 -1.4827
  152SAPE  H11B16831   2.260   0.979  10.420  0.3059  3.9247  1.5388
  152SAPE     P16832   2.075   1.071  10.605 -0.0743  0.0675  0.3712
  152SAPE   O1316833   1.969   1.062  10.706  0.2169  0.3454 -0.1611
  152SAPE   O1416834   2.145   1.204  10.592 -0.1093  0.4892 -0.2917
  152SAPE   O1216835   2.190   0.966  10.627 -0.2042  0.1231  0.4016
  152SAPE   O1116836   2.010   1.040  10.464  0.3249  0.1648  0.0558
  152SAPE    C116837   1.983   0.908  10.415  0.6308  0.0256 -0.0448
  152SAPE    HA16838   2.061   0.834  10.444  0.6589  0.1716  0.2565
  152SAPE    HB16839   1.886   0.858  10.441  0.0881 -0.2659 -2.3835
  152SAPE    C216840   1.979   0.908  10.261 -0.0520  0.1349 -0.2696
  152SAPE    HS16841   2.075   0.958  10.239  0.5810 -0.9225  0.0304
  152SAPE   O2116842   1.862   0.971  10.216  0.0691 -0.0532 -0.0935
  152SAPE   C2116843   1.846   1.098  10.215 -0.6075 -0.1970 -0.1678
  152SAPE   O2216844   1.931   1.181  10.249 -0.0149 -0.2276 -0.0638
  152SAPE   C2216845   1.697   1.135  10.179 -0.7905 -0.2075  1.3742
  152SAPE   H2R16846   1.667   1.074  10.092 -0.3096  1.8615 -0.3258
  152SAPE   H2S16847   1.622   1.130  10.261 -2.8979 -1.0339 -0.5131
  152SAPE    C316848   1.990   0.762  10.205 -0.5553  0.7236  0.5105
  152SAPE    HX16849   1.912   0.695  10.246  1.4817 -0.3100  2.9920
  152SAPE    HY16850   2.082   0.720  10.251 -0.6162  0.4232  0.3575
  152SAPE   O3116851   1.996   0.748  10.058 -0.0074 -0.1665  0.2838
  152SAPE   C3116852   2.116   0.762  10.001  0.4213  0.2948  0.4259
  152SAPE   O3216853   2.220   0.770  10.063  0.6552 -0.0964 -0.6875
  152SAPE   C3216854   2.096   0.763   9.852  0.1000  0.0098 -0.6855
  152SAPE   H2X16855   2.091   0.866   9.810 -1.9352  0.2954  0.1257
  152SAPE   H2Y16856   1.994   0.726   9.829 -0.6934  1.2952  0.6021
  152SAPE   C2316857   1.689   1.285  10.148 -0.4548 -0.1941 -0.4568
  152SAPE   H3R16858   1.734   1.358  10.220  0.9581  0.6389 -2.1188
  152SAPE   H3S16859   1.583   1.316  10.142 -0.4778 -0.1520  0.0877
  152SAPE   C2416860   1.768   1.331  10.024  0.1569 -0.4727  0.9123
  152SAPE   H4R16861   1.875   1.303  10.034  0.9660  1.9115 -0.3268
  152SAPE   H4S16862   1.755   1.441  10.021  3.5282  0.0360  1.1688
  152SAPE   C2516863   1.709   1.286   9.890  0.4573 -0.6763  0.6347
  152SAPE   H5R16864   1.614   1.337   9.868  0.5854 -1.3276 -1.6139
  152SAPE   C2616865   1.766   1.201   9.805  0.0373  0.2717  0.1225
  152SAPE   H6R16866   1.714   1.180   9.710  1.8893 -1.9387 -0.5056
  152SAPE   C2716867   1.897   1.126   9.817 -0.4083 -0.3509  0.5453
  152SAPE   H7R16868   1.907   1.027   9.768 -0.6545 -0.4466  0.6884
  152SAPE   H7S16869   1.914   1.108   9.925  1.9847 -0.4521  0.2091
  152SAPE   C2816870   2.008   1.217   9.767 -0.5021  0.1517 -0.3904
  152SAPE   H8R16871   2.027   1.292   9.845  2.7183 -1.1821  0.2294
  152SAPE   C2916872   2.081   1.216   9.653  0.0965 -0.1306  0.5631
  152SAPE   H9R16873   2.159   1.294   9.646  1.9091 -1.6588  2.1963
  152SAPE  C21016874   2.061   1.120   9.541  0.1277 -0.1173  0.5180
  152SAPE  H10R16875   2.006   1.179   9.465  1.0583 -1.9302 -1.6640
  152SAPE  H10S16876   1.996   1.035   9.570  1.1511 -1.1050 -0.0352
  152SAPE  C21116877   2.191   1.065   9.487 -0.2999 -0.4407  0.6831
  152SAPE  H11R16878   2.273   1.072   9.560  0.4787  0.7573 -0.2501
  152SAPE  C21216879   2.209   1.005   9.364 -0.1046 -0.0357 -0.6217
  152SAPE  H12R16880   2.309   0.961   9.347  0.4967  0.3513  1.5673
  152SAPE  C21316881   2.106   0.990   9.259  0.7463  0.2339 -0.5435
  152SAPE  H13R16882   2.004   1.001   9.300  1.0936  2.2144 -0.1328
  152SAPE  H13S16883   2.121   0.888   9.217 -0.9385  0.2884 -1.3491
  152SAPE  C21416884   2.135   1.088   9.148 -0.5783  0.1959  0.1572
  152SAPE  H14R16885   2.183   1.179   9.187  1.6224 -0.0408 -1.8037
  152SAPE  C21516886   2.117   1.067   9.017  0.0937 -0.3564  0.2831
  152SAPE  H15R16887   2.152   1.149   8.952 -2.4150  1.8037  1.4825
  152SAPE  C21616888   2.054   0.944   8.954 -0.1820  0.5727 -0.2160
  152SAPE  H16R16889   1.956   0.929   9.005  1.5818 -2.2106  2.6871
  152SAPE  H16S16890   2.113   0.853   8.977 -0.3788 -0.0640 -2.0292
  152SAPE  C21716891   2.034   0.949   8.797 -0.2000 -0.2063 -0.4972
  152SAPE  H17R16892   2.006   1.054   8.779  0.1765  0.5468  2.7252
  152SAPE  H17S16893   1.949   0.888   8.759  0.4319 -1.2679 -0.2742
  152SAPE  C21816894   2.165   0.912   8.716  0.4024  0.2344  0.3157
  152SAPE  H18R16895   2.212   0.830   8.775 -0.1851 -0.5052 -0.2225
  152SAPE  H18S16896   2.233   0.999   8.712  0.3988  0.2224 -0.0248
  152SAPE  C21916897   2.147   0.873   8.564 -0.0222  0.1609 -0.2785
  152SAPE  H19R16898   2.073   0.790   8.572  0.8304 -0.4674  1.9442
  152SAPE  H19S16899   2.239   0.832   8.518  1.6308  1.1850  1.9482
  152SAPE  C22016900   2.091   0.988   8.481 -0.5819 -0.9048 -0.6144
  152SAPE  H20R16901   2.014   1.044   8.538 -1.1911 -3.0450  0.7914
  152SAPE  H20S16902   2.038   0.961   8.387 -0.8375  2.1732 -1.4719
  152SAPE  H20T16903   2.177   1.053   8.454 -1.3103  0.9963  1.3875
  152SAPE   C3316904   2.199   0.676   9.780 -0.0027 -0.1521  0.4918
  152SAPE   H3X16905   2.175   0.568   9.790  1.2754 -0.3228  1.9908
  152SAPE   H3Y16906   2.303   0.701   9.808  0.5083  3.7411 -3.5867
  152SAPE   C3416907   2.192   0.706   9.627  0.6232  0.0362  0.2108
  152SAPE   H4X16908   2.274   0.642   9.587  1.4097  0.3950  1.2104
  152SAPE   H4Y16909   2.213   0.812   9.600 -1.5770 -0.1500 -2.7612
  152SAPE   C3516910   2.057   0.660   9.563  0.6407  0.2204  0.2390
  152SAPE   H5X16911   1.988   0.740   9.596  1.6056  0.6192  1.3791
  152SAPE   H5Y16912   2.036   0.559   9.605  1.2766  0.1421  0.3797
  152SAPE   C3616913   2.085   0.647   9.413  0.0449 -0.1696 -0.3814
  152SAPE   H6X16914   2.137   0.552   9.390 -0.3173 -0.1516 -1.3181
  152SAPE   H6Y16915   2.146   0.737   9.388  1.2009  0.2039  3.2143
  152SAPE   C3716916   1.956   0.656   9.332  0.0387  0.2802  0.2469
  152SAPE   H7X16917   1.921   0.761   9.342  0.4612  0.2455  2.4359
  152SAPE   H7Y16918   1.885   0.578   9.367  0.0484  0.6954  1.1903
  152SAPE   C3816919   1.972   0.629   9.174  0.6525 -0.6929 -0.3153
  152SAPE   H8X16920   2.022   0.531   9.158 -0.6636 -1.4371  0.0227
  152SAPE   H8Y16921   2.032   0.706   9.122  0.6333 -1.5458 -1.6392
  152SAPE   C3916922   1.832   0.631   9.103 -0.0848  0.7391 -0.0537
  152SAPE   H9X16923   1.780   0.728   9.120 -1.5142  0.3427 -1.9097
  152SAPE   H9Y16924   1.772   0.543   9.136  0.0539  0.0752 -1.5096
  152SAPE  C31016925   1.843   0.611   8.951 -0.4078 -0.3117 -0.1733
  152SAPE  H10X16926   1.893   0.698   8.903 -0.9770  0.0183 -0.1796
  152SAPE  H10Y16927   1.740   0.606   8.908  0.2120  3.6776 -2.6979
  152SAPE  C31116928   1.930   0.492   8.913  0.0292  0.6677 -0.2545
  152SAPE  H11X16929   1.896   0.402   8.968 -0.6539 -0.3510 -2.2906
  152SAPE  H11Y16930   2.036   0.510   8.943  1.0569 -1.6619 -2.1699
  152SAPE  C31216931   1.922   0.462   8.764 -0.8080  0.3045  0.8659
  152SAPE  H12X16932   1.957   0.554   8.711 -0.3877 -0.1556  0.3242
  152SAPE  H12Y16933   1.821   0.435   8.727  0.5250 -2.7295 -0.9100
  152SAPE  C31316934   2.030   0.362   8.710 -0.2539 -1.0870  0.5886
  152SAPE  H13X16935   2.015   0.262   8.756 -1.9752 -0.1239  2.2646
  152SAPE  H13Y16936   2.131   0.403   8.731 -1.4180  1.8746  0.7537
  152SAPE  C31416937   2.031   0.352   8.553  0.1411  0.0645  0.0017
  152SAPE  H14X16938   2.016   0.456   8.517 -2.6987 -0.9600 -2.1279
  152SAPE  H14Y16939   1.952   0.281   8.522  1.1419 -1.1000  0.0695
  152SAPE  C31516940   2.166   0.298   8.497 -0.4139  0.1796 -0.1435
  152SAPE  H15X16941   2.178   0.199   8.545  2.4748  0.4955 -0.0207
  152SAPE  H15Y16942   2.250   0.363   8.532 -1.1244  1.5112 -0.8474
  152SAPE  C31616943   2.177   0.267   8.348  0.7217 -0.2885  0.2530
  152SAPE  H16X16944   2.073   0.244   8.315  0.1567  0.4270  1.4609
  152SAPE  H16Y16945   2.243   0.179   8.335  1.1556  0.3216 -2.2619
  152SAPE  C31716946   2.231   0.384   8.262 -0.3121  0.1352 -0.3083
  152SAPE  H17X16947   2.167   0.475   8.264  0.1137  0.4642 -1.0748
  152SAPE  H17Y16948   2.226   0.359   8.154  0.6192  0.7464 -0.5059
  152SAPE  C31816949   2.375   0.421   8.305  0.2080 -0.2163 -0.5913
  152SAPE  H18X16950   2.431   0.493   8.242  1.4370 -1.0080 -0.4555
  152SAPE  H18Y16951   2.440   0.330   8.305 -0.1215 -0.4542 -1.2738
  152SAPE  H18Z16952   2.378   0.454   8.411 -0.8602 -1.0368 -0.2864
  153SAPE     N16953   2.569   3.809  10.403  0.2958  0.0255  0.1091
  153SAPE   HN116954   2.603   3.893  10.453 -2.2925  1.3547 -0.1468
  153SAPE   HN216955   2.628   3.729  10.374  1.2752  0.1007  1.7704
  153SAPE   HN316956   2.514   3.844  10.321  2.9569 -1.8667 -2.6705
  153SAPE   C1216957   2.465   3.747  10.486  1.2600 -0.0676  0.6392
  153SAPE  H12A16958   2.513   3.721  10.582  0.0018 -2.7109  0.6341
  153SAPE  H12B16959   2.445   3.654  10.428 -0.6882  1.3815 -1.1906
  153SAPE   C1116960   2.352   3.849  10.523 -0.3153  0.1746  0.0219
  153SAPE  H11A16961   2.276   3.803  10.590 -0.4147  0.4410  0.0916
  153SAPE  H11B16962   2.294   3.873  10.432 -1.3362 -2.2836 -0.0447
  153SAPE     P16963   2.325   4.073  10.663  0.1874 -0.0612 -0.0274
  153SAPE   O1316964   2.189   4.028  10.698 -0.0924  0.4888  0.4002
  153SAPE   O1416965   2.408   4.121  10.778  0.5869  0.0364 -0.0330
  153SAPE   O1216966   2.404   3.971  10.583  0.0960 -0.6936  0.7911
  153SAPE   O1116967   2.314   4.190  10.558 -0.0887 -0.0737  0.4910
  153SAPE    C116968   2.404   4.226  10.457 -0.8563  0.0491 -0.1453
  153SAPE    HA16969   2.413   4.337  10.455 -0.0361  0.1570  3.4394
  153SAPE    HB16970   2.505   4.181  10.469 -0.3604  1.0755 -0.3761
  153SAPE    C216971   2.348   4.184  10.317  0.0414 -0.2611 -0.1607
  153SAPE    HS16972   2.326   4.076  10.305 -1.4127  0.2834 -3.6386
  153SAPE   O2116973   2.437   4.236  10.214  0.7989 -0.3458  0.1412
  153SAPE   C2116974   2.534   4.152  10.197  0.4062  0.3451  0.3515
  153SAPE   O2216975   2.540   4.037  10.245 -0.3227 -0.0828  0.2380
  153SAPE   C2216976   2.637   4.215  10.103  0.1875 -0.9354  0.3228
  153SAPE   H2R16977   2.682   4.307  10.145  0.9243 -0.0736 -2.1485
  153SAPE   H2S16978   2.709   4.135  10.073  0.0177 -1.5421  1.4625
  153SAPE    C316979   2.206   4.252  10.300  0.1918  0.2770 -0.5665
  153SAPE    HX16980   2.208   4.361  10.325 -1.7453  0.4801 -1.1352
  153SAPE    HY16981   2.132   4.220  10.377  0.1015  0.2912 -0.6469
  153SAPE   O3116982   2.166   4.244  10.159 -0.2213 -0.0656  0.2927
  153SAPE   C3116983   2.103   4.131  10.129 -0.9399  0.2389  0.0310
  153SAPE   O3216984   2.076   4.037  10.203  0.2802 -0.5123  0.3528
  153SAPE   C3216985   2.070   4.126   9.978  0.0798  0.1665 -0.2374
  153SAPE   H2X16986   1.991   4.204   9.974  1.3294  1.5410  0.6273
  153SAPE   H2Y16987   2.027   4.027   9.954  0.2626  0.4041 -1.6086
  153SAPE   C2316988   2.569   4.262   9.969  0.2714 -0.5404 -0.1473
  153SAPE   H3R16989   2.499   4.344   9.992  1.1661 -0.1956  1.5412
  153SAPE   H3S16990   2.522   4.183   9.906  2.4111 -1.9122 -0.1264
  153SAPE   C2416991   2.679   4.327   9.885 -0.0792  0.1420  0.3190
  153SAPE   H4R16992   2.733   4.409   9.938 -0.1916 -0.0964  0.8112
  153SAPE   H4S16993   2.627   4.381   9.803 -0.2859  0.5843  0.7390
  153SAPE   C2516994   2.778   4.223   9.838  0.1909  0.7750 -0.2051
  153SAPE   H5R16995   2.840   4.204   9.926  1.3058  3.1783 -0.4149
  153SAPE   C2616996   2.809   4.162   9.722  0.4854  0.1972  0.0170
  153SAPE   H6R16997   2.885   4.083   9.733  2.5868  2.3014  1.4103
  153SAPE   C2716998   2.742   4.177   9.589  0.0824  0.4243 -0.8420
  153SAPE   H7R16999   2.787   4.261   9.532  1.3987  0.9758  0.9294
  153SAPE   H7S17000   2.635   4.205   9.603  0.2322  0.7947 -0.4167
  153SAPE   C2817001   2.741   4.043   9.516  0.5756 -0.5095 -0.3486
  153SAPE   H8R17002   2.720   3.956   9.579  0.1377 -0.2634 -0.1514
  153SAPE   C2917003   2.741   4.028   9.387  0.9678 -0.3451 -0.1077
  153SAPE   H9R17004   2.739   3.924   9.350  1.1309  0.3050 -2.0535
  153SAPE  C21017005   2.753   4.138   9.282  0.0345  0.3262 -1.4595
  153SAPE  H10R17006   2.854   4.129   9.235 -0.1029 -1.0583 -1.5391
  153SAPE  H10S17007   2.754   4.241   9.323 -0.6327  0.2176 -1.1696
  153SAPE  C21117008   2.646   4.124   9.181  0.8536 -0.1543  0.1511
  153SAPE  H11R17009   2.550   4.086   9.220  0.9154 -0.1649  0.2933
  153SAPE  C21217010   2.657   4.144   9.048 -0.6242 -0.6884 -0.8350
  153SAPE  H12R17011   2.568   4.130   8.985 -0.5806  1.3666 -1.4259
  153SAPE  C21317012   2.786   4.190   8.971  0.2027  0.3790 -0.1096
  153SAPE  H13R17013   2.812   4.104   8.906 -1.7710 -2.3923  2.4879
  153SAPE  H13S17014   2.877   4.212   9.030  0.2219 -2.2118  0.9396
  153SAPE  C21417015   2.747   4.302   8.880 -0.7247 -0.3768  1.4019
  153SAPE  H14R17016   2.719   4.395   8.932 -0.8718  1.2358 -1.4106
  153SAPE  C21517017   2.763   4.307   8.746  0.2630  0.3355  0.0170
  153SAPE  H15R17018   2.742   4.398   8.688 -2.2681 -1.5971 -2.3795
  153SAPE  C21617019   2.826   4.201   8.653 -0.4387  0.5917  0.0156
  153SAPE  H16R17020   2.748   4.175   8.579  1.4360  2.0267 -2.5989
  153SAPE  H16S17021   2.859   4.107   8.704  1.5499  0.9315 -0.5409
  153SAPE  C21717022   2.946   4.237   8.565  1.1073 -0.4446  0.2162
  153SAPE  H17R17023   3.029   4.272   8.629  0.8960  1.3392 -0.4216
  153SAPE  H17S17024   2.910   4.329   8.514  1.5777  1.1011  2.4838
  153SAPE  C21817025   2.986   4.135   8.463 -0.6886  0.2876  0.0689
  153SAPE  H18R17026   2.914   4.136   8.378 -0.7193 -0.9350  0.0570
  153SAPE  H18S17027   2.984   4.028   8.493  0.4634  0.7415  1.9391
  153SAPE  C21917028   3.129   4.175   8.414 -0.3611  0.4760 -0.0292
  153SAPE  H19R17029   3.208   4.180   8.492  0.0740  2.5378 -0.5215
  153SAPE  H19S17030   3.115   4.279   8.375 -1.4575  0.3076 -0.1136
  153SAPE  C22017031   3.168   4.094   8.300 -0.5443  0.4094 -0.1162
  153SAPE  H20R17032   3.087   4.095   8.224 -2.2850  0.6993  1.6517
  153SAPE  H20S17033   3.175   3.990   8.337 -0.2278 -0.6344 -2.8741
  153SAPE  H20T17034   3.269   4.118   8.261 -0.7438  1.4803 -0.0037
  153SAPE   C3317035   2.189   4.160   9.886 -0.0916 -0.0463 -0.3099
  153SAPE   H3X17036   2.285   4.125   9.932 -0.3097 -0.0020  0.1917
  153SAPE   H3Y17037   2.191   4.270   9.877 -0.8072 -0.1991 -2.9057
  153SAPE   C3417038   2.173   4.116   9.737 -0.2665  0.2379 -0.5022
  153SAPE   H4X17039   2.069   4.150   9.717 -1.8592 -0.4481  5.0135
  153SAPE   H4Y17040   2.190   4.007   9.726  2.4555  0.7507 -2.1441
  153SAPE   C3517041   2.273   4.182   9.642  0.0971  0.0922 -0.2182
  153SAPE   H5X17042   2.370   4.154   9.689 -1.4133 -0.2262  3.0095
  153SAPE   H5Y17043   2.264   4.292   9.654  1.8795  0.0436  2.4282
  153SAPE   C3617044   2.265   4.149   9.498 -0.3361  0.1784  0.1632
  153SAPE   H6X17045   2.156   4.159   9.479 -0.4316  0.1881  0.7211
  153SAPE   H6Y17046   2.294   4.043   9.484 -0.3092  0.4442 -2.2186
  153SAPE   C3717047   2.342   4.250   9.404  0.3503 -0.2647 -0.2835
  153SAPE   H7X17048   2.447   4.215   9.386  0.6214  0.6812 -0.5769
  153SAPE   H7Y17049   2.341   4.349   9.453  0.3598 -0.2257 -0.3636
  153SAPE   C3817050   2.269   4.259   9.269 -0.0366  0.0068 -0.0937
  153SAPE   H8X17051   2.167   4.295   9.291 -0.2678 -0.8365  0.2582
  153SAPE   H8Y17052   2.277   4.159   9.221 -0.7171 -0.2278  0.2738
  153SAPE   C3917053   2.317   4.365   9.165  0.5000 -0.1549  0.2804
  153SAPE   H9X17054   2.425   4.349   9.147  0.1115 -2.3266 -0.4226
  153SAPE   H9Y17055   2.299   4.465   9.209 -2.6015 -0.3433 -0.3165
  153SAPE  C31017056   2.255   4.354   9.030 -0.3226 -0.8886  0.6092
  153SAPE  H10X17057   2.270   4.251   8.990 -1.7473 -1.0370  0.4064
  153SAPE  H10Y17058   2.309   4.427   8.967 -1.8970 -2.5066 -2.9414
  153SAPE  C31117059   2.106   4.391   9.034 -0.1646 -0.8249  0.4688
  153SAPE  H11X17060   2.095   4.495   9.072  1.0078 -0.1389 -0.9756
  153SAPE  H11Y17061   2.066   4.319   9.109 -1.2943 -1.2993 -0.5452
  153SAPE  C31217062   2.036   4.369   8.893 -0.6108  0.4402 -0.8513
  153SAPE  H12X17063   2.041   4.259   8.889 -1.3583  0.2926  1.2664
  153SAPE  H12Y17064   2.098   4.424   8.818  2.1723  4.0552  3.5373
  153SAPE  C31317065   1.896   4.409   8.885  0.0437 -0.3470  0.7400
  153SAPE  H13X17066   1.861   4.506   8.928 -2.3406  0.5859 -2.9022
  153SAPE  H13Y17067   1.839   4.343   8.955  2.3879 -1.8776  1.3130
  153SAPE  C31417068   1.834   4.380   8.745  0.4613 -0.4953 -0.5101
  153SAPE  H14X17069   1.853   4.275   8.714  3.0201 -0.2142 -0.0790
  153SAPE  H14Y17070   1.885   4.447   8.672  0.2279 -0.5243 -0.7035
  153SAPE  C31517071   1.684   4.412   8.744 -0.2761 -0.5744 -0.0356
  153SAPE  H15X17072   1.636   4.408   8.644  1.2438  0.2749 -0.8451
  153SAPE  H15Y17073   1.663   4.516   8.774  0.2218  0.2868 -2.4644
  153SAPE  C31617074   1.610   4.326   8.840  0.9189 -0.1442  0.2839
  153SAPE  H16X17075   1.586   4.382   8.933 -0.1605  2.8589 -1.6773
  153SAPE  H16Y17076   1.666   4.231   8.852  2.4097  0.4142 -1.7198
  153SAPE  C31717077   1.468   4.284   8.788 -1.3169 -0.0258  0.0467
  153SAPE  H17X17078   1.434   4.200   8.853  3.3755 -1.7365  0.6468
  153SAPE  H17Y17079   1.491   4.235   8.691 -0.6615 -3.2795  1.6845
  153SAPE  C31817080   1.364   4.394   8.772 -0.2285  0.3975 -0.3569
  153SAPE  H18X17081   1.325   4.416   8.874 -1.0287 -0.1758 -0.5353
  153SAPE  H18Y17082   1.290   4.357   8.698 -0.3305  0.0920 -0.1047
  153SAPE  H18Z17083   1.411   4.487   8.734 -1.5741  0.7068 -1.3503
  154SAPE     N17084   2.946   3.754  10.805  0.7054  0.2458 -0.3128
  154SAPE   HN117085   2.854   3.782  10.766  1.3526  1.8093 -0.8016
  154SAPE   HN217086   2.948   3.771  10.908 -3.8284  1.8043 -0.2737
  154SAPE   HN317087   3.022   3.818  10.776  0.6394  1.7292  2.3843
  154SAPE   C1217088   2.989   3.614  10.765  0.6015 -0.4110  0.5393
  154SAPE  H12A17089   2.910   3.544  10.800 -0.1892 -0.3796 -1.1254
  154SAPE  H12B17090   3.084   3.595  10.820  2.3125  3.2699 -0.7829
  154SAPE   C1117091   2.991   3.587  10.618  0.6229 -0.0973  0.5236
  154SAPE  H11A17092   3.024   3.485  10.588 -3.7799 -1.4716 -0.2666
  154SAPE  H11B17093   3.069   3.658  10.582 -0.0359  0.8003  0.8359
  154SAPE     P17094   2.771   3.511  10.495  0.1496  0.2530  0.5582
  154SAPE   O1317095   2.673   3.451  10.590 -0.1327 -0.5935  0.4692
  154SAPE   O1417096   2.721   3.591  10.377  0.6714  1.1131 -0.1150
  154SAPE   O1217097   2.862   3.617  10.570  0.5646  0.5487  0.0624
  154SAPE   O1117098   2.869   3.397  10.445 -0.9664  1.1268 -0.5278
  154SAPE    C117099   2.818   3.261  10.421 -0.1988  0.0097 -0.5058
  154SAPE    HA17100   2.800   3.210  10.518  1.1204  0.6499  0.0953
  154SAPE    HB17101   2.724   3.262  10.362 -1.2981  2.3084  1.1260
  154SAPE    C217102   2.918   3.169  10.347 -0.4811  0.0738  0.3766
  154SAPE    HS17103   3.004   3.169  10.418 -1.1888  0.2475  1.2557
  154SAPE   O2117104   2.948   3.231  10.216 -0.3019  0.6311  0.0692
  154SAPE   C2117105   3.063   3.196  10.170 -0.3828  0.4569 -0.3378
  154SAPE   O2217106   3.147   3.122  10.220  0.0956  0.0480  0.9863
  154SAPE   C2217107   3.087   3.273  10.043 -0.7484  0.2194 -0.0080
  154SAPE   H2R17108   2.995   3.318  10.001 -0.3909 -0.4108 -1.5305
  154SAPE   H2S17109   3.149   3.361  10.072  0.1084 -0.4681  0.2847
  154SAPE    C317110   2.882   3.024  10.336 -0.5874 -0.1213  0.4648
  154SAPE    HX17111   2.835   2.986  10.429  0.1961 -1.7847  0.2343
  154SAPE    HY17112   2.970   2.957  10.320 -1.0547 -0.0798 -3.2046
  154SAPE   O3117113   2.798   3.004  10.215  0.6363  0.7080 -0.1212
  154SAPE   C3117114   2.666   2.986  10.241 -0.4011 -0.2958  0.0860
  154SAPE   O3217115   2.622   2.975  10.356 -0.4961  0.0328  0.1568
  154SAPE   C3217116   2.586   3.004  10.115 -0.6348 -0.3008  0.7264
  154SAPE   H2X17117   2.616   3.101  10.071 -1.1108  0.1846  1.4661
  154SAPE   H2Y17118   2.481   3.016  10.149 -1.3277  1.5543 -1.7489
  154SAPE   C2317119   3.153   3.185   9.930 -0.0775 -0.8599 -0.1238
  154SAPE   H3R17120   3.078   3.115   9.889  0.9683 -0.5433 -2.8172
  154SAPE   H3S17121   3.241   3.129   9.968  0.8717  0.9889  0.5111
  154SAPE   C2417122   3.195   3.267   9.807  0.4047 -0.0031 -0.2416
  154SAPE   H4R17123   3.271   3.339   9.844  1.9638 -2.4074  1.6087
  154SAPE   H4S17124   3.108   3.332   9.782 -0.7552 -1.3154  0.2646
  154SAPE   C2517125   3.241   3.185   9.690  0.1484 -0.1447  0.9854
  154SAPE   H5R17126   3.329   3.121   9.699  2.1558  2.3779  0.5304
  154SAPE   C2617127   3.193   3.199   9.569  0.0973  0.8129 -0.0761
  154SAPE   H6R17128   3.240   3.133   9.495 -0.6088 -0.0457  0.2178
  154SAPE   C2717129   3.089   3.284   9.514 -0.1895 -0.7222  0.7642
  154SAPE   H7R17130   3.016   3.304   9.595  0.3888  2.3893  0.6489
  154SAPE   H7S17131   3.039   3.218   9.440  0.7753 -0.0939 -0.4926
  154SAPE   C2817132   3.128   3.417   9.455 -0.1983 -0.3153 -0.3496
  154SAPE   H8R17133   3.173   3.484   9.530 -1.0432 -0.3732  0.2269
  154SAPE   C2917134   3.133   3.456   9.326  0.4775  0.7938 -0.0971
  154SAPE   H9R17135   3.185   3.549   9.297 -2.6662  2.9335  0.5602
  154SAPE  C21017136   3.084   3.359   9.216 -0.4396  0.0545  0.9653
  154SAPE  H10R17137   2.985   3.316   9.240 -0.8239  0.8805  0.9110
  154SAPE  H10S17138   3.154   3.273   9.209  0.3681  0.8282 -1.5610
  154SAPE  C21117139   3.096   3.422   9.072 -0.7585  0.0764 -0.1896
  154SAPE  H11R17140   3.148   3.519   9.064  2.9058 -1.8018 -1.8114
  154SAPE  C21217141   3.033   3.365   8.966 -0.4035  0.2058  0.2949
  154SAPE  H12R17142   3.052   3.400   8.863 -4.0105  2.3730  0.1941
  154SAPE  C21317143   2.950   3.241   8.980  0.1810 -0.3814 -0.1166
  154SAPE  H13R17144   2.877   3.248   9.063  2.0936 -2.7073  1.9295
  154SAPE  H13S17145   3.019   3.158   9.007  1.9515  0.8207 -0.7760
  154SAPE  C21417146   2.865   3.192   8.861  0.4974 -0.6747 -0.1861
  154SAPE  H14R17147   2.877   3.085   8.842  0.9378 -1.0242  1.8324
  154SAPE  C21517148   2.767   3.255   8.791  0.5219 -0.3109 -0.8176
  154SAPE  H15R17149   2.718   3.207   8.705  0.9621  1.9636 -2.4223
  154SAPE  C21617150   2.718   3.399   8.820  0.6471  0.0157  1.0763
  154SAPE  H16R17151   2.802   3.463   8.853  0.0616  0.7476  1.1558
  154SAPE  H16S17152   2.633   3.405   8.891 -0.0314  0.7674  0.2181
  154SAPE  C21717153   2.674   3.445   8.679 -0.4889  0.1854 -0.6697
  154SAPE  H17R17154   2.585   3.399   8.630  0.0849  1.0598 -2.6571
  154SAPE  H17S17155   2.759   3.455   8.608  0.4636  2.1345  0.6589
  154SAPE  C21817156   2.623   3.591   8.677 -0.4111  0.2264  0.3624
  154SAPE  H18R17157   2.701   3.664   8.709 -1.5043  1.9676 -0.7871
  154SAPE  H18S17158   2.532   3.601   8.740 -0.5214 -1.8115  0.6030
  154SAPE  C21917159   2.579   3.631   8.538  0.8033 -0.8885 -0.4324
  154SAPE  H19R17160   2.493   3.568   8.507 -3.5183  1.3939  5.2440
  154SAPE  H19S17161   2.662   3.610   8.467 -0.0109 -0.4614 -1.5590
  154SAPE  C22017162   2.538   3.772   8.525  0.2598  0.2077  0.0245
  154SAPE  H20R17163   2.433   3.790   8.554 -1.1854 -3.1564 -2.4504
  154SAPE  H20S17164   2.562   3.804   8.421  1.5056  0.1894  0.2861
  154SAPE  H20T17165   2.610   3.833   8.584 -0.7821  1.3099  0.1955
  154SAPE   C3317166   2.587   2.891  10.011 -0.2193  0.4978 -0.4153
  154SAPE   H3X17167   2.577   2.791  10.058  1.7158  1.2024  1.6898
  154SAPE   H3Y17168   2.680   2.881   9.950  1.0864  0.2938  1.5183
  154SAPE   C3417169   2.489   2.911   9.898 -0.3749  0.5655 -0.2656
  154SAPE   H4X17170   2.498   3.013   9.853  1.9730 -0.2183 -1.7533
  154SAPE   H4Y17171   2.384   2.914   9.936 -0.2649  1.5901  0.0013
  154SAPE   C3517172   2.509   2.811   9.785  0.6043 -0.3963  0.0758
  154SAPE   H5X17173   2.486   2.709   9.821 -1.8648  0.9460  2.6448
  154SAPE   H5Y17174   2.614   2.825   9.751  0.7214  0.6781  0.8329
  154SAPE   C3617175   2.420   2.833   9.662 -0.2698 -0.4113 -0.0982
  154SAPE   H6X17176   2.446   2.933   9.622 -2.8493  0.3774  0.0397
  154SAPE   H6Y17177   2.312   2.831   9.689 -0.9334  0.9611 -2.4415
  154SAPE   C3717178   2.454   2.722   9.564  0.2803  0.5035 -0.2300
  154SAPE   H7X17179   2.417   2.625   9.603 -0.3870  0.8521  0.0215
  154SAPE   H7Y17180   2.563   2.717   9.542  0.1786  0.8181 -0.8300
  154SAPE   C3817181   2.376   2.754   9.436  0.4330 -0.0105 -0.4590
  154SAPE   H8X17182   2.411   2.850   9.393  0.5341 -1.1552 -3.1960
  154SAPE   H8Y17183   2.266   2.761   9.455  0.6452  2.2620  0.2041
  154SAPE   C3917184   2.396   2.639   9.331  0.6492 -0.3907  0.2389
  154SAPE   H9X17185   2.364   2.547   9.384 -0.5975 -2.2785 -3.4040
  154SAPE   H9Y17186   2.504   2.625   9.308  0.5556  0.0923 -0.5388
  154SAPE  C31017187   2.330   2.655   9.193  0.2062  0.0681 -0.2925
  154SAPE  H10X17188   2.220   2.669   9.190  0.1892 -0.2077 -1.5370
  154SAPE  H10Y17189   2.348   2.556   9.147  1.4814  0.1379  0.0031
  154SAPE  C31117190   2.413   2.758   9.119 -0.1900 -1.0406 -0.2657
  154SAPE  H11X17191   2.508   2.709   9.089  0.5498 -0.7468  1.4777
  154SAPE  H11Y17192   2.438   2.847   9.181 -0.4595 -0.7696 -0.5462
  154SAPE  C31217193   2.349   2.815   8.993 -0.0733  0.5825 -0.5668
  154SAPE  H12X17194   2.418   2.894   8.955 -0.4033 -0.1480 -2.8576
  154SAPE  H12Y17195   2.249   2.850   9.025 -0.5607 -1.8119  0.7563
  154SAPE  C31317196   2.335   2.714   8.882 -0.4725  0.2515 -0.3290
  154SAPE  H13X17197   2.302   2.611   8.908  0.7043  0.5068  2.5442
  154SAPE  H13Y17198   2.442   2.708   8.854  0.3271  3.2467  1.5716
  154SAPE  C31417199   2.267   2.754   8.749 -0.5534  0.0706  0.3998
  154SAPE  H14X17200   2.158   2.761   8.771 -0.6410  0.5791 -0.1558
  154SAPE  H14Y17201   2.284   2.672   8.677  0.5869  1.4619 -0.9652
  154SAPE  C31517202   2.320   2.881   8.689 -0.1472  0.0046  0.0547
  154SAPE  H15X17203   2.431   2.881   8.685 -0.1310  1.2650 -0.0501
  154SAPE  H15Y17204   2.305   2.964   8.761  1.3848  0.8045 -0.4957
  154SAPE  C31617205   2.255   2.918   8.550  0.3021  0.1963 -0.2292
  154SAPE  H16X17206   2.297   3.019   8.528  1.3375 -0.1172  0.2627
  154SAPE  H16Y17207   2.151   2.948   8.577  0.2573  1.0523 -1.2699
  154SAPE  C31717208   2.285   2.812   8.441  0.9960 -0.1266  0.6413
  154SAPE  H17X17209   2.230   2.826   8.345  0.4659 -0.5994  0.8656
  154SAPE  H17Y17210   2.259   2.704   8.448  2.3120 -0.6240 -1.3519
  154SAPE  C31817211   2.437   2.818   8.414  0.0891 -0.5153 -0.4868
  154SAPE  H18X17212   2.493   2.773   8.499 -0.1049  1.1237  0.5662
  154SAPE  H18Y17213   2.478   2.922   8.414  1.2562 -0.9383  0.6242
  154SAPE  H18Z17214   2.460   2.765   8.320 -1.3006  0.8601 -1.6480
  155SAPE     N17215   3.702   3.090  10.505 -0.5042  0.1135 -0.7524
  155SAPE   HN117216   3.754   3.161  10.561  2.5314 -2.4778  0.0352
  155SAPE   HN217217   3.767   3.009  10.502  1.1962  1.4361 -1.9227
  155SAPE   HN317218   3.659   3.110  10.412  1.4987 -3.2319 -2.6232
  155SAPE   C1217219   3.581   3.056  10.594 -0.6568  0.3599  0.0802
  155SAPE  H12A17220   3.623   3.012  10.687 -0.1602  3.7212  1.6047
  155SAPE  H12B17221   3.528   2.974  10.541 -0.8917 -0.5431  1.6455
  155SAPE   C1117222   3.495   3.179  10.608 -0.4019 -0.8488  0.5205
  155SAPE  H11A17223   3.551   3.258  10.663 -1.2663  0.7882 -0.8673
  155SAPE  H11B17224   3.403   3.161  10.668 -2.0887  1.0218 -1.3612
  155SAPE     P17225   3.375   3.370  10.476  0.6274 -0.0482  0.0143
  155SAPE   O1317226   3.257   3.357  10.565  0.5950 -0.0830  0.5385
  155SAPE   O1417227   3.470   3.486  10.493 -0.2532  0.1882  0.0986
  155SAPE   O1217228   3.455   3.235  10.482 -0.3047  0.1499 -0.0006
  155SAPE   O1117229   3.326   3.388  10.325  0.1920  0.2871  0.1918
  155SAPE    C117230   3.429   3.411  10.226  0.3585  0.3285  0.7551
  155SAPE    HA17231   3.532   3.394  10.264 -0.5452 -1.3070  2.6600
  155SAPE    HB17232   3.419   3.333  10.147  2.1823 -0.1242  0.9447
  155SAPE    C217233   3.413   3.556  10.167 -0.6900  0.8932  0.3439
  155SAPE    HS17234   3.418   3.622  10.256  0.2635  3.3486 -1.4169
  155SAPE   O2117235   3.284   3.563  10.099  0.6188 -0.0677 -0.1917
  155SAPE   C2117236   3.237   3.688  10.095 -0.0474 -0.4113  0.0803
  155SAPE   O2217237   3.296   3.783  10.137  0.3873 -0.6730 -0.5426
  155SAPE   C2217238   3.106   3.681  10.017 -0.4279 -0.1826  0.3713
  155SAPE   H2R17239   3.028   3.618  10.064 -0.5603 -0.3861 -0.1208
  155SAPE   H2S17240   3.068   3.785  10.012 -0.2471 -0.0174  1.9054
  155SAPE    C317241   3.521   3.587  10.065 -0.2002  0.1187 -0.3599
  155SAPE    HX17242   3.616   3.576  10.122 -1.2462 -1.5480  1.1856
  155SAPE    HY17243   3.510   3.693  10.034  4.2481  1.2782  1.2004
  155SAPE   O3117244   3.510   3.501   9.952  0.4344 -0.1277 -0.6991
  155SAPE   C3117245   3.619   3.482   9.880 -0.3479 -0.2431 -0.5169
  155SAPE   O3217246   3.725   3.536   9.905  0.6925  0.2365  0.4656
  155SAPE   C3217247   3.587   3.389   9.761 -0.3372 -0.1971 -0.7687
  155SAPE   H2X17248   3.479   3.397   9.736 -0.3270 -0.4122 -0.8855
  155SAPE   H2Y17249   3.610   3.288   9.802 -0.8324  0.4087  1.0866
  155SAPE   C2317250   3.129   3.618   9.872  0.1244 -0.4040 -0.1199
  155SAPE   H3R17251   3.164   3.515   9.894 -2.5687 -1.1311  1.2217
  155SAPE   H3S17252   3.204   3.679   9.818 -0.6936  0.8746  0.1411
  155SAPE   C2417253   2.999   3.615   9.789  0.4134 -0.1205  0.0961
  155SAPE   H4R17254   2.918   3.559   9.841  0.5838 -0.7051 -0.2590
  155SAPE   H4S17255   3.006   3.551   9.699  0.6814  0.6378 -0.4362
  155SAPE   C2517256   2.959   3.762   9.762 -0.0978 -0.5062 -0.3891
  155SAPE   H5R17257   2.885   3.806   9.831  0.9222 -1.2009  1.2019
  155SAPE   C2617258   3.016   3.838   9.666  0.9755 -0.0991  0.0021
  155SAPE   H6R17259   2.981   3.941   9.654  2.0681  0.3084  0.2427
  155SAPE   C2717260   3.118   3.776   9.573 -0.1528  0.1907  0.0439
  155SAPE   H7R17261   3.096   3.673   9.539  0.3955 -0.6581  2.1215
  155SAPE   H7S17262   3.208   3.754   9.635 -0.1946  0.1056  0.0731
  155SAPE   C2817263   3.145   3.858   9.455 -0.4585  0.5914  0.0896
  155SAPE   H8R17264   3.052   3.900   9.413 -1.2867 -1.4451 -0.2319
  155SAPE   C2917265   3.263   3.878   9.397 -0.2053  0.1724 -0.8046
  155SAPE   H9R17266   3.251   3.937   9.306 -5.5692 -0.2400 -0.6851
  155SAPE  C21017267   3.398   3.831   9.457 -0.2813  0.0325  0.1330
  155SAPE  H10R17268   3.409   3.869   9.561 -0.8910 -0.2047  0.2842
  155SAPE  H10S17269   3.485   3.875   9.403 -1.1028  0.2038 -1.0653
  155SAPE  C21117270   3.408   3.679   9.465 -0.1783 -0.2127 -0.0796
  155SAPE  H11R17271   3.357   3.620   9.544  1.7859 -0.9031  0.7239
  155SAPE  C21217272   3.462   3.608   9.370  0.2663 -0.3129 -0.0510
  155SAPE  H12R17273   3.466   3.500   9.392 -1.9140 -0.4592 -0.1673
  155SAPE  C21317274   3.532   3.661   9.241 -0.4613 -0.6842  0.1081
  155SAPE  H13R17275   3.616   3.591   9.225 -0.5664 -1.2731  1.9196
  155SAPE  H13S17276   3.581   3.756   9.270  1.0805 -1.7786  1.2123
  155SAPE  C21417277   3.427   3.677   9.129 -0.0118  0.2850 -0.1433
  155SAPE  H14R17278   3.344   3.748   9.146 -0.4862 -0.2333 -0.2618
  155SAPE  C21517279   3.428   3.612   9.010 -0.2434  0.2711 -0.1388
  155SAPE  H15R17280   3.348   3.618   8.935 -0.2566 -1.5259 -0.3220
  155SAPE  C21617281   3.526   3.505   8.967  0.0935 -0.4243 -0.3659
  155SAPE  H16R17282   3.597   3.466   9.043  1.0254 -1.4963 -1.7469
  155SAPE  H16S17283   3.587   3.541   8.882  2.0846 -0.2520  1.0569
  155SAPE  C21717284   3.437   3.392   8.899 -0.3243 -0.4563  0.3077
  155SAPE  H17R17285   3.364   3.347   8.969 -0.4222  0.8211  1.0509
  155SAPE  H17S17286   3.517   3.318   8.875 -1.0659 -0.8002 -1.1982
  155SAPE  C21817287   3.375   3.436   8.766  0.1035 -0.1001  0.1145
  155SAPE  H18R17288   3.447   3.502   8.713 -0.1665 -1.6447 -2.2903
  155SAPE  H18S17289   3.275   3.481   8.782  0.0334 -0.5324  0.9361
  155SAPE  C21917290   3.345   3.325   8.666 -0.1249  0.2481 -0.6215
  155SAPE  H19R17291   3.433   3.257   8.666  0.7549  1.3589 -1.1373
  155SAPE  H19S17292   3.338   3.366   8.563  1.6257  0.8126 -0.5542
  155SAPE  C22017293   3.218   3.238   8.700 -0.0929  0.5756 -0.0519
  155SAPE  H20R17294   3.215   3.198   8.804  1.0560 -0.0053 -0.2255
  155SAPE  H20S17295   3.212   3.154   8.628  0.7720 -0.2781  0.8381
  155SAPE  H20T17296   3.133   3.309   8.689  0.2706  0.9136 -0.7116
  155SAPE   C3317297   3.663   3.409   9.630  0.6202  0.3626  0.0154
  155SAPE   H3X17298   3.773   3.396   9.641  0.7258 -2.6505 -2.9562
  155SAPE   H3Y17299   3.659   3.514   9.595 -0.8328  0.1214 -0.6156
  155SAPE   C3417300   3.627   3.307   9.527  0.3678  0.1669  0.1745
  155SAPE   H4X17301   3.520   3.329   9.506  0.6748  1.6050 -0.0438
  155SAPE   H4Y17302   3.643   3.211   9.579 -0.0487  0.9164  1.7560
  155SAPE   C3517303   3.715   3.328   9.397  0.7217 -0.1369 -0.6285
  155SAPE   H5X17304   3.824   3.338   9.418  0.5660  1.7671 -0.6188
  155SAPE   H5Y17305   3.673   3.422   9.356  2.5345  2.1000  2.2782
  155SAPE   C3617306   3.685   3.216   9.294 -0.5821  0.2136 -0.2787
  155SAPE   H6X17307   3.577   3.201   9.272  0.1344 -2.9483 -2.2127
  155SAPE   H6Y17308   3.713   3.119   9.340  0.2840  1.5167  2.1626
  155SAPE   C3717309   3.776   3.243   9.174 -0.0212  0.7681 -0.3106
  155SAPE   H7X17310   3.883   3.244   9.205 -0.1857 -0.2315  0.3494
  155SAPE   H7Y17311   3.755   3.348   9.145 -1.6225  0.2661 -1.0539
  155SAPE   C3817312   3.772   3.144   9.055 -0.2238 -0.2807 -0.4087
  155SAPE   H8X17313   3.664   3.119   9.046 -1.0238  1.4123  2.9228
  155SAPE   H8Y17314   3.827   3.051   9.081  0.8618  0.0342 -1.4844
  155SAPE   C3917315   3.832   3.207   8.932 -1.3964  0.0715 -0.2010
  155SAPE   H9X17316   3.942   3.220   8.937 -1.4140  0.1661 -0.0323
  155SAPE   H9Y17317   3.774   3.298   8.908 -2.8559 -0.8968 -0.5146
  155SAPE  C31017318   3.818   3.111   8.816 -0.4381  0.0254  0.2904
  155SAPE  H10X17319   3.707   3.103   8.807 -0.4007  0.1729 -0.3747
  155SAPE  H10Y17320   3.869   3.013   8.832  1.5940  0.5376 -2.4140
  155SAPE  C31117321   3.851   3.168   8.676 -0.3695  0.0283  0.0854
  155SAPE  H11X17322   3.958   3.195   8.689 -0.4021 -0.0032  0.4209
  155SAPE  H11Y17323   3.787   3.256   8.653 -0.7333 -0.1431  0.4268
  155SAPE  C31217324   3.848   3.066   8.562 -0.3042  0.5971  0.5341
  155SAPE  H12X17325   3.759   3.000   8.571  0.3311 -0.1670  1.4349
  155SAPE  H12Y17326   3.933   2.997   8.578 -0.0320  0.6840 -0.4689
  155SAPE  C31317327   3.855   3.132   8.420 -0.6332 -0.2978 -0.3248
  155SAPE  H13X17328   3.769   3.198   8.396 -1.1057 -0.9962 -0.5653
  155SAPE  H13Y17329   3.850   3.055   8.341  0.7950 -0.8400  0.0868
  155SAPE  C31417330   3.974   3.233   8.401 -0.1027  0.9593  0.0544
  155SAPE  H14X17331   4.067   3.177   8.421 -0.7952  0.0630  0.8651
  155SAPE  H14Y17332   3.966   3.321   8.470  2.5178  1.8027 -0.6165
  155SAPE  C31517333   3.985   3.275   8.257  0.0635  0.6290 -0.4452
  155SAPE  H15X17334   3.893   3.329   8.225  0.2828  1.6386  0.5599
  155SAPE  H15Y17335   3.996   3.192   8.184  0.4111  1.2387 -1.1090
  155SAPE  C31617336   4.117   3.361   8.233  0.6434  0.7019  0.2101
  155SAPE  H16X17337   4.191   3.332   8.311  0.7152  0.4454  0.0496
  155SAPE  H16Y17338   4.087   3.466   8.252 -1.1778  0.0846  0.9765
  155SAPE  C31717339   4.163   3.356   8.091  0.4553  0.7454  1.1237
  155SAPE  H17X17340   4.194   3.251   8.072 -0.2848  0.4379  1.5517
  155SAPE  H17Y17341   4.255   3.419   8.089  1.6976 -0.9922 -0.6612
  155SAPE  C31817342   4.056   3.387   7.981 -0.4174 -0.5076 -1.1125
  155SAPE  H18X17343   4.116   3.408   7.890 -0.0031 -0.7853 -0.9098
  155SAPE  H18Y17344   4.004   3.480   8.013  1.3163 -0.5144  2.1692
  155SAPE  H18Z17345   3.992   3.297   7.978 -2.9132  1.0949  0.5555
  156SAPE     N17346   1.224   2.500  10.748  0.3638  0.5897 -0.1538
  156SAPE   HN117347   1.269   2.448  10.827 -0.3040 -0.7557 -0.6308
  156SAPE   HN217348   1.145   2.552  10.792 -1.0049 -0.3295 -1.4363
  156SAPE   HN317349   1.181   2.433  10.682  0.5953 -0.7537  0.9981
  156SAPE   C1217350   1.334   2.576  10.682 -0.2955  0.4668  0.7350
  156SAPE  H12A17351   1.389   2.634  10.760  0.8154  0.9122 -0.3473
  156SAPE  H12B17352   1.297   2.654  10.612  1.2127  0.7164  0.1790
  156SAPE   C1117353   1.439   2.477  10.610 -0.3132  0.7676 -0.1075
  156SAPE  H11A17354   1.468   2.410  10.693 -4.6483  0.5092  1.4911
  156SAPE  H11B17355   1.531   2.530  10.578  2.9437 -2.6326  2.7117
  156SAPE     P17356   1.431   2.273  10.447  0.0892 -0.2555 -0.3747
  156SAPE   O1317357   1.456   2.178  10.556 -0.2191 -0.5925  0.1630
  156SAPE   O1417358   1.340   2.239  10.336 -0.0457  0.1433 -0.3066
  156SAPE   O1217359   1.369   2.402  10.511  0.2460 -0.0856  0.1523
  156SAPE   O1117360   1.568   2.321  10.390  0.0170 -0.1974 -0.4979
  156SAPE    C117361   1.582   2.386  10.260  0.7068 -0.4304  0.7089
  156SAPE    HA17362   1.531   2.328  10.181  0.7464 -0.3913  0.6548
  156SAPE    HB17363   1.525   2.480  10.274  0.7741 -0.4285  0.9749
  156SAPE    C217364   1.727   2.422  10.220  0.2059  0.4612 -0.5241
  156SAPE    HS17365   1.773   2.458  10.315  0.0216 -1.9164  0.5436
  156SAPE   O2117366   1.726   2.525  10.128 -0.2685  0.4369 -0.0482
  156SAPE   C2117367   1.836   2.593  10.109  0.2744 -0.9398 -0.2251
  156SAPE   O2217368   1.952   2.571  10.127 -0.2176  1.3015 -0.0136
  156SAPE   C2217369   1.791   2.734  10.055 -0.8350 -0.2702 -0.4637
  156SAPE   H2R17370   1.699   2.727   9.993 -1.3816  0.0357  0.2951
  156SAPE   H2S17371   1.770   2.800  10.142  0.9714  0.7334 -0.7170
  156SAPE    C317372   1.808   2.288  10.176  0.0027 -0.7335 -0.1535
  156SAPE    HX17373   1.772   2.217  10.254  1.4274 -1.1624  0.1356
  156SAPE    HY17374   1.917   2.309  10.173 -0.1719  0.6358  1.4558
  156SAPE   O3117375   1.759   2.245  10.047  0.4183  0.0093  0.5276
  156SAPE   C3117376   1.828   2.146   9.993 -0.6675 -1.2978  0.3493
  156SAPE   O3217377   1.919   2.086  10.044 -0.6960 -0.0185 -0.4397
  156SAPE   C3217378   1.795   2.140   9.842  0.0156  0.5048 -0.1439
  156SAPE   H2X17379   1.816   2.244   9.809  0.8598  0.6792  0.8482
  156SAPE   H2Y17380   1.688   2.112   9.840 -0.1464  1.1402 -1.3144
  156SAPE   C2317381   1.912   2.788   9.968  0.7570  0.3468 -0.4056
  156SAPE   H3R17382   2.007   2.776  10.025  1.0780  2.3359 -0.4277
  156SAPE   H3S17383   1.902   2.899   9.963  1.1356  0.4914  1.2601
  156SAPE   C2417384   1.924   2.725   9.823  0.0611  0.3391  0.1351
  156SAPE   H4R17385   1.953   2.618   9.837 -0.1432  0.4322  1.4655
  156SAPE   H4S17386   2.006   2.772   9.765  1.3212 -2.5227 -0.5895
  156SAPE   C2517387   1.796   2.741   9.752 -0.0281  0.7456  0.6169
  156SAPE   H5R17388   1.770   2.844   9.726 -0.2460  0.8005  1.0326
  156SAPE   C2617389   1.711   2.636   9.722  0.8445  1.0579  0.2975
  156SAPE   H6R17390   1.615   2.665   9.677  0.2907  0.0025  0.7665
  156SAPE   C2717391   1.721   2.488   9.752 -0.7662  0.3129  0.1425
  156SAPE   H7R17392   1.803   2.469   9.825 -0.1753 -0.4650 -0.6924
  156SAPE   H7S17393   1.751   2.429   9.663  0.5113  0.9609  0.1221
  156SAPE   C2817394   1.593   2.430   9.811 -0.1907  0.2432 -0.3479
  156SAPE   H8R17395   1.598   2.416   9.920 -0.3755  0.5418 -0.2981
  156SAPE   C2917396   1.483   2.389   9.746 -0.1104 -0.7950 -0.0731
  156SAPE   H9R17397   1.403   2.336   9.800  1.0004 -3.0109 -0.4543
  156SAPE  C21017398   1.454   2.410   9.601 -0.4740 -0.1743 -0.0665
  156SAPE  H10R17399   1.538   2.461   9.549 -0.4545  0.7714  0.8539
  156SAPE  H10S17400   1.364   2.475   9.595  0.0529  0.6581  0.7384
  156SAPE  C21117401   1.450   2.281   9.516 -0.2660  0.8777  0.0751
  156SAPE  H11R17402   1.395   2.197   9.561 -1.9488  0.8398 -1.8966
  156SAPE  C21217403   1.479   2.257   9.390 -0.3386 -0.3857 -0.1686
  156SAPE  H12R17404   1.444   2.161   9.351 -0.1787  0.6851 -3.2245
  156SAPE  C21317405   1.544   2.354   9.295  0.3916  0.7877 -0.6905
  156SAPE  H13R17406   1.640   2.381   9.346  0.1890 -0.1369  0.2277
  156SAPE  H13S17407   1.468   2.434   9.297 -2.5470 -1.8331  1.1832
  156SAPE  C21417408   1.573   2.302   9.156 -0.2662 -0.0706 -0.3885
  156SAPE  H14R17409   1.649   2.223   9.165 -0.6967 -0.6104 -1.3325
  156SAPE  C21517410   1.531   2.347   9.036  0.4840 -0.8320  0.4856
  156SAPE  H15R17411   1.554   2.291   8.945  0.1041 -0.7160  0.3154
  156SAPE  C21617412   1.437   2.466   9.012  0.2739  1.0463 -0.2624
  156SAPE  H16R17413   1.428   2.524   9.107  1.7945  2.6329 -1.0377
  156SAPE  H16S17414   1.337   2.422   8.993 -0.2430  1.2854  1.6398
  156SAPE  C21717415   1.470   2.568   8.897 -0.2943 -0.4734 -0.3668
  156SAPE  H17R17416   1.566   2.624   8.895 -1.6483  1.9529 -0.9406
  156SAPE  H17S17417   1.390   2.644   8.910  0.4398  0.1979  0.3892
  156SAPE  C21817418   1.459   2.500   8.762  0.2715 -0.1752  1.0929
  156SAPE  H18R17419   1.375   2.427   8.769  1.3380 -1.4099  1.4456
  156SAPE  H18S17420   1.546   2.433   8.749 -1.0107 -1.4360 -2.3399
  156SAPE  C21917421   1.439   2.595   8.638 -0.2000 -0.1540 -0.4564
  156SAPE  H19R17422   1.368   2.673   8.672 -1.4819 -1.6437  0.4215
  156SAPE  H19S17423   1.398   2.526   8.560 -0.1674 -0.5002 -0.1702
  156SAPE  C22017424   1.567   2.649   8.587 -0.8388 -0.7775 -0.5950
  156SAPE  H20R17425   1.563   2.709   8.494 -0.2027 -0.3182 -0.3349
  156SAPE  H20S17426   1.636   2.565   8.564  0.4975 -0.2099  1.1157
  156SAPE  H20T17427   1.624   2.710   8.660 -1.3456 -0.6481 -0.3055
  156SAPE   C3317428   1.872   2.035   9.762  0.0014 -0.1896 -0.6943
  156SAPE   H3X17429   1.845   1.930   9.790 -0.4994  0.2718  0.6686
  156SAPE   H3Y17430   1.978   2.037   9.794 -0.7434 -1.2074  2.1866
  156SAPE   C3417431   1.867   2.061   9.607  0.3784 -0.5129 -0.4766
  156SAPE   H4X17432   1.967   2.020   9.581  1.3172  1.1101  0.4177
  156SAPE   H4Y17433   1.873   2.171   9.600  0.1036 -0.3761  1.0246
  156SAPE   C3517434   1.755   1.996   9.525 -0.4761  0.0496  0.1413
  156SAPE   H5X17435   1.657   2.027   9.569 -3.0853 -2.5618 -3.3057
  156SAPE   H5Y17436   1.769   1.886   9.525 -1.0773 -0.0413  1.0509
  156SAPE   C3617437   1.768   2.044   9.377 -0.5815  0.2074  0.1482
  156SAPE   H6X17438   1.762   2.154   9.363 -1.3183  0.1075 -0.4005
  156SAPE   H6Y17439   1.689   1.990   9.320 -1.5592  0.1460  1.5134
  156SAPE   C3717440   1.901   1.994   9.308 -0.2700 -0.5090  0.1635
  156SAPE   H7X17441   1.906   1.888   9.340 -1.2498 -0.4148  0.6577
  156SAPE   H7Y17442   1.981   2.053   9.359 -1.8856  0.1687  2.0442
  156SAPE   C3817443   1.906   2.013   9.155 -0.4418  0.2833 -0.5044
  156SAPE   H8X17444   1.927   2.119   9.131 -1.3641  0.5359 -0.2468
  156SAPE   H8Y17445   1.807   1.984   9.115 -1.3842  0.5131  1.5305
  156SAPE   C3917446   2.024   1.930   9.094 -0.2018 -0.4979 -0.4297
  156SAPE   H9X17447   2.014   1.822   9.118  0.5415 -0.8679 -1.6759
  156SAPE   H9Y17448   2.115   1.962   9.149 -1.0900  4.4905 -1.3731
  156SAPE  C31017449   2.038   1.947   8.935 -0.6138  0.9331 -0.0591
  156SAPE  H10X17450   2.059   2.054   8.917  0.1019  1.4366  3.1223
  156SAPE  H10Y17451   1.941   1.926   8.886 -0.1715 -2.3416  0.2575
  156SAPE  C31117452   2.159   1.879   8.863  0.3212 -0.5633  0.4155
  156SAPE  H11X17453   2.146   1.769   8.871 -0.1642 -0.6061 -0.8469
  156SAPE  H11Y17454   2.246   1.896   8.930 -0.1351 -2.2471  1.4999
  156SAPE  C31217455   2.179   1.924   8.714 -0.6595  0.1044  0.4560
  156SAPE  H12X17456   2.193   2.034   8.703  1.7826 -0.2568 -0.7346
  156SAPE  H12Y17457   2.089   1.899   8.655  0.1524 -0.9025 -0.4009
  156SAPE  C31317458   2.290   1.846   8.650  0.0753 -0.0127  0.3083
  156SAPE  H13X17459   2.270   1.739   8.674 -0.6217 -1.2773 -4.7772
  156SAPE  H13Y17460   2.386   1.876   8.699  0.8357  0.5819 -1.4574
  156SAPE  C31417461   2.311   1.878   8.506 -0.1933  0.1809  0.0826
  156SAPE  H14X17462   2.340   1.985   8.498  1.4618 -0.2481  0.0144
  156SAPE  H14Y17463   2.220   1.871   8.442  0.7379 -1.5610 -1.1177
  156SAPE  C31517464   2.423   1.787   8.436 -0.0771 -0.2152 -0.4742
  156SAPE  H15X17465   2.516   1.781   8.496  0.2189 -1.0639 -1.0013
  156SAPE  H15Y17466   2.450   1.838   8.341 -1.1830 -1.5304 -1.5387
  156SAPE  C31617467   2.369   1.642   8.402 -0.6744 -0.5050  0.0739
  156SAPE  H16X17468   2.294   1.662   8.322 -0.6062 -0.9460 -0.1017
  156SAPE  H16Y17469   2.324   1.589   8.488  0.6271  0.4580  1.3904
  156SAPE  C31717470   2.479   1.565   8.338 -0.5665  0.7013  0.5161
  156SAPE  H17X17471   2.551   1.529   8.414  2.1786 -0.3099 -2.3370
  156SAPE  H17Y17472   2.535   1.633   8.271 -0.6168 -0.0491 -0.3064
  156SAPE  C31817473   2.441   1.432   8.262 -0.5959  0.0561 -0.0335
  156SAPE  H18X17474   2.383   1.462   8.173 -2.0863  2.1519  1.5366
  156SAPE  H18Y17475   2.368   1.372   8.321 -0.6391 -1.1807 -1.2868
  156SAPE  H18Z17476   2.534   1.375   8.241 -1.1573 -0.6011 -0.7698
  157SAPE     N17477   1.731   1.538  10.549 -0.4928  0.2190  0.6803
  157SAPE   HN117478   1.798   1.461  10.531  0.2443  1.1245 -0.5930
  157SAPE   HN217479   1.646   1.512  10.494  0.1855 -1.3887  0.3447
  157SAPE   HN317480   1.774   1.624  10.511 -1.1097  0.5109  0.6196
  157SAPE   C1217481   1.699   1.567  10.690 -0.2374  0.1742 -0.2060
  157SAPE  H12A17482   1.659   1.671  10.697 -0.3357  0.2743 -1.9483
  157SAPE  H12B17483   1.801   1.562  10.736  0.8105  0.4337 -2.3548
  157SAPE   C1117484   1.602   1.469  10.733 -0.3163  0.2450 -0.0730
  157SAPE  H11A17485   1.572   1.485  10.839  0.7938 -0.5321  0.3690
  157SAPE  H11B17486   1.647   1.368  10.730  0.7259  0.7074 -2.3236
  157SAPE     P17487   1.369   1.552  10.660  0.3863 -0.4661 -0.3429
  157SAPE   O1317488   1.277   1.475  10.744  0.6035  0.2752  0.3408
  157SAPE   O1417489   1.406   1.680  10.718  0.0939 -0.2775  0.4577
  157SAPE   O1217490   1.494   1.466  10.636  0.2862 -0.1026  0.2703
  157SAPE   O1117491   1.293   1.563  10.527 -0.1868 -0.2294 -0.3306
  157SAPE    C117492   1.241   1.445  10.461  0.8249 -0.0028 -0.3556
  157SAPE    HA17493   1.217   1.362  10.530 -1.9463 -0.4587 -1.7484
  157SAPE    HB17494   1.143   1.471  10.417  0.7419 -1.0767 -0.8260
  157SAPE    C217495   1.325   1.394  10.340 -0.0588  0.2495 -0.1680
  157SAPE    HS17496   1.422   1.356  10.378  0.1702 -2.0836 -2.7570
  157SAPE   O2117497   1.351   1.508  10.254  0.6851  0.1245  0.0552
  157SAPE   C2117498   1.467   1.566  10.254  0.6547 -0.8252 -0.8186
  157SAPE   O2217499   1.565   1.535  10.320 -0.9968 -0.0768  0.2924
  157SAPE   C2217500   1.469   1.674  10.152  0.4442 -0.5967 -0.7249
  157SAPE   H2R17501   1.464   1.628  10.051 -0.6605 -1.6012 -0.2348
  157SAPE   H2S17502   1.382   1.742  10.160  1.5271  0.6151  2.4393
  157SAPE    C317503   1.250   1.283  10.255  0.2088 -0.0225  0.0565
  157SAPE    HX17504   1.157   1.320  10.206  0.3565 -0.5836 -0.6505
  157SAPE    HY17505   1.214   1.208  10.330  1.1024  0.0883  0.6071
  157SAPE   O3117506   1.332   1.220  10.153 -0.6638 -0.0192 -0.1836
  157SAPE   C3117507   1.277   1.112  10.106  1.0386 -1.0732  0.4463
  157SAPE   O3217508   1.159   1.077  10.124  0.2807 -0.6675  0.2710
  157SAPE   C3217509   1.373   1.037  10.019  0.1707  0.4892  0.7921
  157SAPE   H2X17510   1.401   0.945  10.075 -0.7322  0.5038  1.2786
  157SAPE   H2Y17511   1.471   1.089  10.022  0.2371  0.3752  0.5716
  157SAPE   C2317512   1.605   1.749  10.158  0.6097 -0.1034 -0.0205
  157SAPE   H3R17513   1.694   1.693  10.194  0.2012  0.5443  2.1134
  157SAPE   H3S17514   1.585   1.836  10.225  1.1429  0.1032 -0.1253
  157SAPE   C2417515   1.662   1.785  10.019  0.5924  0.3383 -0.1008
  157SAPE   H4R17516   1.681   1.688   9.967  2.5845  1.1317 -1.0032
  157SAPE   H4S17517   1.759   1.836  10.037  1.8542 -1.6271 -0.9811
  157SAPE   C2517518   1.559   1.876   9.949  0.3906  0.4356 -0.1721
  157SAPE   H5R17519   1.498   1.942  10.012  0.8871 -0.5650  1.4084
  157SAPE   C2617520   1.527   1.875   9.814 -0.0745  0.0763  0.6358
  157SAPE   H6R17521   1.436   1.919   9.772  0.2225 -1.1761 -1.4729
  157SAPE   C2717522   1.581   1.776   9.714  0.3545  0.0391  0.2141
  157SAPE   H7R17523   1.691   1.773   9.731  0.2121  2.7397  2.2097
  157SAPE   H7S17524   1.569   1.819   9.613 -1.1038  0.6156  0.6041
  157SAPE   C2817525   1.507   1.641   9.724 -0.3142 -0.1772  0.3430
  157SAPE   H8R17526   1.471   1.618   9.825 -2.3625  2.7813  0.3863
  157SAPE   C2917527   1.488   1.553   9.624  0.3936  0.5051  0.1584
  157SAPE   H9R17528   1.426   1.463   9.635 -2.7887  2.4605 -0.5504
  157SAPE  C21017529   1.536   1.568   9.481 -0.8705  0.2606  0.4409
  157SAPE  H10R17530   1.503   1.487   9.413 -1.3656  0.4269  0.4795
  157SAPE  H10S17531   1.645   1.548   9.480 -1.1391 -1.5646 -2.0724
  157SAPE  C21117532   1.493   1.698   9.409 -0.2289  0.4440  0.8595
  157SAPE  H11R17533   1.423   1.763   9.465 -1.6007 -0.7525  0.5887
  157SAPE  C21217534   1.536   1.751   9.293  0.0842  0.5763 -0.4417
  157SAPE  H12R17535   1.485   1.838   9.248 -1.4792  1.3593  2.5207
  157SAPE  C21317536   1.640   1.687   9.213 -0.7929 -0.3565  0.9925
  157SAPE  H13R17537   1.720   1.660   9.285 -0.6758 -2.0032  0.3036
  157SAPE  H13S17538   1.684   1.770   9.154 -1.0922 -1.7908 -1.3861
  157SAPE  C21417539   1.596   1.574   9.121 -0.2434  0.4264  0.3085
  157SAPE  H14R17540   1.527   1.498   9.159  1.3114 -0.7255  0.9151
  157SAPE  C21517541   1.637   1.545   8.994 -0.3438 -0.1236  0.2052
  157SAPE  H15R17542   1.585   1.466   8.938  0.8790 -0.3298 -0.6685
  157SAPE  C21617543   1.737   1.620   8.911 -0.7976 -0.0731  0.0346
  157SAPE  H16R17544   1.742   1.724   8.950  1.1446  1.2953 -3.4598
  157SAPE  H16S17545   1.708   1.634   8.805 -1.5452 -0.0721  0.2274
  157SAPE  C21717546   1.879   1.565   8.925 -0.3893  0.3154 -0.2313
  157SAPE  H17R17547   1.893   1.554   9.035 -2.9807  0.3930  0.1631
  157SAPE  H17S17548   1.954   1.638   8.888  0.4198 -0.2458  0.2409
  157SAPE  C21817549   1.914   1.435   8.856 -0.3798 -0.2324  1.1353
  157SAPE  H18R17550   1.849   1.357   8.901  0.3090 -0.7398  1.2770
  157SAPE  H18S17551   2.017   1.397   8.873  0.2489  2.1021  3.1032
  157SAPE  C21917552   1.898   1.444   8.701  0.1279  0.0047  0.2448
  157SAPE  H19R17553   1.946   1.537   8.665  1.3804 -1.4111 -2.0241
  157SAPE  H19S17554   1.790   1.458   8.678  0.2428 -1.4029 -1.3994
  157SAPE  C22017555   1.944   1.327   8.613 -0.0341  0.1262  0.5748
  157SAPE  H20R17556   1.878   1.307   8.525  0.5965  0.1747  0.0858
  157SAPE  H20S17557   1.954   1.235   8.674  0.9612  1.8817  3.2124
  157SAPE  H20T17558   2.042   1.354   8.568  0.1985 -0.4525  0.7343
  157SAPE   C3317559   1.298   0.989   9.889  0.1646 -0.0052  0.1986
  157SAPE   H3X17560   1.198   0.942   9.902  0.7408 -1.2659  0.3190
  157SAPE   H3Y17561   1.362   0.908   9.847  1.0686 -0.2372  1.9092
  157SAPE   C3417562   1.298   1.103   9.787  0.1276 -0.0982 -0.2213
  157SAPE   H4X17563   1.395   1.158   9.788 -0.2621  0.6455 -1.1948
  157SAPE   H4Y17564   1.214   1.170   9.816  0.7750  1.0538 -0.9212
  157SAPE   C3517565   1.272   1.047   9.648  0.4564  0.1511 -0.5781
  157SAPE   H5X17566   1.179   0.987   9.644 -1.0146  1.8585  3.2487
  157SAPE   H5Y17567   1.363   0.996   9.611 -1.1838 -1.4138 -2.6662
  157SAPE   C3617568   1.254   1.160   9.544 -0.4093 -0.5669 -0.6648
  157SAPE   H6X17569   1.341   1.226   9.525 -0.2947 -0.3577  0.5131
  157SAPE   H6Y17570   1.170   1.218   9.588 -0.2499 -1.2895  0.6624
  157SAPE   C3717571   1.219   1.093   9.413 -0.0672 -0.0302  0.1819
  157SAPE   H7X17572   1.112   1.064   9.423  0.1588 -0.4369  1.6343
  157SAPE   H7Y17573   1.280   1.004   9.388 -0.4422 -0.6094  1.2541
  157SAPE   C3817574   1.225   1.191   9.300  0.2803  0.6355  0.5017
  157SAPE   H8X17575   1.327   1.211   9.261 -0.7948  0.3722 -2.7854
  157SAPE   H8Y17576   1.184   1.291   9.328 -1.1084  0.3608 -0.4126
  157SAPE   C3917577   1.148   1.148   9.176 -0.3145 -0.0287  0.7278
  157SAPE   H9X17578   1.136   1.225   9.097 -1.0515 -3.0143 -2.2897
  157SAPE   H9Y17579   1.045   1.110   9.192 -0.8540  0.4194 -1.3519
  157SAPE  C31017580   1.221   1.033   9.103  0.2063 -1.0057  0.7687
  157SAPE  H10X17581   1.212   0.946   9.171  0.8555 -2.8759 -1.3798
  157SAPE  H10Y17582   1.326   1.067   9.090  0.2839 -1.9470 -1.8915
  157SAPE  C31117583   1.158   0.991   8.966  0.3987 -0.4608  0.2320
  157SAPE  H11X17584   1.049   0.987   8.988  0.3942 -2.2606  0.0511
  157SAPE  H11Y17585   1.198   0.890   8.944 -0.7446 -0.8841  0.0313
  157SAPE  C31217586   1.181   1.085   8.847 -0.3383 -0.2052  1.2452
  157SAPE  H12X17587   1.288   1.114   8.852 -0.2885  0.0525 -0.4873
  157SAPE  H12Y17588   1.122   1.179   8.850 -0.8686 -0.5505  1.9692
  157SAPE  C31317589   1.165   1.023   8.699 -0.2008 -0.9594 -0.1915
  157SAPE  H13X17590   1.057   0.995   8.698 -0.6052  0.5386 -0.2592
  157SAPE  H13Y17591   1.235   0.937   8.683  0.0421 -1.0145  1.1211
  157SAPE  C31417592   1.191   1.122   8.584  0.1219  0.7689 -0.2540
  157SAPE  H14X17593   1.300   1.143   8.577  0.4893 -0.4654  1.2646
  157SAPE  H14Y17594   1.132   1.214   8.604  0.1947  0.2740  2.5834
  157SAPE  C31517595   1.141   1.064   8.451 -0.5469 -0.9523 -0.7296
  157SAPE  H15X17596   1.031   1.050   8.461 -0.6666 -0.1636 -0.8450
  157SAPE  H15Y17597   1.183   0.963   8.437  2.8735  0.0864  0.8053
  157SAPE  C31617598   1.178   1.149   8.326  0.2539  0.0334  0.3870
  157SAPE  H16X17599   1.288   1.149   8.309  0.3212  0.4146  0.8078
  157SAPE  H16Y17600   1.148   1.255   8.337 -0.2855  0.0554 -1.0498
  157SAPE  C31717601   1.094   1.099   8.204  0.4728 -0.7930  0.2289
  157SAPE  H17X17602   1.127   1.149   8.110 -1.0005  0.6104  0.4265
  157SAPE  H17Y17603   0.992   1.140   8.216  1.2083  0.5214  2.5219
  157SAPE  C31817604   1.101   0.952   8.177 -0.1635  0.0355  0.0903
  157SAPE  H18X17605   1.047   0.942   8.080  2.4523  1.5336 -1.6318
  157SAPE  H18Y17606   1.044   0.902   8.259 -2.1656  0.5265 -0.9477
  157SAPE  H18Z17607   1.198   0.902   8.157  0.7894  2.3790 -1.6134
  158SAPE     N17608   3.699   1.932  10.462 -0.1514 -0.2183  0.0299
  158SAPE   HN117609   3.797   1.905  10.482  1.0541  1.6378 -2.7221
  158SAPE   HN217610   3.666   1.984  10.545 -0.2887 -1.5988  0.8683
  158SAPE   HN317611   3.643   1.845  10.454 -3.9429  1.5364  3.7559
  158SAPE   C1217612   3.686   1.999  10.327  0.0794 -0.6201  0.3321
  158SAPE  H12A17613   3.712   1.927  10.247  0.1216  1.2063 -1.3851
  158SAPE  H12B17614   3.755   2.086  10.325 -1.3667  0.5825 -1.5123
  158SAPE   C1117615   3.534   2.042  10.307 -0.1593 -0.2002  0.5509
  158SAPE  H11A17616   3.467   1.954  10.310 -1.3452  0.6788  3.1704
  158SAPE  H11B17617   3.539   2.090  10.207  1.3665  0.7512  1.0518
  158SAPE     P17618   3.354   2.206  10.403 -0.0957  0.2795  0.0129
  158SAPE   O1317619   3.267   2.151  10.506  0.1963  0.2058  0.5588
  158SAPE   O1417620   3.372   2.354  10.402 -0.3378 -0.1590 -0.3606
  158SAPE   O1217621   3.499   2.136  10.411  0.6161 -0.1114  0.2012
  158SAPE   O1117622   3.294   2.177  10.263 -0.1061  0.0348  0.0603
  158SAPE    C117623   3.164   2.136  10.257 -0.2011 -0.4917 -0.0482
  158SAPE    HA17624   3.091   2.186  10.324 -0.7314 -0.1959 -0.8311
  158SAPE    HB17625   3.123   2.161  10.157  0.1809  0.0490 -0.0741
  158SAPE    C217626   3.145   1.982  10.274  0.9131 -0.3868  0.8517
  158SAPE    HS17627   3.176   1.949  10.376  2.1724 -0.5448  0.4259
  158SAPE   O2117628   3.220   1.918  10.162 -0.1755  0.0932  0.3165
  158SAPE   C2117629   3.240   1.787  10.189  0.0355 -0.1841  0.9809
  158SAPE   O2217630   3.219   1.728  10.290 -0.2550 -0.0886 -0.0792
  158SAPE   C2217631   3.291   1.724  10.059  0.6440 -0.3383 -0.8357
  158SAPE   H2R17632   3.328   1.619  10.067 -0.6364 -0.8851 -1.8467
  158SAPE   H2S17633   3.213   1.724   9.980 -0.2106  2.5838 -0.1169
  158SAPE    C317634   2.984   1.941  10.272  0.1254 -0.2923 -0.2616
  158SAPE    HX17635   2.947   1.964  10.374  0.9086  0.8520 -0.2162
  158SAPE    HY17636   2.963   1.833  10.260  0.2694 -0.6299  2.0994
  158SAPE   O3117637   2.922   2.019  10.167 -0.7529 -0.5750 -0.3185
  158SAPE   C3117638   2.923   1.942  10.050  0.0929 -0.5038  0.3485
  158SAPE   O3217639   2.909   1.821  10.045  0.6108  0.0297 -0.0683
  158SAPE   C3217640   2.940   2.033   9.926 -0.3141 -0.3336 -0.4922
  158SAPE   H2X17641   3.024   2.100   9.954 -0.6999  1.0031 -2.3506
  158SAPE   H2Y17642   2.849   2.096   9.917 -0.2834 -0.0697  0.8408
  158SAPE   C2317643   3.408   1.802  10.001 -0.3125 -0.0820 -0.3527
  158SAPE   H3R17644   3.498   1.800  10.066  0.7050  1.6051 -1.6273
  158SAPE   H3S17645   3.389   1.911   9.991  0.4910  0.0745 -0.2247
  158SAPE   C2417646   3.455   1.746   9.869  0.5900 -0.7347 -0.3192
  158SAPE   H4R17647   3.505   1.647   9.883  1.4131 -0.3013 -0.1146
  158SAPE   H4S17648   3.536   1.808   9.825 -0.1859 -0.6286 -1.6505
  158SAPE   C2517649   3.354   1.731   9.754  0.4026  0.4770 -1.1598
  158SAPE   H5R17650   3.262   1.678   9.783 -0.2752  2.1159 -0.2174
  158SAPE   C2617651   3.342   1.788   9.629 -0.1277  0.2252 -0.7198
  158SAPE   H6R17652   3.259   1.756   9.566 -0.5340  0.2261 -0.1939
  158SAPE   C2717653   3.434   1.886   9.555  0.5423  0.4964 -0.4971
  158SAPE   H7R17654   3.427   1.987   9.601 -0.2378  0.5716 -0.7652
  158SAPE   H7S17655   3.391   1.901   9.453 -1.9348  0.2342  0.4350
  158SAPE   C2817656   3.579   1.841   9.540  0.0553 -0.1540 -0.0323
  158SAPE   H8R17657   3.628   1.818   9.636  0.5032  2.6062  0.4949
  158SAPE   C2917658   3.657   1.834   9.423  0.3236 -0.2518  0.9502
  158SAPE   H9R17659   3.765   1.819   9.437  0.5735 -0.8259 -1.2339
  158SAPE  C21017660   3.615   1.867   9.278  0.1579  0.2463  0.3134
  158SAPE  H10R17661   3.702   1.861   9.209 -0.0144 -2.2806  0.2322
  158SAPE  H10S17662   3.584   1.973   9.263 -0.3123 -0.1689 -2.1400
  158SAPE  C21117663   3.508   1.776   9.223 -0.4905  0.8970  0.6586
  158SAPE  H11R17664   3.451   1.718   9.297 -0.9470 -0.7911 -0.9588
  158SAPE  C21217665   3.482   1.756   9.096 -0.1396  0.1307  0.0131
  158SAPE  H12R17666   3.395   1.695   9.067 -0.9236  1.0950  0.2902
  158SAPE  C21317667   3.570   1.832   8.995  0.9425 -0.3004 -0.4869
  158SAPE  H13R17668   3.564   1.940   9.021  0.6707 -0.9768  2.6025
  158SAPE  H13S17669   3.515   1.816   8.900 -1.3565 -0.6446  0.8343
  158SAPE  C21417670   3.711   1.782   8.971  0.3455  0.6064 -0.7528
  158SAPE  H14R17671   3.788   1.849   9.013 -0.9138  0.9557  1.1415
  158SAPE  C21517672   3.752   1.662   8.914  0.0937  0.4918 -0.7662
  158SAPE  H15R17673   3.859   1.657   8.887  0.4433  0.7714  0.5247
  158SAPE  C21617674   3.662   1.559   8.859 -0.1935  0.1509  0.5371
  158SAPE  H16R17675   3.573   1.605   8.810 -0.1762 -2.1669 -1.9062
  158SAPE  H16S17676   3.630   1.497   8.945  0.3994 -0.9673 -0.0183
  158SAPE  C21717677   3.747   1.468   8.765  1.1775  0.0095 -0.9578
  158SAPE  H17R17678   3.697   1.374   8.735  0.6474  0.0982 -0.3784
  158SAPE  H17S17679   3.841   1.441   8.817  1.8402  1.2888 -1.4517
  158SAPE  C21817680   3.775   1.553   8.637 -0.5264  0.0874 -0.1347
  158SAPE  H18R17681   3.811   1.656   8.657  0.3481 -0.0399 -0.9564
  158SAPE  H18S17682   3.678   1.559   8.583  0.2236  2.4125 -1.3846
  158SAPE  C21917683   3.872   1.478   8.557  0.1642 -0.2355  0.4792
  158SAPE  H19R17684   3.881   1.533   8.461  0.6236 -0.0718  0.6127
  158SAPE  H19S17685   3.829   1.379   8.530  0.1052 -0.0059 -0.2918
  158SAPE  C22017686   4.010   1.465   8.611 -0.0215  0.0425 -0.4081
  158SAPE  H20R17687   4.053   1.567   8.619  0.4673 -0.1244 -0.8040
  158SAPE  H20S17688   4.084   1.414   8.545  0.4427  1.2588 -0.8706
  158SAPE  H20T17689   4.010   1.411   8.708 -1.8330  1.9583  0.7326
  158SAPE   C3317690   2.965   1.951   9.807 -0.5564  0.0305 -0.0228
  158SAPE   H3X17691   2.885   1.874   9.798  2.3166 -3.0110 -2.2314
  158SAPE   H3Y17692   3.065   1.911   9.833 -0.0501  1.4948  0.3762
  158SAPE   C3417693   2.962   2.039   9.681  0.0269  0.2584 -0.0614
  158SAPE   H4X17694   3.023   2.128   9.706 -0.8726  1.3509 -1.6293
  158SAPE   H4Y17695   2.857   2.070   9.662 -0.4055 -1.7654 -1.3293
  158SAPE   C3517696   3.009   1.964   9.555  0.0545 -0.1416  0.5368
  158SAPE   H5X17697   2.941   1.877   9.544 -1.4404  1.1752 -1.2148
  158SAPE   H5Y17698   3.115   1.945   9.582 -0.3524 -0.1697  2.2240
  158SAPE   C3617699   3.009   2.041   9.426 -0.0387 -0.7479  0.1353
  158SAPE   H6X17700   3.062   2.137   9.443 -0.2525 -1.1397  3.6251
  158SAPE   H6Y17701   2.908   2.064   9.385  0.2938  1.5813  0.4946
  158SAPE   C3717702   3.087   1.964   9.319  0.5335 -0.5754 -0.4464
  158SAPE   H7X17703   3.062   1.856   9.311  0.2534 -0.5605  0.1611
  158SAPE   H7Y17704   3.196   1.978   9.338  0.6730 -1.6885 -0.3233
  158SAPE   C3817705   3.063   2.030   9.182 -0.9740  0.3877 -0.0602
  158SAPE   H8X17706   3.097   2.136   9.189  0.4979 -0.0607 -0.1750
  158SAPE   H8Y17707   2.958   2.025   9.143 -1.9391 -3.5726  2.5148
  158SAPE   C3917708   3.154   1.963   9.078 -0.2549 -0.0211  0.0145
  158SAPE   H9X17709   3.120   1.861   9.051 -0.7331 -0.4959  2.1921
  158SAPE   H9Y17710   3.258   1.961   9.118 -0.2352 -1.3906 -0.0775
  158SAPE  C31017711   3.149   2.037   8.937  0.6949  0.7006  0.2732
  158SAPE  H10X17712   3.184   2.141   8.954  0.8374  0.7759 -0.4856
  158SAPE  H10Y17713   3.043   2.044   8.903  0.5033 -0.0304  0.6717
  158SAPE  C31117714   3.241   1.997   8.824  0.2269 -0.0460  0.5749
  158SAPE  H11X17715   3.344   2.002   8.865  0.4612  1.3071 -0.1139
  158SAPE  H11Y17716   3.239   2.083   8.753 -1.6257 -0.1160  0.4982
  158SAPE  C31217717   3.201   1.863   8.755 -0.2628 -0.4120  0.1444
  158SAPE  H12X17718   3.105   1.875   8.700 -1.1648  0.8917  1.8951
  158SAPE  H12Y17719   3.197   1.784   8.833 -0.9374  1.5573  2.2063
  158SAPE  C31317720   3.309   1.827   8.658 -0.5664 -0.0006  0.0412
  158SAPE  H13X17721   3.411   1.827   8.702  0.0246 -0.0676 -1.2885
  158SAPE  H13Y17722   3.308   1.909   8.583 -2.2233  0.3774  0.4254
  158SAPE  C31417723   3.304   1.690   8.592 -0.2912 -0.0019  0.2977
  158SAPE  H14X17724   3.207   1.670   8.542  1.0158 -2.4701 -1.4620
  158SAPE  H14Y17725   3.320   1.615   8.672  0.8091  0.6445  0.7070
  158SAPE  C31517726   3.409   1.672   8.479 -0.1322 -0.6696 -0.4101
  158SAPE  H15X17727   3.505   1.684   8.533 -0.8136 -2.2899  1.3110
  158SAPE  H15Y17728   3.405   1.756   8.407  2.5386 -2.1938 -2.5143
  158SAPE  C31617729   3.405   1.531   8.421  0.7569  0.4901 -0.1816
  158SAPE  H16X17730   3.307   1.530   8.368  0.7632 -3.5352 -0.4325
  158SAPE  H16Y17731   3.399   1.454   8.501  2.9578  0.6693  0.2147
  158SAPE  C31717732   3.521   1.487   8.334  0.3381 -0.8544  0.9953
  158SAPE  H17X17733   3.491   1.388   8.294  1.1875 -0.8849  0.4143
  158SAPE  H17Y17734   3.618   1.473   8.386  1.3070 -0.6778 -0.7010
  158SAPE  C31817735   3.538   1.576   8.203 -0.0414 -0.0441 -0.4067
  158SAPE  H18X17736   3.584   1.511   8.126  1.2985  0.9224 -0.4585
  158SAPE  H18Y17737   3.595   1.670   8.218  1.4977 -0.8406 -1.0475
  158SAPE  H18Z17738   3.438   1.618   8.180  0.0686  1.4780  1.6447
  159SAPE     N17739   1.261   0.458   6.360  0.1439 -0.2146 -0.4822
  159SAPE   HN117740   1.298   0.542   6.312  0.1795  0.2613  0.3438
  159SAPE   HN217741   1.268   0.383   6.289  3.0662  0.3423 -0.9095
  159SAPE   HN317742   1.160   0.471   6.381 -0.1650 -0.9129 -1.4804
  159SAPE   C1217743   1.345   0.406   6.471  1.0193  1.1783  0.5077
  159SAPE  H12A17744   1.362   0.482   6.550  2.0220  1.3983  0.0865
  159SAPE  H12B17745   1.446   0.404   6.425  1.0380  0.8967  0.5567
  159SAPE   C1117746   1.291   0.272   6.531 -0.3231 -0.0274 -0.7076
  159SAPE  H11A17747   1.184   0.282   6.558 -0.5638 -1.6071 -1.0061
  159SAPE  H11B17748   1.345   0.262   6.628 -0.7122 -0.7604 -0.5635
  159SAPE     P17749   1.425   0.066   6.452  0.1580 -0.3256 -0.0902
  159SAPE   O1317750   1.389  -0.055   6.382 -0.2559  0.1196 -0.2306
  159SAPE   O1417751   1.547   0.137   6.401  0.0167  0.1224  0.8407
  159SAPE   O1217752   1.300   0.163   6.440 -0.3315 -0.3438 -0.1787
  159SAPE   O1117753   1.440   0.035   6.606  0.0358  0.3289  0.1108
  159SAPE    C117754   1.332  -0.031   6.679 -0.4948 -0.3394  0.6949
  159SAPE    HA17755   1.337   0.013   6.781  1.3016  2.0450 -0.3119
  159SAPE    HB17756   1.226  -0.017   6.648 -0.4138 -2.0466 -0.4673
  159SAPE    C217757   1.359  -0.184   6.694  0.3991  0.0802  0.7482
  159SAPE    HS17758   1.331  -0.227   6.595  0.9935  0.4974  0.3951
  159SAPE   O2117759   1.266  -0.225   6.803 -0.5134 -0.1750 -0.1467
  159SAPE   C2117760   1.231  -0.349   6.808 -0.1085 -0.1714  0.5918
  159SAPE   O2217761   1.263  -0.442   6.739  0.2973  0.5927 -0.8949
  159SAPE   C2217762   1.137  -0.357   6.938 -0.0481 -0.0008 -1.0937
  159SAPE   H2R17763   1.110  -0.253   6.966 -1.1583 -0.8684  1.3199
  159SAPE   H2S17764   1.052  -0.420   6.905  0.1136  0.0122 -1.5410
  159SAPE    C317765   1.503  -0.224   6.726 -0.2189 -0.5215 -0.3381
  159SAPE    HX17766   1.561  -0.178   6.643 -0.9202 -1.2188 -1.2395
  159SAPE    HY17767   1.519  -0.334   6.722 -0.0456 -0.4627 -1.7692
  159SAPE   O3117768   1.547  -0.158   6.849 -0.2736 -0.5041  0.4752
  159SAPE   C3117769   1.657  -0.197   6.903  0.2647 -0.0370  0.5491
  159SAPE   O3217770   1.737  -0.284   6.867  0.5679  0.5678  0.6292
  159SAPE   C3217771   1.676  -0.122   7.042 -0.4081  0.4255 -0.1615
  159SAPE   H2X17772   1.579  -0.082   7.081  0.6246  2.1397  0.7550
  159SAPE   H2Y17773   1.748  -0.041   7.021 -0.6230  0.9774  1.1353
  159SAPE   C2317774   1.218  -0.423   7.056  0.7119  1.2115  0.5095
  159SAPE   H3R17775   1.282  -0.505   7.019 -1.1515 -1.1008  2.0855
  159SAPE   H3S17776   1.164  -0.475   7.138  0.9586  0.7654  0.3877
  159SAPE   C2417777   1.316  -0.322   7.126 -0.1852 -0.5344 -0.3768
  159SAPE   H4R17778   1.399  -0.291   7.059  1.1260 -1.0292  0.9724
  159SAPE   H4S17779   1.370  -0.379   7.205 -0.7424 -0.8520 -0.2182
  159SAPE   C2517780   1.257  -0.199   7.183 -0.0106  0.0900 -0.0423
  159SAPE   H5R17781   1.237  -0.114   7.115 -0.4218 -1.0883 -1.4328
  159SAPE   C2617782   1.206  -0.193   7.309  0.5851  0.7419 -0.0160
  159SAPE   H6R17783   1.149  -0.104   7.340 -3.5353 -1.7992  0.3668
  159SAPE   C2717784   1.200  -0.295   7.414  0.1894 -0.1529 -0.3502
  159SAPE   H7R17785   1.163  -0.390   7.370 -1.4169 -0.2530  1.0906
  159SAPE   H7S17786   1.133  -0.260   7.495 -1.3328  0.8289 -1.9545
  159SAPE   C2817787   1.334  -0.325   7.474 -0.5392 -0.0216  0.4143
  159SAPE   H8R17788   1.418  -0.279   7.420 -1.4898 -1.1131 -2.1512
  159SAPE   C2917789   1.350  -0.410   7.584  0.2890 -0.0191  1.0009
  159SAPE   H9R17790   1.450  -0.426   7.626  0.9031  0.9096 -0.0666
  159SAPE  C21017791   1.244  -0.475   7.668 -0.3722  0.3286  0.9902
  159SAPE  H10R17792   1.145  -0.450   7.622 -0.1124  0.2095  0.3475
  159SAPE  H10S17793   1.254  -0.439   7.772  1.5961  2.1911  0.2281
  159SAPE  C21117794   1.261  -0.629   7.667 -0.4554 -0.4136 -0.8666
  159SAPE  H11R17795   1.304  -0.683   7.581 -0.2989 -0.8483 -0.5200
  159SAPE  C21217796   1.230  -0.701   7.777  0.4404 -0.3856  0.5193
  159SAPE  H12R17797   1.241  -0.810   7.772 -0.1940 -0.5058  1.4146
  159SAPE  C21317798   1.168  -0.658   7.911 -0.3998  0.6775 -0.1367
  159SAPE  H13R17799   1.248  -0.601   7.963 -0.4195 -0.2438  0.9397
  159SAPE  H13S17800   1.151  -0.746   7.976 -0.6567  0.3618 -0.6234
  159SAPE  C21417801   1.050  -0.568   7.926 -0.3264  0.1610  0.0100
  159SAPE  H14R17802   0.979  -0.554   7.842 -0.5822 -0.2923  0.1452
  159SAPE  C21517803   1.011  -0.533   8.046 -0.4595  0.0412 -0.5349
  159SAPE  H15R17804   0.927  -0.463   8.054 -0.8494 -0.4120 -0.5780
  159SAPE  C21617805   1.085  -0.564   8.179  0.3106  0.0238  0.2232
  159SAPE  H16R17806   1.182  -0.611   8.152 -0.8391 -2.1522 -0.3353
  159SAPE  H16S17807   1.053  -0.642   8.252 -0.1135  2.2032  2.5098
  159SAPE  C21717808   1.122  -0.432   8.252 -0.8424 -0.1197 -1.0210
  159SAPE  H17R17809   1.121  -0.350   8.177 -1.3428  0.0008 -0.8817
  159SAPE  H17S17810   1.228  -0.434   8.287 -0.5584 -1.3897 -1.8928
  159SAPE  C21817811   1.022  -0.397   8.363 -0.5401 -0.1825 -0.0362
  159SAPE  H18R17812   1.026  -0.477   8.440  2.5157 -0.0994 -0.0171
  159SAPE  H18S17813   0.922  -0.386   8.316 -1.8796 -1.1082  2.4327
  159SAPE  C21917814   1.045  -0.253   8.426  0.0205  0.4549  0.0254
  159SAPE  H19R17815   1.080  -0.184   8.346  1.5461  0.3363  0.5582
  159SAPE  H19S17816   1.131  -0.275   8.493 -1.0292 -0.3835  1.1416
  159SAPE  C22017817   0.921  -0.205   8.502  0.2913 -0.1437 -0.6283
  159SAPE  H20R17818   0.922  -0.094   8.506 -0.4265 -0.0204 -2.8712
  159SAPE  H20S17819   0.914  -0.250   8.604  2.3619  0.0692 -0.3438
  159SAPE  H20T17820   0.824  -0.222   8.451 -0.4502  0.0106  0.6810
  159SAPE   C3317821   1.720  -0.230   7.139  0.1181  0.4048  0.1870
  159SAPE   H3X17822   1.827  -0.251   7.114 -0.1213 -0.2613 -0.3187
  159SAPE   H3Y17823   1.656  -0.318   7.116  1.1590  0.2006 -2.2508
  159SAPE   C3417824   1.684  -0.199   7.279 -0.1351 -0.1539 -0.4772
  159SAPE   H4X17825   1.578  -0.170   7.291  0.7767  2.3006  3.1883
  159SAPE   H4Y17826   1.755  -0.117   7.303 -1.4045  1.1644 -1.1215
  159SAPE   C3517827   1.712  -0.311   7.381 -0.3875  0.3797 -0.3289
  159SAPE   H5X17828   1.651  -0.400   7.357  2.7597 -2.0395  0.1006
  159SAPE   H5Y17829   1.667  -0.273   7.476 -1.4919  0.3521 -0.8306
  159SAPE   C3617830   1.858  -0.349   7.398  0.1703 -0.6945  0.1899
  159SAPE   H6X17831   1.908  -0.251   7.414 -1.8456  0.4166 -0.0348
  159SAPE   H6Y17832   1.887  -0.388   7.298  0.8133 -0.4486  0.2759
  159SAPE   C3717833   1.887  -0.456   7.502 -0.2357 -0.3324  0.3400
  159SAPE   H7X17834   1.997  -0.466   7.510  0.2836  3.5185 -0.0999
  159SAPE   H7Y17835   1.836  -0.551   7.476  0.4292 -0.4528 -0.5672
  159SAPE   C3817836   1.849  -0.429   7.641 -0.1371 -0.2121 -0.7401
  159SAPE   H8X17837   1.739  -0.432   7.650 -0.0943  1.3411  0.8712
  159SAPE   H8Y17838   1.878  -0.325   7.667  2.0817 -1.1502  0.8582
  159SAPE   C3917839   1.919  -0.524   7.738  0.1731 -0.5304  0.0497
  159SAPE   H9X17840   2.029  -0.522   7.720 -0.0234 -1.8344 -1.5002
  159SAPE   H9Y17841   1.868  -0.622   7.736 -2.3359  0.6779  0.9671
  159SAPE  C31017842   1.912  -0.471   7.890  0.1009 -0.2842 -0.2156
  159SAPE  H10X17843   1.804  -0.455   7.910  0.5800  1.9605  0.7870
  159SAPE  H10Y17844   1.962  -0.374   7.907 -0.3129  0.0059 -0.6383
  159SAPE  C31117845   1.967  -0.564   7.992 -0.1385 -0.8910 -0.6316
  159SAPE  H11X17846   1.951  -0.512   8.090  1.9753  0.4337 -0.9202
  159SAPE  H11Y17847   2.077  -0.564   7.978 -0.0125  0.7589  0.0313
  159SAPE  C31217848   1.910  -0.701   7.998  0.1047  0.2693  0.0078
  159SAPE  H12X17849   1.947  -0.757   7.910  0.9645  0.2581  0.3727
  159SAPE  H12Y17850   1.800  -0.684   7.998 -0.0801 -0.8202 -0.1696
  159SAPE  C31317851   1.943  -0.773   8.131 -0.2233  0.2306  0.0812
  159SAPE  H13X17852   1.908  -0.711   8.217 -0.9654 -2.1581  1.6045
  159SAPE  H13Y17853   2.051  -0.789   8.147 -0.4664 -1.6657  0.0393
  159SAPE  C31417854   1.891  -0.915   8.139 -0.0176 -0.2395 -0.2084
  159SAPE  H14X17855   1.785  -0.903   8.110 -0.1605 -0.0231  0.3859
  159SAPE  H14Y17856   1.887  -0.952   8.244 -0.2440  0.3880  0.0092
  159SAPE  C31517857   1.970  -1.013   8.056  0.0387  0.7282  0.2992
  159SAPE  H15X17858   1.973  -0.973   7.952 -1.4671  2.4006  0.8719
  159SAPE  H15Y17859   1.919  -1.112   8.051 -0.4262  0.9492  0.6580
  159SAPE  C31617860   2.104  -1.051   8.114 -0.5248  0.0704  0.4406
  159SAPE  H16X17861   2.084  -1.064   8.223 -1.3855 -0.5004  0.2261
  159SAPE  H16Y17862   2.173  -0.965   8.104  1.0405 -1.2325 -0.4835
  159SAPE  C31717863   2.146  -1.187   8.049 -0.0934 -0.1470  0.2714
  159SAPE  H17X17864   2.136  -1.195   7.939  2.8979  0.5897 -0.1465
  159SAPE  H17Y17865   2.078  -1.258   8.100 -0.8698  1.2740  1.3145
  159SAPE  C31817866   2.293  -1.222   8.086 -0.4161  0.2658 -0.0516
  159SAPE  H18X17867   2.323  -1.317   8.037 -0.1796  0.2058  0.2092
  159SAPE  H18Y17868   2.304  -1.241   8.195  2.1095 -1.8999 -0.5937
  159SAPE  H18Z17869   2.358  -1.138   8.056 -1.1489  0.4927 -1.0486
  160SAPE     N17870   1.766   0.520   6.164  0.3594  0.2418 -0.1992
  160SAPE   HN117871   1.846   0.493   6.102 -0.1083  1.0548 -1.1942
  160SAPE   HN217872   1.820   0.584   6.225 -1.1778  1.1017  0.3104
  160SAPE   HN317873   1.738   0.440   6.224 -0.4186  1.6507  1.4013
  160SAPE   C1217874   1.640   0.566   6.098  0.2162  0.0006 -0.1306
  160SAPE  H12A17875   1.556   0.532   6.162  0.0876  0.5073 -0.0272
  160SAPE  H12B17876   1.636   0.526   5.995  1.8440  1.3007 -0.7310
  160SAPE   C1117877   1.642   0.722   6.094  0.0247 -0.5426 -0.9146
  160SAPE  H11A17878   1.579   0.758   6.010 -0.5752  0.1132 -0.1944
  160SAPE  H11B17879   1.749   0.747   6.076  0.0922  0.3123  0.4726
  160SAPE     P17880   1.441   0.812   6.248  0.1377  0.5827  0.3068
  160SAPE   O1317881   1.400   0.923   6.156 -0.7267 -0.2453  0.4088
  160SAPE   O1417882   1.354   0.691   6.249  0.3993 -0.3189  0.0975
  160SAPE   O1217883   1.595   0.769   6.223  0.4761  0.0226 -0.2972
  160SAPE   O1117884   1.450   0.864   6.402  0.1317  0.2874  0.6120
  160SAPE    C117885   1.568   0.855   6.474  0.3326  0.2577  0.1820
  160SAPE    HA17886   1.603   0.755   6.507 -1.8941 -0.0061  2.0184
  160SAPE    HB17887   1.650   0.896   6.411  0.4890  1.9931  1.4300
  160SAPE    C217888   1.563   0.939   6.605  0.1606  0.2149  0.4204
  160SAPE    HS17889   1.663   0.947   6.653 -0.2761 -0.5332  1.5030
  160SAPE   O2117890   1.480   0.874   6.700 -0.2859 -0.5971 -0.1323
  160SAPE   C2117891   1.535   0.771   6.760  0.4778 -0.2987 -0.1736
  160SAPE   O2217892   1.654   0.742   6.752 -0.1333 -0.0459 -0.1711
  160SAPE   C2217893   1.430   0.696   6.845  0.1219  0.1427  0.1495
  160SAPE   H2R17894   1.337   0.754   6.861 -1.1877 -2.1041  1.2465
  160SAPE   H2S17895   1.408   0.603   6.789  1.3562 -0.6542  0.9319
  160SAPE    C317896   1.513   1.087   6.577  0.0289 -0.1029 -0.0428
  160SAPE    HX17897   1.419   1.079   6.518 -1.3198  1.1983  1.8051
  160SAPE    HY17898   1.587   1.136   6.511  0.0011 -1.3883 -1.0740
  160SAPE   O3117899   1.484   1.169   6.700  0.1861  0.4933 -0.6816
  160SAPE   C3117900   1.457   1.300   6.678 -0.0424  0.0601  0.4262
  160SAPE   O3217901   1.455   1.356   6.570 -0.5210 -0.6126 -0.4435
  160SAPE   C3217902   1.455   1.377   6.812  0.1059  0.9215  0.2796
  160SAPE   H2X17903   1.558   1.367   6.853  0.6391  1.3380 -0.9158
  160SAPE   H2Y17904   1.378   1.319   6.867  0.4878 -2.6297 -2.5254
  160SAPE   C2317905   1.480   0.649   6.991  0.5580 -0.2472  0.2857
  160SAPE   H3R17906   1.585   0.615   6.991  0.5758 -0.4772  3.5298
  160SAPE   H3S17907   1.414   0.563   7.016 -1.9058  0.6999 -2.3380
  160SAPE   C2417908   1.461   0.757   7.095  0.2400 -0.2696 -1.3676
  160SAPE   H4R17909   1.355   0.787   7.106 -0.4210 -3.0730  2.0898
  160SAPE   H4S17910   1.530   0.843   7.080  2.0630 -1.0176  1.6712
  160SAPE   C2517911   1.499   0.707   7.237  0.7980  0.0433  0.3078
  160SAPE   H5R17912   1.601   0.726   7.274  0.9834 -2.0675  1.0531
  160SAPE   C2617913   1.410   0.653   7.325  0.5331 -0.2692 -0.3595
  160SAPE   H6R17914   1.454   0.604   7.413  1.6657 -0.6514 -1.1058
  160SAPE   C2717915   1.259   0.632   7.312 -0.6007 -0.3968 -0.2332
  160SAPE   H7R17916   1.230   0.545   7.374  0.5734 -1.3023 -0.9227
  160SAPE   H7S17917   1.244   0.595   7.208 -0.8409 -1.3023  0.1215
  160SAPE   C2817918   1.160   0.743   7.338 -0.1494 -0.0716 -0.9869
  160SAPE   H8R17919   1.102   0.772   7.249 -1.4647 -1.1763 -0.5158
  160SAPE   C2917920   1.123   0.808   7.455 -0.3808  0.0903 -0.0662
  160SAPE   H9R17921   1.052   0.892   7.450 -0.1155  0.3793  0.8214
  160SAPE  C21017922   1.186   0.785   7.588  0.1467  0.2242  0.3254
  160SAPE  H10R17923   1.162   0.866   7.660 -0.2834  2.0857 -1.7685
  160SAPE  H10S17924   1.297   0.794   7.584  0.2472 -0.3492  1.4513
  160SAPE  C21117925   1.162   0.658   7.654  0.2368 -0.5502  0.2117
  160SAPE  H11R17926   1.056   0.652   7.686 -0.4070  0.1227 -1.6697
  160SAPE  C21217927   1.249   0.564   7.700  0.3402  0.1491  0.0640
  160SAPE  H12R17928   1.210   0.474   7.749 -1.1790  1.2095  0.8905
  160SAPE  C21317929   1.405   0.574   7.683 -0.5069  0.4540 -0.3771
  160SAPE  H13R17930   1.447   0.672   7.654  1.3520 -0.3515 -0.5263
  160SAPE  H13S17931   1.411   0.528   7.581  1.2956  1.9600 -0.9994
  160SAPE  C21417932   1.472   0.495   7.799 -0.9260 -0.4670  0.2514
  160SAPE  H14R17933   1.431   0.400   7.836 -0.0004 -2.0218 -2.4610
  160SAPE  C21517934   1.578   0.535   7.875  0.9992 -0.7023  0.5419
  160SAPE  H15R17935   1.583   0.490   7.975  1.1294 -1.3818  0.2348
  160SAPE  C21617936   1.648   0.670   7.862  0.6534 -0.0889 -0.0845
  160SAPE  H16R17937   1.588   0.743   7.804 -0.1565 -0.5581  0.1363
  160SAPE  H16S17938   1.737   0.648   7.799  0.4346 -1.6624  0.0966
  160SAPE  C21717939   1.694   0.737   7.996  0.2195  0.2031 -0.4355
  160SAPE  H17R17940   1.736   0.662   8.066  1.8369 -0.4666 -2.0335
  160SAPE  H17S17941   1.612   0.791   8.048 -0.1308 -2.2099  1.7211
  160SAPE  C21817942   1.810   0.829   7.973  0.7372  0.6514 -0.1847
  160SAPE  H18R17943   1.772   0.901   7.897 -1.3716 -0.6726 -0.4929
  160SAPE  H18S17944   1.895   0.773   7.930  0.6965  0.4599 -0.0144
  160SAPE  C21917945   1.849   0.904   8.098  0.4831 -0.8039 -0.1769
  160SAPE  H19R17946   1.869   0.835   8.184 -0.6873 -0.4125  0.4416
  160SAPE  H19S17947   1.768   0.976   8.123  1.5183  0.8506 -1.4333
  160SAPE  C22017948   1.979   0.992   8.086 -0.0099  0.1266  0.1207
  160SAPE  H20R17949   2.068   0.935   8.052 -0.6956  0.9234 -3.3915
  160SAPE  H20S17950   2.004   1.049   8.178  3.4015 -1.7474  0.5396
  160SAPE  H20T17951   1.960   1.061   8.001 -1.7201 -2.6687 -1.9624
  160SAPE   C3317952   1.408   1.518   6.808  0.0187  0.1478 -0.1669
  160SAPE   H3X17953   1.326   1.544   6.738  0.8193  1.7312 -0.5893
  160SAPE   H3Y17954   1.493   1.580   6.772 -1.6554  2.1257 -0.9417
  160SAPE   C3417955   1.377   1.572   6.945  0.1987  0.5728 -1.2934
  160SAPE   H4X17956   1.275   1.537   6.973  0.2137  1.9885  0.7976
  160SAPE   H4Y17957   1.370   1.682   6.929 -3.1613  0.5461 -0.8035
  160SAPE   C3517958   1.478   1.535   7.057 -0.4965 -0.2092 -0.4119
  160SAPE   H5X17959   1.576   1.572   7.020  0.3584 -1.8171  0.1588
  160SAPE   H5Y17960   1.462   1.427   7.074  1.6554 -0.5606 -0.3017
  160SAPE   C3617961   1.451   1.629   7.174 -0.5992 -0.3293  0.5154
  160SAPE   H6X17962   1.346   1.605   7.200 -0.1290 -2.7735  0.3534
  160SAPE   H6Y17963   1.464   1.735   7.143 -1.0677 -0.1376  0.9661
  160SAPE   C3717964   1.541   1.593   7.293 -0.0611 -0.4187 -0.1473
  160SAPE   H7X17965   1.649   1.586   7.270 -0.1223 -2.0351 -0.1056
  160SAPE   H7Y17966   1.505   1.488   7.299 -1.0262 -0.0566  0.7487
  160SAPE   C3817967   1.511   1.674   7.424  0.1771  0.4888 -0.3040
  160SAPE   H8X17968   1.403   1.656   7.442  0.2895 -1.0178 -0.9893
  160SAPE   H8Y17969   1.520   1.782   7.398 -0.2756  0.4928 -0.4569
  160SAPE   C3917970   1.586   1.632   7.547  0.6183  0.0525 -0.9094
  160SAPE   H9X17971   1.693   1.660   7.534  1.0949 -1.9296 -1.5535
  160SAPE   H9Y17972   1.578   1.524   7.572  1.2367  0.0956 -0.5178
  160SAPE  C31017973   1.534   1.707   7.667 -0.1762  0.2804  0.0065
  160SAPE  H10X17974   1.425   1.694   7.686  0.1436 -0.5014  1.4358
  160SAPE  H10Y17975   1.550   1.817   7.658  2.5365 -0.0746 -0.2813
  160SAPE  C31117976   1.622   1.675   7.789  0.0592  0.2891  0.5731
  160SAPE  H11X17977   1.730   1.699   7.779 -0.1666  2.1639  2.0514
  160SAPE  H11Y17978   1.613   1.564   7.800  0.3244  0.1714 -0.3035
  160SAPE  C31217979   1.568   1.743   7.913 -0.4334 -0.2890  0.7727
  160SAPE  H12X17980   1.459   1.733   7.929 -0.3220 -1.7969  0.7325
  160SAPE  H12Y17981   1.589   1.852   7.908  1.0530 -0.5757  0.0980
  160SAPE  C31317982   1.645   1.700   8.039 -0.0844  0.1269  0.6279
  160SAPE  H13X17983   1.755   1.698   8.023 -0.0182  0.2108  1.0451
  160SAPE  H13Y17984   1.613   1.600   8.074  0.2701  0.0127  0.6231
  160SAPE  C31417985   1.626   1.799   8.158  0.1900 -0.4530 -0.3774
  160SAPE  H14X17986   1.527   1.847   8.177  2.3314  3.1692  3.4063
  160SAPE  H14Y17987   1.695   1.885   8.147  2.0307 -1.8929 -0.5520
  160SAPE  C31517988   1.669   1.733   8.286  0.2333  0.6842  0.2929
  160SAPE  H15X17989   1.777   1.708   8.280  0.1094  0.4369 -1.3676
  160SAPE  H15Y17990   1.616   1.636   8.291 -0.0719  0.6748 -2.0482
  160SAPE  C31617991   1.640   1.810   8.403  0.1425 -0.3461  0.5860
  160SAPE  H16X17992   1.532   1.816   8.428  0.4240 -0.0654  1.7831
  160SAPE  H16Y17993   1.687   1.911   8.401  1.2525 -0.8110  1.7959
  160SAPE  C31717994   1.711   1.764   8.530  1.0685 -0.0239  0.4728
  160SAPE  H17X17995   1.727   1.654   8.537  2.6618  0.2137  1.0404
  160SAPE  H17Y17996   1.641   1.778   8.615  1.4811 -2.8873  1.4019
  160SAPE  C31817997   1.846   1.831   8.566  0.3932  0.3277  0.8385
  160SAPE  H18X17998   1.895   1.858   8.470  1.0183  2.5988  1.7255
  160SAPE  H18Y17999   1.901   1.761   8.632 -1.3060  0.4264  2.4483
  160SAPE  H18Z18000   1.816   1.914   8.634 -0.6965 -1.5221  2.7251
  161SAPE     N18001   3.201   4.697   6.038  0.0662 -0.0616  0.0008
  161SAPE   HN118002   3.195   4.721   5.937  2.8781  1.9053  0.1762
  161SAPE   HN218003   3.278   4.758   6.073  1.0818 -1.9722  1.3039
  161SAPE   HN318004   3.225   4.596   6.049 -1.2601 -0.5158 -1.0166
  161SAPE   C1218005   3.082   4.731   6.127  0.3533  0.0671  0.3999
  161SAPE  H12A18006   3.118   4.736   6.232  0.7857  0.3823  0.2448
  161SAPE  H12B18007   3.018   4.642   6.114  2.8350 -2.2470  2.6937
  161SAPE   C1118008   3.032   4.868   6.093 -0.5579  0.7676 -0.0047
  161SAPE  H11A18009   2.949   4.894   6.163  0.7534 -0.5123  2.1258
  161SAPE  H11B18010   2.999   4.877   5.987 -1.7463 -1.8741  0.0642
  161SAPE     P18011   3.138   5.083   6.214 -0.2452 -0.4081  0.0320
  161SAPE   O1318012   3.266   5.083   6.289  0.4614  0.5802  0.0210
  161SAPE   O1418013   3.120   5.215   6.145 -0.1417 -0.5891 -0.7190
  161SAPE   O1218014   3.137   4.961   6.112  0.3714  0.0468 -0.7460
  161SAPE   O1118015   3.013   5.074   6.310  0.3517  0.2100  0.4572
  161SAPE    C118016   3.010   4.997   6.433 -0.2675 -1.2077 -0.8003
  161SAPE    HA18017   2.909   4.952   6.448  0.0255 -0.8307  3.8783
  161SAPE    HB18018   3.083   4.913   6.439  1.8052  0.6146  2.8098
  161SAPE    C218019   3.040   5.092   6.558 -0.3551 -0.3958 -0.0829
  161SAPE    HS18020   3.148   5.115   6.559 -0.5564  0.5918  0.3724
  161SAPE   O2118021   3.002   5.021   6.680  0.7145 -0.3554  0.4946
  161SAPE   C2118022   3.047   5.068   6.789  0.9163  0.7410  0.4105
  161SAPE   O2218023   3.144   5.144   6.801  0.3842  0.0532  0.5495
  161SAPE   C2218024   2.972   4.993   6.896  0.0724  0.0489  0.4431
  161SAPE   H2R18025   2.863   5.014   6.890 -0.0228 -0.4956  0.2410
  161SAPE   H2S18026   2.982   4.883   6.886  0.2576 -0.1475  2.3658
  161SAPE    C318027   2.955   5.218   6.540 -0.8761 -0.0016 -0.2942
  161SAPE    HX18028   2.848   5.192   6.532 -1.2074  0.4414  1.9551
  161SAPE    HY18029   3.001   5.265   6.450  1.0979  0.9594  1.1291
  161SAPE   O3118030   2.960   5.300   6.665 -0.2876 -0.3441 -0.2941
  161SAPE   C3118031   3.036   5.416   6.651 -0.0090  0.1222  0.3912
  161SAPE   O3218032   3.089   5.447   6.546 -0.0341  0.3937 -0.1619
  161SAPE   C3218033   3.029   5.495   6.783 -0.0251  0.0641  0.0726
  161SAPE   H2X18034   3.014   5.415   6.858 -1.4479 -0.6393 -0.8977
  161SAPE   H2Y18035   2.941   5.562   6.785 -0.1222 -0.0296 -0.6034
  161SAPE   C2318036   3.017   5.040   7.043 -0.1378  0.1477 -1.9055
  161SAPE   H3R18037   3.128   5.038   7.039 -0.0990  1.0689 -1.6083
  161SAPE   H3S18038   2.973   4.975   7.121 -0.8015  0.7357 -1.7813
  161SAPE   C2418039   2.967   5.172   7.080 -0.0223  0.6685  0.4818
  161SAPE   H4R18040   3.006   5.250   7.012 -0.7253  0.2997 -0.3640
  161SAPE   H4S18041   3.003   5.210   7.178  0.5619 -1.1999  1.0231
  161SAPE   C2518042   2.817   5.180   7.066 -0.1873  0.0230  0.4693
  161SAPE   H5R18043   2.780   5.179   6.963  0.5109 -0.5120  0.2167
  161SAPE   C2618044   2.725   5.184   7.171 -0.4000 -0.3609  0.5646
  161SAPE   H6R18045   2.617   5.183   7.152 -0.2223  1.6845 -0.7511
  161SAPE   C2718046   2.766   5.179   7.316 -0.0112 -0.0053  0.2352
  161SAPE   H7R18047   2.830   5.267   7.335  2.5818 -1.8238  0.5153
  161SAPE   H7S18048   2.844   5.105   7.343 -0.1174 -0.1134  0.2518
  161SAPE   C2818049   2.657   5.166   7.415 -0.0202  0.0502  0.3937
  161SAPE   H8R18050   2.556   5.169   7.372  0.4492  1.7581 -0.6653
  161SAPE   C2918051   2.676   5.136   7.543  0.3382 -0.2910 -0.4842
  161SAPE   H9R18052   2.587   5.145   7.606  0.2206  0.7581 -0.7735
  161SAPE  C21018053   2.813   5.114   7.606  0.7987  0.1049  0.4404
  161SAPE  H10R18054   2.807   5.184   7.691  0.7972  1.0426 -0.3222
  161SAPE  H10S18055   2.895   5.146   7.538 -0.2374  1.1089 -0.3803
  161SAPE  C21118056   2.840   4.970   7.651  0.0878  0.1499  0.3922
  161SAPE  H11R18057   2.812   4.899   7.572  1.8670  1.6639 -1.7061
  161SAPE  C21218058   2.875   4.937   7.777 -0.5354  0.8041 -0.3957
  161SAPE  H12R18059   2.888   4.830   7.798  1.0922  0.7324 -1.5227
  161SAPE  C21318060   2.909   5.027   7.892  0.0255 -0.6015 -0.4589
  161SAPE  H13R18061   2.830   5.027   7.970  1.0992  1.1691  0.7146
  161SAPE  H13S18062   2.923   5.131   7.855 -2.0224 -0.7176 -1.6931
  161SAPE  C21418063   3.043   4.988   7.942  0.3552  0.2105 -0.2483
  161SAPE  H14R18064   3.117   4.952   7.868  0.8537  0.0880  0.3004
  161SAPE  C21518065   3.079   4.989   8.074  0.5429 -0.2571 -0.2402
  161SAPE  H15R18066   3.182   4.967   8.107  0.6969  0.7400 -0.0330
  161SAPE  C21618067   2.986   5.021   8.188 -0.4518 -0.2367 -0.2879
  161SAPE  H16R18068   2.883   4.985   8.166 -0.0377 -1.1129 -0.8293
  161SAPE  H16S18069   2.976   5.131   8.204  2.3554  0.1290 -0.5772
  161SAPE  C21718070   3.027   4.964   8.326  0.3966  0.2489  0.7488
  161SAPE  H17R18071   2.949   4.993   8.401  1.2224  0.6195  1.4773
  161SAPE  H17S18072   3.129   4.979   8.367  1.6365 -1.5583 -1.4934
  161SAPE  C21818073   3.007   4.813   8.316 -0.2408  0.8357  0.1380
  161SAPE  H18R18074   3.077   4.787   8.233  0.5141  2.0477  0.3647
  161SAPE  H18S18075   2.906   4.787   8.280  0.3831 -4.2280  1.3163
  161SAPE  C21918076   3.024   4.736   8.445 -0.0926  0.1250  0.4368
  161SAPE  H19R18077   2.942   4.777   8.507  0.0562  0.0514  0.6832
  161SAPE  H19S18078   3.118   4.759   8.499  1.8861 -0.0264 -2.6641
  161SAPE  C22018079   3.012   4.589   8.438 -0.2754  0.0659 -0.4115
  161SAPE  H20R18080   2.932   4.546   8.374  0.0991 -2.5667  0.7692
  161SAPE  H20S18081   2.981   4.561   8.541 -0.6520  1.3365 -0.1566
  161SAPE  H20T18082   3.110   4.542   8.418 -0.3778 -0.4952  0.3618
  161SAPE   C3318083   3.161   5.577   6.809  0.2888 -0.9735  0.0543
  161SAPE   H3X18084   3.163   5.647   6.722 -1.5405 -1.4091 -0.3891
  161SAPE   H3Y18085   3.242   5.502   6.793  0.9008 -0.4315  0.5621
  161SAPE   C3418086   3.172   5.662   6.940  0.2306  0.4192 -0.2367
  161SAPE   H4X18087   3.076   5.716   6.945 -1.5833 -2.6915  2.7387
  161SAPE   H4Y18088   3.261   5.728   6.934  0.3840  0.4117  1.4711
  161SAPE   C3518089   3.198   5.580   7.068 -0.4884  0.0386  0.4699
  161SAPE   H5X18090   3.300   5.539   7.050  0.7733  2.6538  1.1200
  161SAPE   H5Y18091   3.133   5.491   7.074  1.2461 -1.1647  3.7037
  161SAPE   C3618092   3.191   5.661   7.192  0.0300  0.7249 -0.0096
  161SAPE   H6X18093   3.086   5.676   7.225 -0.1046  0.4250 -0.2955
  161SAPE   H6Y18094   3.230   5.763   7.172  0.1139  1.7072  4.2320
  161SAPE   C3718095   3.289   5.614   7.298 -0.1090 -0.2698  0.3150
  161SAPE   H7X18096   3.393   5.616   7.258 -0.5222  1.6685 -0.7976
  161SAPE   H7Y18097   3.268   5.510   7.330 -0.1903 -0.4760 -0.3737
  161SAPE   C3818098   3.275   5.688   7.437  0.1426 -0.0653  0.5704
  161SAPE   H8X18099   3.173   5.674   7.479  0.4792 -0.7103  1.1943
  161SAPE   H8Y18100   3.292   5.797   7.430 -0.5134  0.1287  1.7886
  161SAPE   C3918101   3.395   5.632   7.521 -0.2006 -0.5684 -0.1266
  161SAPE   H9X18102   3.494   5.635   7.470 -0.7593 -0.4913 -1.2515
  161SAPE   H9Y18103   3.372   5.526   7.545 -0.4042 -0.1657  1.5505
  161SAPE  C31018104   3.401   5.705   7.660 -0.0020  0.7211 -0.3982
  161SAPE  H10X18105   3.413   5.815   7.651 -0.9830  0.9675  0.8879
  161SAPE  H10Y18106   3.483   5.657   7.718 -0.5215  2.1985  1.6643
  161SAPE  C31118107   3.279   5.670   7.760  0.3614 -0.8329 -0.2824
  161SAPE  H11X18108   3.247   5.564   7.747 -1.3359 -0.2311 -1.3518
  161SAPE  H11Y18109   3.191   5.727   7.722  0.0367 -1.0237  0.1851
  161SAPE  C31218110   3.316   5.708   7.902 -0.2148 -0.0408 -0.3024
  161SAPE  H12X18111   3.380   5.798   7.907 -0.0977 -0.1259 -0.2518
  161SAPE  H12Y18112   3.383   5.631   7.946 -0.6474  0.3891  1.1392
  161SAPE  C31318113   3.189   5.734   7.988  0.2939 -0.0609  0.1418
  161SAPE  H13X18114   3.105   5.773   7.926  1.5869  0.5358 -1.2776
  161SAPE  H13Y18115   3.195   5.802   8.076  0.1795 -0.0636  0.1519
  161SAPE  C31418116   3.132   5.603   8.054 -0.1722 -0.3848  0.1443
  161SAPE  H14X18117   3.113   5.532   7.971 -2.1799  0.1974  0.0469
  161SAPE  H14Y18118   3.035   5.629   8.103 -0.5259  2.2401 -1.6920
  161SAPE  C31518119   3.217   5.535   8.165 -0.2723  0.7387  0.3460
  161SAPE  H15X18120   3.244   5.609   8.243 -0.8570 -0.7489  2.0304
  161SAPE  H15Y18121   3.307   5.490   8.119 -0.8044 -0.1137  0.1128
  161SAPE  C31618122   3.145   5.417   8.237 -0.2715 -0.0673 -0.0050
  161SAPE  H16X18123   3.111   5.333   8.173  0.2946 -1.1043  1.0193
  161SAPE  H16Y18124   3.061   5.454   8.299  1.8263  2.3622  1.5799
  161SAPE  C31718125   3.230   5.353   8.341 -0.5585 -0.5250 -0.6610
  161SAPE  H17X18126   3.298   5.283   8.289 -0.2916 -2.3030  1.8896
  161SAPE  H17Y18127   3.170   5.289   8.409 -1.2304  1.7513  1.0319
  161SAPE  C31818128   3.327   5.442   8.429 -0.4476 -0.0806 -0.3439
  161SAPE  H18X18129   3.366   5.373   8.506 -2.8038 -3.3607 -1.8534
  161SAPE  H18Y18130   3.270   5.525   8.477 -0.0825 -0.7643  1.3405
  161SAPE  H18Z18131   3.415   5.484   8.377 -1.7352  0.9368 -1.8089
  162SAPE     N18132   2.149   1.659   6.154  0.6847  0.2002 -0.1899
  162SAPE   HN118133   2.095   1.697   6.235 -1.8264  0.3858 -1.8585
  162SAPE   HN218134   2.182   1.565   6.182  0.3486  0.2595  0.4204
  162SAPE   HN318135   2.238   1.713   6.149  1.5702 -1.2522 -0.8931
  162SAPE   C1218136   2.085   1.647   6.021 -0.1323  0.3944 -0.0220
  162SAPE  H12A18137   2.095   1.748   5.976 -0.3209  1.0774  1.4276
  162SAPE  H12B18138   1.977   1.627   6.038  0.4855 -1.3712  2.2425
  162SAPE   C1118139   2.164   1.535   5.945 -0.2318  0.7501 -0.2886
  162SAPE  H11A18140   2.272   1.558   5.952 -0.2098  0.5468  0.0449
  162SAPE  H11B18141   2.136   1.534   5.837 -0.9426  0.5946 -0.1113
  162SAPE     P18142   2.147   1.274   5.934 -0.1877  0.4303 -0.3659
  162SAPE   O1318143   2.003   1.232   5.926  0.0281 -0.6524 -0.6372
  162SAPE   O1418144   2.218   1.291   5.805  0.2994 -0.3835 -0.6752
  162SAPE   O1218145   2.143   1.410   6.010  0.2762  1.1591  0.0967
  162SAPE   O1118146   2.221   1.162   6.019 -0.3693  0.4391 -0.1125
  162SAPE    C118147   2.312   1.178   6.128  0.3054 -0.8344  0.2731
  162SAPE    HA18148   2.372   1.085   6.135  0.5396 -0.6324  0.9497
  162SAPE    HB18149   2.383   1.260   6.104 -1.7921  0.7344 -0.9798
  162SAPE    C218150   2.246   1.209   6.264 -0.4832  0.8343 -0.2101
  162SAPE    HS18151   2.157   1.273   6.246 -0.5839  0.9799  0.7297
  162SAPE   O2118152   2.342   1.263   6.354  0.6036 -0.1509  0.4889
  162SAPE   C2118153   2.349   1.398   6.356 -0.5810  0.0830 -0.9474
  162SAPE   O2218154   2.291   1.466   6.275  0.0727 -0.0759 -0.9096
  162SAPE   C2218155   2.440   1.450   6.472 -0.7994  0.1025 -0.5214
  162SAPE   H2R18156   2.399   1.412   6.568 -0.2436 -1.3559 -0.8354
  162SAPE   H2S18157   2.536   1.395   6.465 -0.2750  0.8830  0.2539
  162SAPE    C318158   2.191   1.079   6.321  0.5846 -0.2107 -0.3826
  162SAPE    HX18159   2.276   1.009   6.331  2.2870  1.8175 -0.0583
  162SAPE    HY18160   2.123   1.039   6.242  0.5410 -0.2269 -0.3376
  162SAPE   O3118161   2.121   1.106   6.439 -0.6245  0.0364 -0.0692
  162SAPE   C3118162   2.068   1.002   6.503 -0.0494 -0.5203 -0.6049
  162SAPE   O3218163   2.073   0.884   6.472 -0.6159 -0.1482  0.5568
  162SAPE   C3218164   2.005   1.058   6.636 -0.5115  1.2521  0.3094
  162SAPE   H2X18165   1.910   1.114   6.622  0.0770  2.2220  0.0188
  162SAPE   H2Y18166   2.082   1.129   6.675  0.1377  1.0341 -0.5346
  162SAPE   C2318167   2.466   1.598   6.465  0.5291  0.1588 -0.5033
  162SAPE   H3R18168   2.473   1.633   6.360 -1.1508  0.7650 -0.4498
  162SAPE   H3S18169   2.557   1.631   6.519  1.1465  0.7131 -1.8313
  162SAPE   C2418170   2.343   1.678   6.519 -0.5150 -0.4054 -0.0100
  162SAPE   H4R18171   2.307   1.626   6.611  0.4750 -3.0620 -1.0313
  162SAPE   H4S18172   2.258   1.669   6.448 -0.3208 -0.1465 -0.2779
  162SAPE   C2518173   2.362   1.829   6.538 -0.0953 -0.5766  0.2408
  162SAPE   H5R18174   2.404   1.887   6.454  0.2414 -4.0156 -2.1756
  162SAPE   C2618175   2.342   1.907   6.651 -0.7831  0.2743  0.6446
  162SAPE   H6R18176   2.365   2.014   6.654 -0.1870  0.1364  1.3224
  162SAPE   C2718177   2.300   1.858   6.784  0.4984  0.2853  1.0417
  162SAPE   H7R18178   2.203   1.805   6.776 -0.1064  1.2836  1.5717
  162SAPE   H7S18179   2.288   1.954   6.838  1.7949  1.7618 -1.1037
  162SAPE   C2818180   2.402   1.770   6.841  0.3247  0.1190  0.7607
  162SAPE   H8R18181   2.494   1.755   6.783 -0.9782  3.1734 -2.4326
  162SAPE   C2918182   2.388   1.704   6.961 -0.2689  0.0227  0.3645
  162SAPE   H9R18183   2.461   1.630   6.996 -0.3786 -1.7699 -2.8222
  162SAPE  C21018184   2.266   1.736   7.045 -0.2742 -0.1945 -0.3057
  162SAPE  H10R18185   2.229   1.641   7.091 -0.2119  0.7728  1.8822
  162SAPE  H10S18186   2.177   1.781   6.997 -1.6620 -2.0450  0.3993
  162SAPE  C21118187   2.323   1.821   7.155 -0.6325 -0.1949 -0.3256
  162SAPE  H11R18188   2.357   1.920   7.121  0.5370 -0.2032  0.7560
  162SAPE  C21218189   2.324   1.804   7.290 -0.5522  0.1979 -0.2505
  162SAPE  H12R18190   2.357   1.890   7.350 -3.7588  0.2903  1.6392
  162SAPE  C21318191   2.271   1.681   7.359  0.8151  0.1697 -0.4594
  162SAPE  H13R18192   2.240   1.603   7.287 -1.1874  0.5804 -0.1068
  162SAPE  H13S18193   2.171   1.712   7.395  0.3295  0.0588 -1.6799
  162SAPE  C21418194   2.351   1.605   7.456 -1.3301  0.5036 -0.2631
  162SAPE  H14R18195   2.386   1.509   7.415 -0.5870 -0.1581  1.7636
  162SAPE  C21518196   2.361   1.623   7.594 -0.1167 -0.2771  0.2139
  162SAPE  H15R18197   2.415   1.549   7.655  3.3651  1.5797 -0.3584
  162SAPE  C21618198   2.306   1.737   7.672  0.2941  0.3274 -0.0530
  162SAPE  H16R18199   2.265   1.816   7.605  0.5742  1.6016  1.2386
  162SAPE  H16S18200   2.389   1.783   7.729 -0.6348  1.1169  0.7091
  162SAPE  C21718201   2.211   1.692   7.777  0.3799  0.3016 -0.5423
  162SAPE  H17R18202   2.255   1.613   7.840 -2.4936  0.5485  2.0373
  162SAPE  H17S18203   2.115   1.673   7.725  0.4325 -0.3304 -0.4132
  162SAPE  C21818204   2.179   1.807   7.873  0.3145 -0.8193 -1.2290
  162SAPE  H18R18205   2.137   1.890   7.812  0.3654 -0.4016 -0.7047
  162SAPE  H18S18206   2.274   1.839   7.923 -1.0234 -1.6136  2.1038
  162SAPE  C21918207   2.077   1.775   7.986 -0.2158 -0.5068 -0.6244
  162SAPE  H19R18208   2.128   1.706   8.056 -0.9705 -1.4665 -0.9952
  162SAPE  H19S18209   1.984   1.728   7.946 -1.1524  1.0888 -0.3896
  162SAPE  C22018210   2.034   1.905   8.055  0.0904  0.3127  0.0232
  162SAPE  H20R18211   1.960   1.949   7.985  2.0202  0.7702 -1.8625
  162SAPE  H20S18212   2.128   1.965   8.056 -1.1550  2.3362  1.6777
  162SAPE  H20T18213   1.988   1.880   8.153  1.2007 -1.0602  0.2254
  162SAPE   C3318214   1.989   0.945   6.743 -0.1316 -0.5946 -0.5804
  162SAPE   H3X18215   2.086   0.890   6.740  0.3890  0.3354 -3.0028
  162SAPE   H3Y18216   1.926   0.868   6.693  1.5284 -1.5001 -1.3787
  162SAPE   C3418217   1.945   0.978   6.880 -0.4244  0.0461  0.2281
  162SAPE   H4X18218   2.022   1.039   6.932 -2.2686  1.8094  1.0307
  162SAPE   H4Y18219   1.945   0.880   6.933  1.0996  0.4369  1.0032
  162SAPE   C3518220   1.812   1.052   6.892  0.5690 -0.4841  0.3948
  162SAPE   H5X18221   1.741   0.995   6.828 -0.4141  2.0255 -0.9186
  162SAPE   H5Y18222   1.815   1.154   6.846 -1.9239 -0.9470 -1.0358
  162SAPE   C3618223   1.764   1.063   7.037  0.5182 -0.2742  0.0069
  162SAPE   H6X18224   1.851   1.098   7.097 -0.5227 -0.8765  1.9731
  162SAPE   H6Y18225   1.726   0.969   7.081 -0.5738  0.1077 -0.0864
  162SAPE   C3718226   1.653   1.169   7.065 -0.2514  0.2269  0.5149
  162SAPE   H7X18227   1.557   1.133   7.023  0.4048 -2.3425  1.0170
  162SAPE   H7Y18228   1.693   1.255   7.007 -0.9407  1.0870  1.3041
  162SAPE   C3818229   1.651   1.210   7.213  0.4508  0.6089 -0.0054
  162SAPE   H8X18230   1.588   1.300   7.229  1.1197  0.6066  3.2843
  162SAPE   H8Y18231   1.750   1.244   7.249  0.8942 -0.8923  0.2728
  162SAPE   C3918232   1.596   1.099   7.295 -0.3121  0.1657  0.5070
  162SAPE   H9X18233   1.658   1.007   7.296  1.1907  1.0928 -1.4755
  162SAPE   H9Y18234   1.498   1.070   7.250 -0.7514  0.6907  1.1108
  162SAPE  C31018235   1.581   1.134   7.446 -0.0976 -0.1275  0.7015
  162SAPE  H10X18236   1.561   1.242   7.468 -0.8899 -0.6605  2.8972
  162SAPE  H10Y18237   1.683   1.109   7.485  0.8408  0.7554 -1.0764
  162SAPE  C31118238   1.463   1.060   7.513  0.0673 -0.3809 -0.2326
  162SAPE  H11X18239   1.457   0.962   7.461  0.1616 -0.4717 -0.0720
  162SAPE  H11Y18240   1.371   1.116   7.486 -0.6871 -1.6885 -0.4505
  162SAPE  C31218241   1.480   1.027   7.662  0.2199 -0.0480  0.6803
  162SAPE  H12X18242   1.578   0.977   7.674  0.6783  0.7986  0.5023
  162SAPE  H12Y18243   1.404   0.947   7.677 -0.2129  0.1457 -0.4313
  162SAPE  C31318244   1.463   1.142   7.758 -0.3559 -0.0825  0.1877
  162SAPE  H13X18245   1.357   1.176   7.763  0.3978  2.3818  1.3813
  162SAPE  H13Y18246   1.525   1.224   7.716  0.3515 -0.7392 -0.0563
  162SAPE  C31418247   1.511   1.099   7.897 -0.1080 -0.2983 -0.0337
  162SAPE  H14X18248   1.614   1.056   7.895  0.2173  0.2510  2.2495
  162SAPE  H14Y18249   1.454   1.015   7.940  1.5431 -0.9653  0.9555
  162SAPE  C31518250   1.503   1.217   7.991  0.1017 -0.3304 -0.1849
  162SAPE  H15X18251   1.398   1.251   8.000 -0.2665 -1.2788 -0.8190
  162SAPE  H15Y18252   1.548   1.304   7.939 -1.2884  1.7732  1.9124
  162SAPE  C31618253   1.566   1.191   8.130  0.4383 -0.5800  0.1819
  162SAPE  H16X18254   1.674   1.166   8.120  0.3709 -0.2880 -1.5820
  162SAPE  H16Y18255   1.522   1.097   8.170 -0.7783 -0.9516 -1.8598
  162SAPE  C31718256   1.548   1.311   8.226 -0.3738 -0.1414  0.0034
  162SAPE  H17X18257   1.439   1.327   8.241 -0.2570  0.6149  0.1168
  162SAPE  H17Y18258   1.592   1.405   8.187 -0.2877  0.4580  1.4519
  162SAPE  C31818259   1.615   1.287   8.360 -0.2478 -0.1296  0.1989
  162SAPE  H18X18260   1.600   1.375   8.426  2.8694  0.8280 -0.2204
  162SAPE  H18Y18261   1.722   1.259   8.357 -0.1659  0.2134 -0.1698
  162SAPE  H18Z18262   1.547   1.210   8.403 -0.9739 -0.7630 -1.9408
  163SAPE     N18263   0.624   0.493   6.305 -0.1614 -0.2448 -0.6953
  163SAPE   HN118264   0.581   0.499   6.211  0.3127  1.9391 -0.8149
  163SAPE   HN218265   0.700   0.563   6.301  1.2760 -1.5517  1.6155
  163SAPE   HN318266   0.654   0.395   6.325  1.5473  0.7700  2.4724
  163SAPE   C1218267   0.535   0.529   6.413  0.2622  0.0698 -0.3266
  163SAPE  H12A18268   0.590   0.523   6.509  1.1183  2.5095 -0.6024
  163SAPE  H12B18269   0.453   0.453   6.416 -0.4166  0.8088  0.3538
  163SAPE   C1118270   0.482   0.671   6.391 -0.1303 -0.8640  0.5521
  163SAPE  H11A18271   0.400   0.698   6.461 -1.3968 -1.2255 -0.7704
  163SAPE  H11B18272   0.432   0.679   6.293 -0.9908  0.5224  1.0779
  163SAPE     P18273   0.608   0.883   6.476 -0.6628 -0.1693  0.1299
  163SAPE   O1318274   0.742   0.934   6.447 -0.5529  0.4036  0.2204
  163SAPE   O1418275   0.496   0.973   6.443 -0.0729 -0.4530  0.2733
  163SAPE   O1218276   0.595   0.754   6.389 -0.0241 -0.1725  1.0638
  163SAPE   O1118277   0.602   0.838   6.627  0.0217  0.1894  0.2217
  163SAPE    C118278   0.710   0.779   6.696 -0.4594 -0.1683  0.2891
  163SAPE    HA18279   0.711   0.680   6.645 -0.6417 -0.7263  1.3358
  163SAPE    HB18280   0.807   0.831   6.682 -0.1647 -1.1217 -1.5288
  163SAPE    C218281   0.676   0.750   6.840 -0.3351 -0.4971  0.0495
  163SAPE    HS18282   0.763   0.701   6.890  0.5972  2.2789  1.3221
  163SAPE   O2118283   0.555   0.672   6.844  0.3127 -0.0482  0.0147
  163SAPE   C2118284   0.570   0.542   6.842  0.6021  0.2733  0.6647
  163SAPE   O2218285   0.672   0.472   6.833  0.2670  0.4673 -1.0362
  163SAPE   C2218286   0.427   0.491   6.817 -0.1906 -0.3530 -0.3676
  163SAPE   H2R18287   0.356   0.521   6.896  0.5216  0.7409 -0.1261
  163SAPE   H2S18288   0.399   0.531   6.717  1.0493 -3.3756 -2.0717
  163SAPE    C318289   0.643   0.875   6.926  0.0215  0.2315  0.8584
  163SAPE    HX18290   0.545   0.916   6.892  0.4544  0.2503 -0.4121
  163SAPE    HY18291   0.713   0.962   6.922  1.5029 -0.9600  0.0720
  163SAPE   O3118292   0.623   0.850   7.066 -0.9049  0.0756 -0.1158
  163SAPE   C3118293   0.736   0.825   7.137 -0.3875  0.4313  0.2867
  163SAPE   O3218294   0.852   0.830   7.095 -0.0307 -0.2938 -1.1567
  163SAPE   C3218295   0.696   0.780   7.284 -0.1782 -0.0032 -0.2109
  163SAPE   H2X18296   0.585   0.782   7.288 -0.2432  2.4335 -1.2403
  163SAPE   H2Y18297   0.731   0.858   7.355  0.0897 -1.5121  1.3913
  163SAPE   C2318298   0.416   0.338   6.803  0.6544  0.3050  0.4068
  163SAPE   H3R18299   0.502   0.304   6.741 -0.4906 -0.2652 -0.9065
  163SAPE   H3S18300   0.327   0.315   6.742  0.3240  1.8051  0.2989
  163SAPE   C2418301   0.402   0.255   6.929  0.2372 -0.2561  0.1459
  163SAPE   H4R18302   0.348   0.160   6.910 -2.5814  1.2860 -0.0563
  163SAPE   H4S18303   0.333   0.308   6.998 -0.0951 -3.2032  2.2659
  163SAPE   C2518304   0.537   0.236   7.004 -0.2298 -0.1030  0.2686
  163SAPE   H5R18305   0.617   0.195   6.941 -3.1227 -1.9862 -2.5347
  163SAPE   C2618306   0.559   0.276   7.134  0.4463 -0.4142 -0.3250
  163SAPE   H6R18307   0.656   0.256   7.182  0.5830  1.1717  0.1049
  163SAPE   C2718308   0.463   0.357   7.212  0.4870 -0.3177  0.0399
  163SAPE   H7R18309   0.485   0.365   7.320 -2.7250  0.1117  0.7858
  163SAPE   H7S18310   0.361   0.311   7.212 -0.7601  2.2464 -1.2122
  163SAPE   C2818311   0.447   0.499   7.170 -0.1815 -0.2329  0.1600
  163SAPE   H8R18312   0.544   0.540   7.138  1.5254 -1.5663  3.2273
  163SAPE   C2918313   0.346   0.580   7.163 -0.0926  0.2632 -0.3754
  163SAPE   H9R18314   0.372   0.683   7.136  0.2322 -0.5972 -3.7836
  163SAPE  C21018315   0.200   0.556   7.203 -0.5087 -0.5253 -0.1633
  163SAPE  H10R18316   0.151   0.468   7.156  0.1431 -1.0708  0.1454
  163SAPE  H10S18317   0.138   0.642   7.173  0.7221  0.3443 -0.2616
  163SAPE  C21118318   0.193   0.530   7.354 -0.6380  0.0294  0.1919
  163SAPE  H11R18319   0.276   0.474   7.401 -0.9101  0.4268  1.1687
  163SAPE  C21218320   0.096   0.573   7.439 -0.0078 -0.0359  0.1270
  163SAPE  H12R18321   0.103   0.536   7.542  0.6829 -0.5600 -0.0946
  163SAPE  C21318322  -0.021   0.657   7.405  0.5740  0.2757  0.2738
  163SAPE  H13R18323  -0.030   0.660   7.294  1.1404 -1.3179  0.1542
  163SAPE  H13S18324  -0.000   0.758   7.446 -0.4866  1.3997 -1.8118
  163SAPE  C21418325  -0.146   0.588   7.463  0.3898  0.7078  0.6712
  163SAPE  H14R18326  -0.167   0.496   7.407  1.9137  0.7612 -0.0420
  163SAPE  C21518327  -0.230   0.623   7.567 -0.3991 -0.3271  0.4259
  163SAPE  H15R18328  -0.318   0.565   7.597 -0.5497 -0.9334 -1.1077
  163SAPE  C21618329  -0.214   0.749   7.644  0.2135 -0.7633 -0.0565
  163SAPE  H16R18330  -0.309   0.785   7.689  0.1783 -0.8737 -0.0441
  163SAPE  H16S18331  -0.181   0.834   7.580 -3.7317 -0.2666 -1.6951
  163SAPE  C21718332  -0.121   0.741   7.769 -0.6933  0.0030 -0.1090
  163SAPE  H17R18333  -0.119   0.845   7.808 -1.7890 -1.0096  2.9832
  163SAPE  H17S18334  -0.018   0.711   7.742 -0.1807  0.4510  1.2605
  163SAPE  C21818335  -0.180   0.647   7.868  0.8974 -0.3755  0.6085
  163SAPE  H18R18336  -0.191   0.545   7.826  0.3300 -0.9476  2.0817
  163SAPE  H18S18337  -0.280   0.676   7.907 -1.3327 -2.3964 -3.0519
  163SAPE  C21918338  -0.097   0.624   7.992 -0.2498 -0.3859  0.2081
  163SAPE  H19R18339  -0.084   0.723   8.042 -2.3085 -0.6664  1.4010
  163SAPE  H19S18340   0.001   0.577   7.967 -1.0380 -1.7552 -0.4021
  163SAPE  C22018341  -0.169   0.544   8.105 -0.0291  0.4437  0.5853
  163SAPE  H20R18342  -0.202   0.443   8.073  0.5118  0.4322  0.0375
  163SAPE  H20S18343  -0.259   0.604   8.129 -1.5061 -1.6075  0.4212
  163SAPE  H20T18344  -0.117   0.543   8.203 -2.3659 -2.7405  1.9633
  163SAPE   C3318345   0.764   0.639   7.294  0.6449 -0.0671 -0.2877
  163SAPE   H3X18346   0.872   0.660   7.303  0.4283  0.3849  1.9188
  163SAPE   H3Y18347   0.738   0.575   7.207 -0.5640  0.0140 -0.0050
  163SAPE   C3418348   0.732   0.561   7.428  0.7790 -0.2332 -0.2015
  163SAPE   H4X18349   0.811   0.582   7.503 -0.1274  0.1598  0.6663
  163SAPE   H4Y18350   0.730   0.452   7.408  2.6321 -0.1880 -0.7988
  163SAPE   C3518351   0.598   0.610   7.487  0.2235 -0.0503 -0.3277
  163SAPE   H5X18352   0.516   0.623   7.413 -0.0281  0.2043 -0.0067
  163SAPE   H5Y18353   0.602   0.716   7.521 -0.8260 -0.6921  1.9552
  163SAPE   C3618354   0.551   0.519   7.603  0.3597  0.9435  0.4274
  163SAPE   H6X18355   0.629   0.497   7.679  1.7065  0.9802 -0.8870
  163SAPE   H6Y18356   0.514   0.426   7.556  1.3844  0.7403  0.0016
  163SAPE   C3718357   0.418   0.571   7.674 -0.7127 -0.0186  0.4556
  163SAPE   H7X18358   0.346   0.600   7.595  0.5325  1.8014 -0.0676
  163SAPE   H7Y18359   0.446   0.666   7.725  0.3138 -0.4201  0.6694
  163SAPE   C3818360   0.372   0.471   7.784  0.1183  0.0773  0.2787
  163SAPE   H8X18361   0.348   0.377   7.731  0.5519  0.5328 -0.7606
  163SAPE   H8Y18362   0.270   0.509   7.808  1.4936  3.0922  2.0402
  163SAPE   C3918363   0.462   0.467   7.909 -0.1986  0.4512 -0.2129
  163SAPE   H9X18364   0.480   0.572   7.940 -0.4316  0.0091  1.5506
  163SAPE   H9Y18365   0.564   0.428   7.888  0.3042  2.2635 -1.3653
  163SAPE  C31018366   0.393   0.388   8.028 -0.3592 -0.2923  0.0298
  163SAPE  H10X18367   0.365   0.290   7.983 -0.4852  0.3000 -1.2310
  163SAPE  H10Y18368   0.308   0.450   8.064  1.6250  0.8759  3.0700
  163SAPE  C31118369   0.491   0.372   8.144 -0.3924 -0.0663  1.0336
  163SAPE  H11X18370   0.532   0.473   8.166  2.3432 -0.6909 -0.6991
  163SAPE  H11Y18371   0.591   0.326   8.124  1.2468  2.1730  3.4155
  163SAPE  C31218372   0.426   0.321   8.270  0.0887 -0.5218 -0.3290
  163SAPE  H12X18373   0.347   0.244   8.264 -0.7058  0.1476  0.9962
  163SAPE  H12Y18374   0.387   0.415   8.315  0.9423  0.9585 -2.5051
  163SAPE  C31318375   0.523   0.266   8.375 -0.1404  0.3265 -0.0705
  163SAPE  H13X18376   0.608   0.338   8.380  1.2316 -1.3198  1.8622
  163SAPE  H13Y18377   0.558   0.163   8.353  4.4244  1.6050  0.0840
  163SAPE  C31418378   0.454   0.261   8.508 -0.1908  0.2335 -0.4579
  163SAPE  H14X18379   0.415   0.157   8.512  2.3341 -0.7935 -0.2424
  163SAPE  H14Y18380   0.375   0.335   8.534 -1.9192 -1.2232 -1.3782
  163SAPE  C31518381   0.548   0.269   8.630 -0.1770 -0.2078 -0.4207
  163SAPE  H15X18382   0.576   0.376   8.643 -1.8040 -0.0478  2.7052
  163SAPE  H15Y18383   0.639   0.211   8.602  0.7864  0.8204  0.4668
  163SAPE  C31618384   0.485   0.220   8.766  0.4097 -0.4117 -0.1133
  163SAPE  H16X18385   0.566   0.216   8.841  0.3857  2.0861  0.1258
  163SAPE  H16Y18386   0.432   0.125   8.744  0.0647  0.0808 -1.5306
  163SAPE  C31718387   0.392   0.320   8.820 -0.6188 -0.4749 -0.5544
  163SAPE  H17X18388   0.311   0.336   8.746  1.7262  1.5968 -2.8675
  163SAPE  H17Y18389   0.434   0.422   8.833 -1.0206 -0.3382 -0.2687
  163SAPE  C31818390   0.338   0.268   8.953 -0.1653 -0.2948  0.0774
  163SAPE  H18X18391   0.422   0.240   9.019 -1.3324  0.2892  1.8611
  163SAPE  H18Y18392   0.270   0.182   8.936 -0.0485  0.0257 -2.3786
  163SAPE  H18Z18393   0.274   0.346   8.999 -1.5901 -0.2705 -1.8100
  164SAPE     N18394   5.367   4.918   6.141  0.5303  0.1299 -0.3609
  164SAPE   HN118395   5.319   4.947   6.228  0.8195 -1.3985  0.3317
  164SAPE   HN218396   5.340   4.818   6.143 -0.6932  0.4570  0.0815
  164SAPE   HN318397   5.471   4.931   6.147  0.5019  0.7884 -1.1227
  164SAPE   C1218398   5.294   4.971   6.023 -0.4918 -0.0713  0.1268
  164SAPE  H12A18399   5.367   4.975   5.939 -0.9505 -0.2475 -0.2857
  164SAPE  H12B18400   5.257   5.073   6.045 -0.8098  0.1792 -1.4595
  164SAPE   C1118401   5.172   4.879   5.988 -0.3664  0.4032 -0.1221
  164SAPE  H11A18402   5.133   4.911   5.889 -0.2312 -3.0991 -1.4456
  164SAPE  H11B18403   5.104   4.902   6.073  0.2475  0.0517  0.4786
  164SAPE     P18404   5.101   4.628   6.023  0.0380  0.2116 -0.1839
  164SAPE   O1318405   4.972   4.654   5.952 -0.0441  0.6551 -0.0660
  164SAPE   O1418406   5.167   4.495   6.011  0.6153  0.1701  0.3400
  164SAPE   O1218407   5.209   4.738   5.988  0.0712 -0.7072 -0.2162
  164SAPE   O1118408   5.069   4.655   6.178 -0.0238 -0.3339 -0.0589
  164SAPE    C118409   5.169   4.640   6.274 -0.1012  0.4383 -0.8502
  164SAPE    HA18410   5.233   4.554   6.245 -1.2309 -0.8095  0.2302
  164SAPE    HB18411   5.232   4.731   6.269  0.7267 -0.0950 -0.3446
  164SAPE    C218412   5.119   4.623   6.420 -0.0598  0.9782  0.1216
  164SAPE    HS18413   5.052   4.535   6.423  3.1314 -1.8210 -2.3204
  164SAPE   O2118414   5.052   4.750   6.455  0.1879  0.3356  0.1897
  164SAPE   C2118415   4.943   4.742   6.535 -1.0226 -0.4401 -0.7068
  164SAPE   O2218416   4.875   4.641   6.541  0.1061  0.6600 -0.3764
  164SAPE   C2218417   4.921   4.882   6.601 -0.6137 -0.0078  0.4674
  164SAPE   H2R18418   5.025   4.915   6.623  0.2465 -3.1048  1.6757
  164SAPE   H2S18419   4.882   4.945   6.517  0.2180 -0.0656  0.0290
  164SAPE    C318420   5.225   4.578   6.525  0.1887  0.5400 -0.4864
  164SAPE    HX18421   5.292   4.666   6.535  1.4895 -0.6046  1.7504
  164SAPE    HY18422   5.285   4.489   6.496  1.6242 -0.3955  4.3415
  164SAPE   O3118423   5.179   4.545   6.659 -0.3982 -0.3202 -0.0880
  164SAPE   C3118424   5.111   4.437   6.664 -0.5697 -0.8518 -0.0012
  164SAPE   O3218425   5.084   4.364   6.575  0.3507 -0.0277  0.3085
  164SAPE   C3218426   5.055   4.420   6.805  0.2475  0.6490  0.4450
  164SAPE   H2X18427   4.974   4.496   6.800  1.6836  2.2273  0.6292
  164SAPE   H2Y18428   5.138   4.451   6.871  1.3806 -0.8507 -0.2165
  164SAPE   C2318429   4.830   4.880   6.730 -0.0749  0.1639  0.7321
  164SAPE   H3R18430   4.838   4.980   6.779 -2.7160  0.6381  0.3641
  164SAPE   H3S18431   4.868   4.812   6.810 -1.7049  1.2358  2.5266
  164SAPE   C2418432   4.685   4.852   6.684  0.7548  0.7861  0.1883
  164SAPE   H4R18433   4.633   4.837   6.781  0.0482  0.6690 -0.1988
  164SAPE   H4S18434   4.683   4.750   6.642 -0.6749  1.1037 -0.5915
  164SAPE   C2518435   4.618   4.953   6.598 -0.8735 -0.3163  0.1777
  164SAPE   H5R18436   4.633   4.954   6.489 -1.4983  1.5328  0.0728
  164SAPE   C2618437   4.547   5.061   6.649  0.4022  0.6193 -0.7215
  164SAPE   H6R18438   4.511   5.139   6.580  0.8928  0.2781 -1.3806
  164SAPE   C2718439   4.521   5.077   6.807  0.0518  0.7259 -0.4956
  164SAPE   H7R18440   4.611   5.039   6.860 -1.3419  0.5766  1.9054
  164SAPE   H7S18441   4.435   5.013   6.838  0.6182 -0.1963 -0.7803
  164SAPE   C2818442   4.514   5.225   6.848 -0.0716  0.0460  0.1324
  164SAPE   H8R18443   4.554   5.293   6.772  2.3092 -4.1952 -2.7935
  164SAPE   C2918444   4.495   5.279   6.971  0.2664 -0.0764 -0.3568
  164SAPE   H9R18445   4.498   5.389   6.974  1.4668 -0.0979  2.9810
  164SAPE  C21018446   4.463   5.210   7.100  0.4225  0.0558 -0.2196
  164SAPE  H10R18447   4.558   5.169   7.140  0.4234  0.5101  0.2474
  164SAPE  H10S18448   4.405   5.115   7.093  1.9776 -1.1727  2.2547
  164SAPE  C21118449   4.385   5.289   7.211  0.9532  0.4741 -0.5922
  164SAPE  H11R18450   4.313   5.361   7.168  0.8306  1.4193  1.1022
  164SAPE  C21218451   4.402   5.282   7.346 -0.0084 -0.3725  0.3204
  164SAPE  H12R18452   4.351   5.346   7.419  0.3482  1.8938 -1.3027
  164SAPE  C21318453   4.505   5.184   7.404 -0.0417 -0.3267  0.0267
  164SAPE  H13R18454   4.593   5.236   7.447 -0.6869 -0.7189  1.9274
  164SAPE  H13S18455   4.545   5.118   7.323 -1.0534  0.4688 -1.1516
  164SAPE  C21418456   4.453   5.099   7.517  0.6549  0.2212  0.3474
  164SAPE  H14R18457   4.392   5.161   7.583  0.6736  0.4080  0.1901
  164SAPE  C21518458   4.483   4.969   7.536 -0.2950  0.3870 -1.3209
  164SAPE  H15R18459   4.451   4.924   7.631  0.4793  0.7259 -0.8923
  164SAPE  C21618460   4.571   4.874   7.455  1.0109 -0.3301 -0.2604
  164SAPE  H16R18461   4.516   4.824   7.373  0.0126 -0.3914  0.4381
  164SAPE  H16S18462   4.602   4.789   7.520  1.5851 -0.9816 -1.3664
  164SAPE  C21718463   4.709   4.922   7.408  0.6837 -0.5443  0.1853
  164SAPE  H17R18464   4.753   4.983   7.490 -0.5828  0.7375 -0.0419
  164SAPE  H17S18465   4.707   4.987   7.318 -0.4981 -0.8318 -0.0218
  164SAPE  C21818466   4.810   4.805   7.394  0.2990  0.2773  1.0341
  164SAPE  H18R18467   4.802   4.731   7.477 -0.6379 -0.6468  0.1567
  164SAPE  H18S18468   4.910   4.853   7.388  0.1202  0.5007 -1.1433
  164SAPE  C21918469   4.773   4.720   7.267  0.0356 -0.3706 -0.4824
  164SAPE  H19R18470   4.665   4.697   7.281  0.1586 -0.7644 -0.1857
  164SAPE  H19S18471   4.834   4.628   7.265  2.1976  0.7406  3.3176
  164SAPE  C22018472   4.782   4.799   7.141  0.0827 -0.4903 -0.8028
  164SAPE  H20R18473   4.725   4.894   7.150 -0.9535 -1.2589  1.7923
  164SAPE  H20S18474   4.748   4.732   7.059 -0.7492 -2.7276  1.2364
  164SAPE  H20T18475   4.886   4.833   7.121  0.1942  0.1694  0.7250
  164SAPE   C3318476   4.999   4.282   6.845 -0.0704 -0.3502  0.1859
  164SAPE   H3X18477   5.079   4.207   6.829 -0.6043 -0.4474 -2.4307
  164SAPE   H3Y18478   4.923   4.250   6.770 -1.1824  1.0332  0.6767
  164SAPE   C3418479   4.941   4.275   6.988 -0.5449 -1.0966  0.0857
  164SAPE   H4X18480   4.919   4.171   7.021 -1.4917 -0.6306  0.9776
  164SAPE   H4Y18481   4.843   4.327   6.992 -0.2389 -0.5410  0.6009
  164SAPE   C3518482   5.027   4.342   7.094  0.3746 -0.4612  0.2813
  164SAPE   H5X18483   5.050   4.449   7.074  1.6603 -0.7796 -0.0627
  164SAPE   H5Y18484   5.121   4.283   7.089  1.0172  0.6145 -1.2891
  164SAPE   C3618485   4.979   4.327   7.234  0.4358 -0.1125 -0.6267
  164SAPE   H6X18486   5.008   4.231   7.282  0.2932  0.9076  1.6497
  164SAPE   H6Y18487   4.869   4.315   7.234  0.0600  2.5884  0.1893
  164SAPE   C3718488   5.020   4.428   7.338  0.8689 -0.3035  0.0817
  164SAPE   H7X18489   4.999   4.533   7.308  1.5939  0.5517  2.3889
  164SAPE   H7Y18490   5.130   4.417   7.349  1.2097  1.3465 -1.2112
  164SAPE   C3818491   4.942   4.397   7.466 -0.4678 -0.8613  0.3086
  164SAPE   H8X18492   4.960   4.294   7.503 -1.0470 -1.5613 -1.2374
  164SAPE   H8Y18493   4.835   4.402   7.434  0.5884 -0.5270 -3.7023
  164SAPE   C3918494   4.970   4.493   7.581  0.0095 -0.0222  0.4230
  164SAPE   H9X18495   4.900   4.481   7.667 -1.1380 -0.5356 -0.5484
  164SAPE   H9Y18496   4.945   4.591   7.535 -1.8485 -1.5705 -2.1376
  164SAPE  C31018497   5.113   4.498   7.625 -0.3840 -0.0735  0.3707
  164SAPE  H10X18498   5.133   4.600   7.664 -1.2154 -0.2361  1.2696
  164SAPE  H10Y18499   5.182   4.496   7.539 -1.2467 -2.3975 -0.3601
  164SAPE  C31118500   5.159   4.394   7.727  0.5467  0.0329 -0.4724
  164SAPE  H11X18501   5.175   4.292   7.687  0.9552 -1.0652  2.2755
  164SAPE  H11Y18502   5.085   4.387   7.810 -0.4770  1.2632 -1.2454
  164SAPE  C31218503   5.289   4.430   7.796  0.1458 -0.6839  0.6226
  164SAPE  H12X18504   5.285   4.532   7.839 -1.6235 -1.3960  2.2834
  164SAPE  H12Y18505   5.361   4.437   7.711 -1.0960  1.6058 -0.3383
  164SAPE  C31318506   5.337   4.327   7.897 -0.0738  0.1232  0.1402
  164SAPE  H13X18507   5.448   4.335   7.898 -0.0832  0.5485 -0.7712
  164SAPE  H13Y18508   5.297   4.227   7.872 -0.1888  0.4779 -1.1851
  164SAPE  C31418509   5.277   4.361   8.034 -0.1341  0.3844  0.3147
  164SAPE  H14X18510   5.167   4.347   8.038 -0.1756  0.7742  3.2466
  164SAPE  H14Y18511   5.302   4.465   8.065 -0.6789  0.4857  0.4345
  164SAPE  C31518512   5.343   4.269   8.133 -0.2995 -0.4076 -0.5258
  164SAPE  H15X18513   5.454   4.270   8.139 -0.3328 -0.9072  0.4520
  164SAPE  H15Y18514   5.308   4.168   8.106  0.1358 -0.5778 -0.4639
  164SAPE  C31618515   5.294   4.284   8.281  0.1009 -0.1151 -0.1015
  164SAPE  H16X18516   5.321   4.195   8.342 -0.6351  0.6121  1.3413
  164SAPE  H16Y18517   5.183   4.285   8.284  0.0283 -0.0072 -1.7051
  164SAPE  C31718518   5.350   4.393   8.362 -0.3919 -0.5728 -0.2219
  164SAPE  H17X18519   5.339   4.494   8.317 -1.5956  0.5308  2.3574
  164SAPE  H17Y18520   5.458   4.367   8.360 -0.0779  0.6602 -1.8078
  164SAPE  C31818521   5.312   4.393   8.509  0.4856  0.0393 -0.3823
  164SAPE  H18X18522   5.341   4.299   8.561 -0.0579  0.3976  0.5943
  164SAPE  H18Y18523   5.203   4.403   8.527  0.8356  0.1016  2.1587
  164SAPE  H18Z18524   5.350   4.481   8.566  0.3431  0.0807 -0.3485
  165SAPE     N18525   2.163   5.734   6.439 -0.5579 -0.0847  0.5594
  165SAPE   HN118526   2.178   5.836   6.455  1.5691 -0.3523  0.6108
  165SAPE   HN218527   2.082   5.742   6.375 -0.7685 -0.5825  0.7561
  165SAPE   HN318528   2.138   5.695   6.532 -3.3135  1.6461  0.6212
  165SAPE   C1218529   2.269   5.654   6.366 -0.2511 -0.2183 -0.5633
  165SAPE  H12A18530   2.365   5.687   6.410 -1.4759  0.4715  1.7507
  165SAPE  H12B18531   2.276   5.689   6.261  0.7125 -0.7245 -0.6812
  165SAPE   C1118532   2.245   5.503   6.360  0.1573  0.0995 -0.0226
  165SAPE  H11A18533   2.257   5.456   6.460  0.0478  0.7904  0.3243
  165SAPE  H11B18534   2.325   5.454   6.301 -0.6135  0.4648 -1.4076
  165SAPE     P18535   2.081   5.372   6.198  0.4406  0.4904  0.2461
  165SAPE   O1318536   2.048   5.445   6.075 -0.6069 -0.1446  0.4101
  165SAPE   O1418537   2.184   5.262   6.194  0.0667  0.1687 -0.4322
  165SAPE   O1218538   2.113   5.478   6.307  0.1196  0.4968  0.4360
  165SAPE   O1118539   1.939   5.309   6.238  0.0565  0.7237  0.1873
  165SAPE    C118540   1.872   5.347   6.356  0.2093  0.1950 -0.4144
  165SAPE    HA18541   1.906   5.437   6.412 -3.2179  1.6177 -0.3816
  165SAPE    HB18542   1.765   5.367   6.334  0.0817 -0.0844 -0.0442
  165SAPE    C218543   1.886   5.241   6.478  0.2043 -0.4771  0.0368
  165SAPE    HS18544   1.804   5.256   6.552  2.5003  0.0943  2.6166
  165SAPE   O2118545   2.008   5.263   6.537  0.1749  0.4007 -0.0600
  165SAPE   C2118546   2.015   5.258   6.664  0.3768 -0.2084 -0.5520
  165SAPE   O2218547   1.926   5.219   6.741 -0.3430  0.1814  0.2700
  165SAPE   C2218548   2.152   5.302   6.710 -0.4120 -0.1595  0.4496
  165SAPE   H2R18549   2.218   5.283   6.623 -1.2360 -3.2866  0.3837
  165SAPE   H2S18550   2.136   5.412   6.711 -2.4799 -0.4026 -0.1916
  165SAPE    C318551   1.865   5.095   6.431  0.1595 -0.0466 -0.5103
  165SAPE    HX18552   1.949   5.078   6.360 -1.7954  0.5431 -3.1003
  165SAPE    HY18553   1.767   5.088   6.380 -1.0930 -1.7886  1.9273
  165SAPE   O3118554   1.867   4.994   6.532 -0.0844  0.0205  0.2617
  165SAPE   C3118555   1.870   4.866   6.494  0.4321  0.1041  0.1215
  165SAPE   O3218556   1.859   4.825   6.377 -0.3113 -0.5950  0.3250
  165SAPE   C3218557   1.853   4.782   6.624 -0.3152  0.1981 -0.2937
  165SAPE   H2X18558   1.746   4.753   6.631 -1.0231  1.4350 -3.8622
  165SAPE   H2Y18559   1.880   4.846   6.711 -0.3153  0.0051 -0.1533
  165SAPE   C2318560   2.198   5.240   6.841  0.2874 -0.2700  0.0915
  165SAPE   H3R18561   2.196   5.129   6.835  1.9510 -0.2558 -1.4798
  165SAPE   H3S18562   2.119   5.255   6.917  0.0758  2.0410 -0.5145
  165SAPE   C2418563   2.327   5.306   6.899 -0.2036  0.1129  0.1383
  165SAPE   H4R18564   2.404   5.291   6.820 -1.4035  0.7067 -1.1998
  165SAPE   H4S18565   2.371   5.249   6.983  0.4803  0.0412 -0.2590
  165SAPE   C2518566   2.310   5.447   6.945  0.8592 -1.0534  0.3908
  165SAPE   H5R18567   2.266   5.506   6.864  0.7683  1.2783  2.0345
  165SAPE   C2618568   2.340   5.509   7.068 -0.4408 -0.0446 -0.0908
  165SAPE   H6R18569   2.319   5.615   7.087 -1.8283 -0.5007  1.1189
  165SAPE   C2718570   2.403   5.441   7.189  0.1133  0.7371  0.2560
  165SAPE   H7R18571   2.446   5.520   7.254  0.2590  1.2756 -0.4847
  165SAPE   H7S18572   2.487   5.372   7.166 -0.7273 -0.4163  0.5478
  165SAPE   C2818573   2.304   5.357   7.271  0.0555 -0.1405  0.3780
  165SAPE   H8R18574   2.220   5.322   7.209  1.0199  0.6568 -1.4491
  165SAPE   C2918575   2.291   5.349   7.404 -0.6215  0.2155  0.1168
  165SAPE   H9R18576   2.205   5.298   7.449 -1.3390  2.3038  1.2490
  165SAPE  C21018577   2.391   5.414   7.498 -0.0009 -0.2469 -0.0761
  165SAPE  H10R18578   2.473   5.476   7.458  0.9772 -1.5525 -0.1629
  165SAPE  H10S18579   2.439   5.326   7.546  1.6530  1.1835  1.0288
  165SAPE  C21118580   2.301   5.485   7.593  0.1975 -0.2518 -1.0072
  165SAPE  H11R18581   2.257   5.579   7.555  0.9287  0.5616  0.0908
  165SAPE  C21218582   2.256   5.455   7.719 -0.3767 -0.0263 -0.5371
  165SAPE  H12R18583   2.187   5.522   7.771  0.0531 -0.9184  1.2557
  165SAPE  C21318584   2.287   5.333   7.804 -0.3603 -0.4593 -0.0433
  165SAPE  H13R18585   2.326   5.358   7.905 -1.8551 -0.7063  0.6192
  165SAPE  H13S18586   2.369   5.274   7.756 -1.1061 -1.2665 -0.3505
  165SAPE  C21418587   2.170   5.233   7.812 -0.2241 -0.1126 -0.0854
  165SAPE  H14R18588   2.126   5.203   7.716  0.2219  1.9085 -0.9787
  165SAPE  C21518589   2.107   5.195   7.927  0.3662  0.0548 -0.4867
  165SAPE  H15R18590   2.031   5.116   7.915  1.3017 -0.7693 -1.2768
  165SAPE  C21618591   2.143   5.228   8.062  0.1556 -0.3731 -0.0104
  165SAPE  H16R18592   2.119   5.334   8.083 -3.5126 -0.8984 -0.8658
  165SAPE  H16S18593   2.253   5.211   8.061 -0.2271 -3.4309  0.0484
  165SAPE  C21718594   2.095   5.127   8.166 -0.5932 -0.3169 -0.3681
  165SAPE  H17R18595   1.985   5.127   8.184 -0.5576 -2.0681 -0.0174
  165SAPE  H17S18596   2.142   5.161   8.261 -1.8339  1.1678 -0.2255
  165SAPE  C21818597   2.148   4.982   8.137 -0.4438  0.2078 -0.2618
  165SAPE  H18R18598   2.259   4.977   8.136 -0.4440  0.2268 -1.2665
  165SAPE  H18S18599   2.112   4.938   8.041  0.1432  1.3200 -1.0226
  165SAPE  C21918600   2.116   4.883   8.250  0.4561 -0.3268 -0.1714
  165SAPE  H19R18601   2.007   4.878   8.271  0.4156  1.2852  0.1678
  165SAPE  H19S18602   2.151   4.935   8.342  0.1719 -1.5510  0.6504
  165SAPE  C22018603   2.175   4.747   8.229 -0.6167  0.1495 -0.9637
  165SAPE  H20R18604   2.169   4.679   8.317  0.8003 -0.8412 -1.5836
  165SAPE  H20S18605   2.282   4.752   8.198  0.9464  1.2313  3.7326
  165SAPE  H20T18606   2.115   4.690   8.155 -1.8666  0.5510 -0.2869
  165SAPE   C3318607   1.933   4.657   6.622  0.0933  0.1595 -1.0004
  165SAPE   H3X18608   2.041   4.669   6.599  0.2760 -1.1423 -0.9182
  165SAPE   H3Y18609   1.889   4.582   6.552 -1.1756 -0.6525  0.5932
  165SAPE   C3418610   1.928   4.583   6.761  0.0996  0.1082  0.4747
  165SAPE   H4X18611   1.971   4.483   6.741 -0.2985  0.0819 -0.2701
  165SAPE   H4Y18612   1.823   4.565   6.793 -0.4399 -0.2806 -1.3818
  165SAPE   C3518613   2.017   4.640   6.871  0.4123 -0.4221 -0.0514
  165SAPE   H5X18614   1.996   4.746   6.900 -1.3222 -1.0630  1.1845
  165SAPE   H5Y18615   2.121   4.643   6.832 -0.1102 -1.5046 -1.6333
  165SAPE   C3618616   2.010   4.551   6.999 -0.4182  0.6690  0.7980
  165SAPE   H6X18617   2.042   4.447   6.980 -0.1933  1.0673 -1.3084
  165SAPE   H6Y18618   1.906   4.531   7.032 -0.1242 -0.4752  1.0588
  165SAPE   C3718619   2.072   4.610   7.121  0.0302  0.1580 -0.0634
  165SAPE   H7X18620   2.031   4.712   7.141 -0.6082  0.6852 -3.4717
  165SAPE   H7Y18621   2.181   4.620   7.104 -0.0168  1.5217  0.2824
  165SAPE   C3818622   2.048   4.510   7.232 -0.1712 -0.1277 -0.6032
  165SAPE   H8X18623   2.090   4.414   7.193 -1.6616 -1.6599  1.3320
  165SAPE   H8Y18624   1.938   4.507   7.247  0.1297 -0.9160  1.9040
  165SAPE   C3918625   2.125   4.533   7.361  0.0381 -0.4587  0.3869
  165SAPE   H9X18626   2.099   4.635   7.397 -2.1176 -0.1510 -1.7836
  165SAPE   H9Y18627   2.232   4.537   7.332  0.3209  0.6568  1.5051
  165SAPE  C31018628   2.094   4.424   7.465 -0.1777  0.1483  0.1246
  165SAPE  H10X18629   2.128   4.330   7.417 -0.1834  0.4277 -0.4358
  165SAPE  H10Y18630   1.989   4.418   7.499  0.4225  1.6272  2.4531
  165SAPE  C31118631   2.174   4.468   7.591  0.3013  0.1785  0.1716
  165SAPE  H11X18632   2.142   4.564   7.637 -3.3786 -1.3758  1.2373
  165SAPE  H11Y18633   2.283   4.475   7.571 -0.0672  0.0357 -2.1301
  165SAPE  C31218634   2.151   4.365   7.705  0.0211  0.4564  0.2043
  165SAPE  H12X18635   2.184   4.261   7.686 -0.0346  0.6020 -0.7327
  165SAPE  H12Y18636   2.041   4.359   7.716 -0.0057  0.6528  0.0446
  165SAPE  C31318637   2.213   4.415   7.836 -0.5241 -0.7906  0.2016
  165SAPE  H13X18638   2.189   4.523   7.839 -3.1635 -1.3146  0.6405
  165SAPE  H13Y18639   2.323   4.406   7.830 -0.5486 -0.5256 -1.1462
  165SAPE  C31418640   2.168   4.332   7.957  0.3166 -0.0498 -0.8172
  165SAPE  H14X18641   2.191   4.224   7.949  3.1026  0.2846  1.2071
  165SAPE  H14Y18642   2.059   4.350   7.968  0.3019 -0.6430  0.1299
  165SAPE  C31518643   2.240   4.366   8.092 -0.6661  0.2336  0.4306
  165SAPE  H15X18644   2.218   4.286   8.165  2.3292 -0.3601  0.8219
  165SAPE  H15Y18645   2.206   4.465   8.129  0.0326  0.4647  0.4780
  165SAPE  C31618646   2.399   4.358   8.082  0.6893  0.9910 -0.7031
  165SAPE  H16X18647   2.426   4.452   8.029  0.0290  0.6659 -1.6307
  165SAPE  H16Y18648   2.425   4.265   8.026  1.9836  1.4666 -0.9388
  165SAPE  C31718649   2.459   4.355   8.222 -0.4556 -0.6708 -0.2180
  165SAPE  H17X18650   2.451   4.249   8.255  2.8149  0.0124  3.6039
  165SAPE  H17Y18651   2.400   4.426   8.284 -1.8911 -0.5661 -1.6602
  165SAPE  C31818652   2.609   4.406   8.214  0.2869  0.3761 -0.3681
  165SAPE  H18X18653   2.671   4.315   8.230 -0.1968  0.3390  1.5238
  165SAPE  H18Y18654   2.630   4.479   8.296  0.4100  2.7505 -2.3993
  165SAPE  H18Z18655   2.621   4.462   8.119  1.8777 -0.9539 -1.0101
  166SAPE     N18656   2.544   4.360   5.658 -0.4012 -0.1203  0.2455
  166SAPE   HN118657   2.525   4.368   5.556 -0.2019 -3.0838 -0.1068
  166SAPE   HN218658   2.638   4.316   5.658 -0.8303 -1.0823  1.2183
  166SAPE   HN318659   2.479   4.289   5.697  0.2500  0.4803  2.5587
  166SAPE   C1218660   2.559   4.482   5.742 -0.0915  0.8496 -0.2284
  166SAPE  H12A18661   2.455   4.521   5.748  0.6069  2.8675 -0.4757
  166SAPE  H12B18662   2.620   4.544   5.673  0.9682 -0.7675 -0.8102
  166SAPE   C1118663   2.631   4.440   5.874  0.6747 -0.0394  0.3331
  166SAPE  H11A18664   2.571   4.379   5.944 -1.4437 -0.7457 -1.9282
  166SAPE  H11B18665   2.660   4.534   5.925  0.1890  1.6063 -2.1914
  166SAPE     P18666   2.884   4.369   5.919 -0.1537  0.1160 -0.2258
  166SAPE   O1318667   2.988   4.293   5.851  0.0674 -0.3152  0.0928
  166SAPE   O1418668   2.913   4.511   5.952 -0.1799 -0.0460 -0.0229
  166SAPE   O1218669   2.749   4.365   5.834  0.0365 -0.4653 -0.2417
  166SAPE   O1118670   2.832   4.278   6.047 -0.4869  0.8675 -0.4921
  166SAPE    C118671   2.770   4.149   6.014 -0.1660  0.1088  0.8894
  166SAPE    HA18672   2.683   4.166   5.947  1.8552  2.7207 -1.2442
  166SAPE    HB18673   2.847   4.087   5.964 -3.2481 -3.3626  0.0021
  166SAPE    C218674   2.721   4.066   6.135  0.0246  0.0293 -0.1151
  166SAPE    HS18675   2.637   4.003   6.099  0.6053 -0.1834 -1.1581
  166SAPE   O2118676   2.672   4.159   6.236 -0.4595  0.0042  0.7712
  166SAPE   C2118677   2.578   4.121   6.316  0.5034 -0.5403 -0.2073
  166SAPE   O2218678   2.524   4.011   6.312  0.3598 -0.3631  0.1931
  166SAPE   C2218679   2.550   4.236   6.410  0.1156 -0.5328  0.2507
  166SAPE   H2R18680   2.635   4.308   6.408 -0.7444  0.5696  1.7654
  166SAPE   H2S18681   2.450   4.277   6.386 -0.2091 -2.5394 -2.3262
  166SAPE    C318682   2.843   3.981   6.187  0.8749 -0.0305 -0.1719
  166SAPE    HX18683   2.932   4.048   6.183  2.1511 -1.6715 -3.0806
  166SAPE    HY18684   2.858   3.903   6.109  0.0501 -1.0324  0.6449
  166SAPE   O3118685   2.837   3.913   6.317 -0.2185 -0.3349  0.5614
  166SAPE   C3118686   2.764   3.801   6.311  0.4552 -0.5056 -0.1092
  166SAPE   O3218687   2.685   3.773   6.227 -0.2772  0.0330 -0.4476
  166SAPE   C3218688   2.802   3.709   6.422  0.3673 -0.1080 -0.1012
  166SAPE   H2X18689   2.764   3.757   6.515  1.5911 -0.2226  0.4756
  166SAPE   H2Y18690   2.911   3.690   6.420  0.3754 -0.3295  1.1738
  166SAPE   C2318691   2.549   4.193   6.551 -0.5311  0.4059 -0.0435
  166SAPE   H3R18692   2.459   4.129   6.545 -0.3503  0.2691 -2.6814
  166SAPE   H3S18693   2.535   4.274   6.626 -0.5005 -0.6530  1.1307
  166SAPE   C2418694   2.680   4.120   6.597  0.4777 -0.4487 -0.0615
  166SAPE   H4R18695   2.765   4.189   6.583  0.3056  0.5533  3.1029
  166SAPE   H4S18696   2.713   4.032   6.537 -0.6326  0.2457 -1.7603
  166SAPE   C2518697   2.661   4.088   6.744  0.5317  0.4772 -0.5541
  166SAPE   H5R18698   2.633   3.983   6.760 -1.6139  0.6689 -2.5048
  166SAPE   C2618699   2.678   4.168   6.850 -0.2971  0.0251  0.9900
  166SAPE   H6R18700   2.659   4.132   6.952 -1.5629  0.0364  0.7753
  166SAPE   C2718701   2.712   4.311   6.850 -0.2469  0.2912 -0.1779
  166SAPE   H7R18702   2.648   4.367   6.922  0.0519  0.4683 -0.0478
  166SAPE   H7S18703   2.707   4.348   6.745  2.4304  0.8046 -0.1987
  166SAPE   C2818704   2.855   4.343   6.895 -1.0572 -1.0493 -0.0980
  166SAPE   H8R18705   2.934   4.309   6.827 -1.1096  0.6044 -1.0532
  166SAPE   C2918706   2.901   4.409   7.007  0.2227  0.5781  0.0890
  166SAPE   H9R18707   3.009   4.423   7.018  0.8193 -3.6477  1.2969
  166SAPE  C21018708   2.819   4.476   7.113 -0.0457  0.3993 -0.0749
  166SAPE  H10R18709   2.712   4.484   7.082  0.7771  2.1103 -2.8428
  166SAPE  H10S18710   2.849   4.579   7.140 -0.0703  0.1204  1.0604
  166SAPE  C21118711   2.829   4.400   7.244  0.8036  0.0047  0.3526
  166SAPE  H11R18712   2.840   4.292   7.232 -0.5735  0.0131 -1.3904
  166SAPE  C21218713   2.786   4.444   7.360  1.0921  0.7918 -0.7815
  166SAPE  H12R18714   2.796   4.377   7.446 -1.5496 -2.0642 -2.4762
  166SAPE  C21318715   2.724   4.584   7.387 -0.2771  0.4141 -0.2970
  166SAPE  H13R18716   2.645   4.602   7.311 -0.1590 -0.8608 -0.7412
  166SAPE  H13S18717   2.796   4.667   7.369 -0.7911  0.5168 -2.0886
  166SAPE  C21418718   2.644   4.592   7.515  0.1534  0.2581 -0.1976
  166SAPE  H14R18719   2.538   4.620   7.506 -0.2656 -1.0013  0.6005
  166SAPE  C21518720   2.691   4.562   7.636 -0.0308  0.5003 -0.1476
  166SAPE  H15R18721   2.621   4.570   7.720  0.8842  0.7094  0.6090
  166SAPE  C21618722   2.830   4.520   7.674 -0.2463 -0.7864  0.1874
  166SAPE  H16R18723   2.869   4.598   7.743  0.9683 -1.3598  0.1688
  166SAPE  H16S18724   2.901   4.522   7.589 -0.5578 -0.8888 -0.0787
  166SAPE  C21718725   2.835   4.382   7.744 -0.2882 -0.0816 -0.1041
  166SAPE  H17R18726   2.811   4.312   7.661 -0.6949  0.5105 -0.4920
  166SAPE  H17S18727   2.758   4.380   7.824 -0.6622  0.7144 -0.4320
  166SAPE  C21818728   2.976   4.354   7.804  0.4352  0.2822  0.5641
  166SAPE  H18R18729   3.050   4.359   7.722 -1.5676  0.4686 -1.3033
  166SAPE  H18S18730   2.978   4.247   7.834  0.0580  0.1051 -0.0470
  166SAPE  C21918731   3.015   4.446   7.916 -0.5355  0.5442 -0.1880
  166SAPE  H19R18732   3.000   4.550   7.879 -1.4116  0.9972  1.3631
  166SAPE  H19S18733   3.124   4.432   7.934 -0.5711 -0.6074 -0.7380
  166SAPE  C22018734   2.946   4.421   8.054 -0.3419  0.0444  0.0778
  166SAPE  H20R18735   2.835   4.411   8.055 -0.3113 -0.3433 -0.1962
  166SAPE  H20S18736   2.973   4.503   8.124  0.7781 -2.1251  2.3071
  166SAPE  H20T18737   2.983   4.330   8.104 -1.7672 -0.4447  0.3050
  166SAPE   C3318738   2.742   3.568   6.397 -0.5884  0.1360 -0.0611
  166SAPE   H3X18739   2.748   3.533   6.292  2.7056 -0.2415  0.1492
  166SAPE   H3Y18740   2.636   3.576   6.430 -0.8043 -0.3133 -0.6249
  166SAPE   C3418741   2.811   3.457   6.481  0.5947 -0.2839  0.2436
  166SAPE   H4X18742   2.808   3.496   6.585 -1.4438 -0.5858  0.3272
  166SAPE   H4Y18743   2.915   3.459   6.441 -0.4793 -1.6396 -2.9343
  166SAPE   C3518744   2.739   3.325   6.470  0.0900 -0.2185 -0.7197
  166SAPE   H5X18745   2.818   3.250   6.491 -1.0163 -0.9370  1.1050
  166SAPE   H5Y18746   2.701   3.307   6.366 -0.2317 -2.0430 -0.3245
  166SAPE   C3618747   2.634   3.298   6.578  0.9348 -0.2671 -0.0807
  166SAPE   H6X18748   2.540   3.339   6.535  0.6425 -1.2612 -0.4230
  166SAPE   H6Y18749   2.660   3.344   6.676 -2.8100 -0.2069  1.0620
  166SAPE   C3718750   2.600   3.151   6.592 -0.2457 -0.8848  0.1245
  166SAPE   H7X18751   2.694   3.095   6.612 -0.0523 -0.4992  0.3092
  166SAPE   H7Y18752   2.572   3.108   6.493 -0.7844  1.1256 -0.6709
  166SAPE   C3818753   2.483   3.135   6.688 -0.0621 -0.0183 -0.4022
  166SAPE   H8X18754   2.384   3.170   6.653 -0.5738 -1.3532 -0.3499
  166SAPE   H8Y18755   2.513   3.189   6.781  0.1383  0.9878 -1.0414
  166SAPE   C3918756   2.472   2.986   6.718  0.8783  0.5510  0.2136
  166SAPE   H9X18757   2.572   2.948   6.688  2.1739  2.7799  1.4181
  166SAPE   H9Y18758   2.403   2.956   6.636 -0.1558  1.8161  0.5811
  166SAPE  C31018759   2.428   2.939   6.858  0.1328 -0.6263  0.1623
  166SAPE  H10X18760   2.512   2.960   6.927 -1.6780  0.9630  2.0319
  166SAPE  H10Y18761   2.398   2.832   6.850 -0.5233 -0.3271 -2.3231
  166SAPE  C31118762   2.305   3.004   6.919 -0.2169 -0.2962  0.0972
  166SAPE  H11X18763   2.219   3.007   6.849 -2.1886  0.2250  2.4068
  166SAPE  H11Y18764   2.328   3.108   6.953 -1.1322 -0.5098  1.4575
  166SAPE  C31218765   2.256   2.926   7.043  0.7888  0.3111  0.0438
  166SAPE  H12X18766   2.342   2.933   7.113  0.3258  1.6704  0.5091
  166SAPE  H12Y18767   2.234   2.820   7.020  0.3122  0.8726 -2.3331
  166SAPE  C31318768   2.131   2.981   7.116 -0.4018 -0.4938 -0.0606
  166SAPE  H13X18769   2.087   2.918   7.196  1.4989  0.0853  1.5276
  166SAPE  H13Y18770   2.047   2.997   7.045  0.8127 -1.0012 -1.6627
  166SAPE  C31418771   2.172   3.116   7.176 -0.3675  0.1706  0.1773
  166SAPE  H14X18772   2.083   3.182   7.168  0.9242  1.8796 -1.0697
  166SAPE  H14Y18773   2.254   3.167   7.120 -0.9868  2.4117  1.1795
  166SAPE  C31518774   2.197   3.097   7.323 -0.2085  0.8496 -0.2273
  166SAPE  H15X18775   2.290   3.043   7.349 -0.4234 -0.1887 -1.5441
  166SAPE  H15Y18776   2.127   3.028   7.375  0.2458  1.0055  0.6116
  166SAPE  C31618777   2.203   3.234   7.392 -0.0485 -0.3897  0.3887
  166SAPE  H16X18778   2.101   3.275   7.406  1.1638  2.8552  0.6201
  166SAPE  H16Y18779   2.266   3.308   7.338 -0.5936  2.0032  2.8026
  166SAPE  C31718780   2.266   3.223   7.532 -0.3244 -0.0175 -0.1331
  166SAPE  H17X18781   2.256   3.320   7.586  0.1498  0.3242 -0.6379
  166SAPE  H17Y18782   2.374   3.201   7.515  0.2110  2.0103  0.3946
  166SAPE  C31818783   2.216   3.119   7.628  0.0872  0.2700 -0.3698
  166SAPE  H18X18784   2.290   3.054   7.679  0.2500 -0.3933 -1.4113
  166SAPE  H18Y18785   2.164   3.041   7.568  2.8434 -0.1857 -2.3715
  166SAPE  H18Z18786   2.140   3.163   7.696  0.7771  1.6715 -0.4629
  167SAPE     N18787   4.986   1.536   6.016  0.4475 -0.3571  0.1945
  167SAPE   HN118788   5.050   1.460   6.047  1.4655  1.2248  2.1592
  167SAPE   HN218789   4.935   1.564   6.102 -2.3789  3.5396 -2.3639
  167SAPE   HN318790   4.905   1.508   5.956  0.9723  0.3083 -0.8645
  167SAPE   C1218791   5.061   1.645   5.944 -0.6145  0.4673  0.0393
  167SAPE  H12A18792   4.995   1.734   5.939 -0.3599  0.6044 -1.4256
  167SAPE  H12B18793   5.081   1.618   5.838  1.3377  0.9978  0.2300
  167SAPE   C1118794   5.198   1.680   6.013 -0.8323 -0.4300  0.0063
  167SAPE  H11A18795   5.160   1.719   6.110 -1.5433 -0.8603 -0.0882
  167SAPE  H11B18796   5.234   1.768   5.956  1.1904 -1.0128  0.3146
  167SAPE     P18797   5.432   1.605   6.102 -0.1830 -0.1214 -0.3431
  167SAPE   O1318798   5.493   1.475   6.120  0.3147 -0.4639 -0.5008
  167SAPE   O1418799   5.512   1.697   6.021  0.3686  0.6947  0.1406
  167SAPE   O1218800   5.294   1.579   6.025 -0.2931  0.2920  0.8610
  167SAPE   O1118801   5.393   1.677   6.234 -0.3882  0.1199 -0.0898
  167SAPE    C118802   5.331   1.594   6.330 -0.2729  0.2398 -0.5161
  167SAPE    HA18803   5.247   1.532   6.291 -0.5781 -0.7778  1.6223
  167SAPE    HB18804   5.398   1.525   6.386 -0.8096  1.0229  1.1268
  167SAPE    C218805   5.254   1.669   6.444  0.2746 -1.1984 -0.4325
  167SAPE    HS18806   5.171   1.738   6.418  1.7524  0.9237  0.1284
  167SAPE   O2118807   5.348   1.750   6.512 -0.8105  0.3519 -0.0398
  167SAPE   C2118808   5.311   1.871   6.562  0.0465 -0.3036  0.7172
  167SAPE   O2218809   5.208   1.924   6.528 -0.2944 -0.4442 -0.4946
  167SAPE   C2218810   5.414   1.924   6.644  0.7686 -0.0957 -0.4197
  167SAPE   H2R18811   5.444   1.842   6.713 -2.0288  2.2298  4.0523
  167SAPE   H2S18812   5.491   1.957   6.571 -0.6350  2.6135 -0.8060
  167SAPE    C318813   5.191   1.564   6.541 -0.0263 -0.0412 -0.4080
  167SAPE    HX18814   5.280   1.503   6.565  0.2606 -0.0556 -1.4579
  167SAPE    HY18815   5.125   1.488   6.493 -1.4117  1.2174 -0.5921
  167SAPE   O3118816   5.139   1.621   6.668 -0.1866  0.6724  0.3963
  167SAPE   C3118817   5.011   1.659   6.664 -0.0368 -0.0593  0.3415
  167SAPE   O3218818   4.941   1.640   6.565  0.6208 -0.0181 -0.5406
  167SAPE   C3218819   4.968   1.677   6.812 -0.4073 -0.3058  0.3080
  167SAPE   H2X18820   4.886   1.752   6.815  1.6594  2.1217  0.1527
  167SAPE   H2Y18821   5.047   1.724   6.875 -0.9379  2.2758 -0.7872
  167SAPE   C2318822   5.378   2.043   6.735 -0.5322 -0.5896 -0.5596
  167SAPE   H3R18823   5.352   2.137   6.683 -0.8711 -0.7737 -0.7274
  167SAPE   H3S18824   5.465   2.075   6.797 -2.7261  0.6773  2.0694
  167SAPE   C2418825   5.265   2.030   6.830 -0.1796 -0.3936 -0.6355
  167SAPE   H4R18826   5.174   2.004   6.772 -0.4925  0.0192 -0.3393
  167SAPE   H4S18827   5.231   2.119   6.888 -0.8208 -0.8636 -0.2701
  167SAPE   C2518828   5.283   1.909   6.919  0.3021  0.8692 -0.3658
  167SAPE   H5R18829   5.264   1.821   6.857 -0.2647  0.6033  0.1714
  167SAPE   C2618830   5.340   1.888   7.044  0.9898 -0.1614 -0.0321
  167SAPE   H6R18831   5.370   1.789   7.084 -0.3907 -0.4680  0.3164
  167SAPE   C2718832   5.380   2.011   7.123 -0.3628 -0.0303 -0.4957
  167SAPE   H7R18833   5.438   2.083   7.061 -1.7525  0.2922 -1.4664
  167SAPE   H7S18834   5.459   1.974   7.193  0.9665  4.1068  0.4552
  167SAPE   C2818835   5.263   2.078   7.186 -0.0644  0.3207  0.1214
  167SAPE   H8R18836   5.185   2.108   7.115  0.0403 -1.6648 -0.8913
  167SAPE   C2918837   5.233   2.108   7.315 -0.1639  0.3886 -0.0877
  167SAPE   H9R18838   5.135   2.155   7.333  0.0507  1.0188 -0.5625
  167SAPE  C21018839   5.316   2.076   7.441 -0.8606  0.2199  0.7125
  167SAPE  H10R18840   5.269   2.135   7.523  0.5135 -0.4145  1.9888
  167SAPE  H10S18841   5.417   2.114   7.417 -0.8529 -0.6617 -0.8190
  167SAPE  C21118842   5.318   1.930   7.469  0.9015  0.1103  0.6509
  167SAPE  H11R18843   5.376   1.872   7.396 -0.5346  1.5419 -1.7977
  167SAPE  C21218844   5.249   1.864   7.569  0.0496  0.2869 -0.2175
  167SAPE  H12R18845   5.271   1.757   7.586  1.0361  0.2244 -1.6334
  167SAPE  C21318846   5.158   1.935   7.670 -0.0776 -0.1630 -0.0024
  167SAPE  H13R18847   5.067   1.874   7.684 -1.3838  0.9760 -2.7538
  167SAPE  H13S18848   5.121   2.032   7.631 -0.6132 -0.3040  0.1485
  167SAPE  C21418849   5.230   1.950   7.800  0.2548 -0.4501  0.2629
  167SAPE  H14R18850   5.327   2.001   7.792 -0.6672  1.0962 -1.7998
  167SAPE  C21518851   5.184   1.913   7.920 -0.4021 -0.5116 -0.1322
  167SAPE  H15R18852   5.247   1.922   8.009 -1.4503 -0.7412  0.6617
  167SAPE  C21618853   5.059   1.835   7.955  0.1708 -0.5058 -0.0003
  167SAPE  H16R18854   5.015   1.781   7.869  0.6051  1.4274 -1.5062
  167SAPE  H16S18855   4.985   1.915   7.976  2.7230  1.4889  2.1275
  167SAPE  C21718856   5.078   1.739   8.078  0.2739  0.4211  0.6096
  167SAPE  H17R18857   5.123   1.800   8.160  1.1123  0.2429  0.2955
  167SAPE  H17S18858   5.160   1.665   8.066 -1.7509 -1.8551  0.0550
  167SAPE  C21818859   4.949   1.667   8.127  0.1568 -0.7002 -0.1576
  167SAPE  H18R18860   4.986   1.611   8.215  1.2362 -0.0859 -0.1983
  167SAPE  H18S18861   4.925   1.603   8.040  0.2124 -0.2376 -0.5191
  167SAPE  C21918862   4.829   1.762   8.167 -0.1207 -0.3474  0.6205
  167SAPE  H19R18863   4.781   1.801   8.075  0.4006  0.6543  0.7640
  167SAPE  H19S18864   4.864   1.854   8.218 -0.7839 -1.0571  2.4458
  167SAPE  C22018865   4.742   1.685   8.270 -0.3408 -0.3889  0.2709
  167SAPE  H20R18866   4.733   1.576   8.248  0.7370 -0.0408 -2.3973
  167SAPE  H20S18867   4.646   1.740   8.280 -1.7343 -2.3032 -1.6625
  167SAPE  H20T18868   4.796   1.693   8.367  0.1318  2.6016 -0.1358
  167SAPE   C3318869   4.917   1.548   6.877 -0.1149 -0.2060 -0.4063
  167SAPE   H3X18870   5.003   1.478   6.876  2.1971  2.4563 -0.5441
  167SAPE   H3Y18871   4.844   1.504   6.805  0.2840  1.6741 -2.0722
  167SAPE   C3418872   4.860   1.582   7.020 -0.4750  0.1059 -0.3152
  167SAPE   H4X18873   4.768   1.643   7.007 -0.4922  0.0555 -0.4345
  167SAPE   H4Y18874   4.923   1.639   7.092 -0.0627  1.2165 -1.5219
  167SAPE   C3518875   4.803   1.458   7.086 -0.7175 -0.3025 -0.1132
  167SAPE   H5X18876   4.885   1.393   7.123 -0.5026 -0.5112 -0.9350
  167SAPE   H5Y18877   4.751   1.395   7.011 -0.0290  0.2567 -1.0860
  167SAPE   C3618878   4.730   1.494   7.212  0.7361  0.6445 -0.2210
  167SAPE   H6X18879   4.664   1.582   7.192  0.4860  0.2797 -1.0526
  167SAPE   H6Y18880   4.812   1.526   7.279  0.9176 -3.7081  1.9987
  167SAPE   C3718881   4.670   1.368   7.271 -0.0578 -0.7191  0.3248
  167SAPE   H7X18882   4.754   1.307   7.309  0.2304 -0.6016 -0.1214
  167SAPE   H7Y18883   4.626   1.317   7.182  0.1211  0.4008 -0.4203
  167SAPE   C3818884   4.563   1.390   7.365  0.5861  0.8983 -0.3636
  167SAPE   H8X18885   4.520   1.288   7.380 -0.6364  1.6119  1.4603
  167SAPE   H8Y18886   4.477   1.455   7.339 -0.1298 -0.5025 -1.6543
  167SAPE   C3918887   4.622   1.433   7.502  0.4127  0.1634  0.1596
  167SAPE   H9X18888   4.670   1.533   7.500  3.4001 -1.1767 -1.9182
  167SAPE   H9Y18889   4.717   1.381   7.522  0.7403  1.1251  1.2236
  167SAPE  C31018890   4.516   1.425   7.614 -0.1458  0.2351  0.1861
  167SAPE  H10X18891   4.466   1.325   7.614 -1.6804  0.9125 -2.1606
  167SAPE  H10Y18892   4.456   1.516   7.594  0.6780  1.7706  3.7865
  167SAPE  C31118893   4.563   1.437   7.760 -0.6467 -0.5867 -0.1282
  167SAPE  H11X18894   4.635   1.521   7.767 -0.2929 -0.7615 -1.3605
  167SAPE  H11Y18895   4.609   1.341   7.790 -0.3022  0.1492  1.8119
  167SAPE  C31218896   4.443   1.455   7.853 -0.3480  0.3057  0.2316
  167SAPE  H12X18897   4.367   1.377   7.828  0.3003 -0.3022  0.1121
  167SAPE  H12Y18898   4.411   1.561   7.846  0.9898  0.8436  1.7294
  167SAPE  C31318899   4.483   1.424   7.994 -0.6426 -0.6525 -0.4954
  167SAPE  H13X18900   4.571   1.484   8.025 -0.8375 -1.2169  1.2769
  167SAPE  H13Y18901   4.509   1.316   8.004  1.7314 -0.1827 -0.9107
  167SAPE  C31418902   4.369   1.466   8.090 -0.0938  0.6206  0.6691
  167SAPE  H14X18903   4.286   1.395   8.070  0.4425 -0.9719  3.6175
  167SAPE  H14Y18904   4.329   1.567   8.067  0.0998  0.2749 -1.4249
  167SAPE  C31518905   4.404   1.435   8.238 -0.1592 -0.6669  0.8997
  167SAPE  H15X18906   4.488   1.498   8.275  2.4744 -3.4645  0.1469
  167SAPE  H15Y18907   4.420   1.327   8.256 -0.4018 -0.7970  0.3520
  167SAPE  C31618908   4.286   1.469   8.325  0.3866 -0.2815 -1.1952
  167SAPE  H16X18909   4.298   1.453   8.435 -1.0718 -1.9644 -1.2216
  167SAPE  H16Y18910   4.212   1.386   8.321  1.9543 -1.9614  1.4757
  167SAPE  C31718911   4.209   1.596   8.301  0.3686 -1.3124 -0.2255
  167SAPE  H17X18912   4.136   1.598   8.385 -1.0875  0.0882 -1.4399
  167SAPE  H17Y18913   4.159   1.589   8.202 -0.2452  0.4723 -0.0764
  167SAPE  C31818914   4.289   1.726   8.295  0.1959  0.2599  0.6380
  167SAPE  H18X18915   4.372   1.702   8.225  1.8000  2.3950  1.7101
  167SAPE  H18Y18916   4.322   1.752   8.398 -1.8015  1.2936  1.0626
  167SAPE  H18Z18917   4.223   1.806   8.255 -0.5412 -0.0121  1.2821
  168SAPE     N18918   5.938   5.707   6.435  0.1496  0.7304  0.3602
  168SAPE   HN118919   5.939   5.650   6.522  0.0512 -1.7886 -1.1850
  168SAPE   HN218920   5.997   5.789   6.460 -0.6588  1.4373  0.0052
  168SAPE   HN318921   5.842   5.739   6.411  0.1746  0.2534 -0.4293
  168SAPE   C1218922   6.004   5.655   6.312 -0.7533  0.1240  0.3296
  168SAPE  H12A18923   5.996   5.726   6.227  0.4023 -0.5555 -0.3646
  168SAPE  H12B18924   5.971   5.552   6.288 -0.2357  0.1496 -0.5468
  168SAPE   C1118925   6.160   5.653   6.337  0.5500 -0.4321  0.1633
  168SAPE  H11A18926   6.213   5.750   6.340  0.6559 -0.5125  1.2051
  168SAPE  H11B18927   6.192   5.604   6.243  0.6460 -2.3364  1.1437
  168SAPE     P18928   6.301   5.441   6.431 -0.4987  0.0771  0.6241
  168SAPE   O1318929   6.389   5.453   6.312 -0.4932  0.4956 -0.3083
  168SAPE   O1418930   6.369   5.430   6.559 -0.7919  0.5379 -0.1284
  168SAPE   O1218931   6.206   5.563   6.442  0.0919 -0.2377  0.0699
  168SAPE   O1118932   6.210   5.316   6.421  0.2295  0.3202  0.4624
  168SAPE    C118933   6.083   5.313   6.490 -0.7320 -0.0850 -0.2413
  168SAPE    HA18934   6.057   5.412   6.533 -2.0297  0.5408 -2.3095
  168SAPE    HB18935   6.001   5.289   6.419  0.3604 -0.7580 -1.3044
  168SAPE    C218936   6.087   5.201   6.598  0.0137 -0.5953 -0.0276
  168SAPE    HS18937   5.991   5.205   6.654 -0.6799 -2.3246 -1.0155
  168SAPE   O2118938   6.198   5.213   6.689 -0.0652 -0.5033  0.5709
  168SAPE   C2118939   6.193   5.315   6.768 -0.5507 -0.0456  0.1868
  168SAPE   O2218940   6.108   5.403   6.775  0.2353  0.3403  0.1484
  168SAPE   C2218941   6.317   5.300   6.866 -0.3446 -0.8251 -0.0245
  168SAPE   H2R18942   6.297   5.214   6.934 -1.4316 -1.2291 -0.8293
  168SAPE   H2S18943   6.405   5.265   6.808  1.2008  1.7076  0.6422
  168SAPE    C318944   6.108   5.066   6.524  0.6955  0.1693  0.2292
  168SAPE    HX18945   6.196   5.072   6.456  0.3995 -0.8233 -0.2708
  168SAPE    HY18946   6.018   5.048   6.462  1.4122 -2.2030 -0.2236
  168SAPE   O3118947   6.114   4.953   6.624 -0.2863 -0.0120  0.4610
  168SAPE   C3118948   6.233   4.919   6.657 -0.1013  0.1808 -0.5105
  168SAPE   O3218949   6.338   4.971   6.619 -0.1823 -0.2007 -0.3635
  168SAPE   C3218950   6.228   4.811   6.773 -0.4586  0.1858  0.8366
  168SAPE   H2X18951   6.306   4.735   6.748 -2.2263 -1.4490  0.0997
  168SAPE   H2Y18952   6.123   4.778   6.773 -0.4339  0.0411 -0.3797
  168SAPE   C2318953   6.347   5.432   6.942 -0.2855 -0.1856  0.3679
  168SAPE   H3R18954   6.258   5.463   7.001  0.9938  2.0472  1.2524
  168SAPE   H3S18955   6.357   5.518   6.872 -0.1742 -0.7432 -0.3110
  168SAPE   C2418956   6.484   5.428   7.022  0.4027 -0.3379  0.0911
  168SAPE   H4R18957   6.482   5.524   7.078  0.6247  0.6378 -1.5343
  168SAPE   H4S18958   6.563   5.430   6.944  0.6156  1.0203  0.3135
  168SAPE   C2518959   6.496   5.319   7.125  0.8206 -0.4464 -0.5722
  168SAPE   H5R18960   6.538   5.231   7.075 -0.7873 -0.6641 -1.6273
  168SAPE   C2618961   6.474   5.318   7.259  0.5946 -0.7557  0.3341
  168SAPE   H6R18962   6.486   5.221   7.311  1.0992  0.3799  2.4392
  168SAPE   C2718963   6.437   5.436   7.348  0.2469  0.2484  0.5224
  168SAPE   H7R18964   6.414   5.529   7.293  0.2014 -0.6830 -1.0998
  168SAPE   H7S18965   6.534   5.444   7.402  0.3607 -0.8827  0.5115
  168SAPE   C2818966   6.321   5.412   7.429 -0.3834 -0.1221 -0.0021
  168SAPE   H8R18967   6.224   5.433   7.381 -0.7499  0.8946  1.1016
  168SAPE   C2918968   6.318   5.370   7.559 -0.3156  1.1342  0.5363
  168SAPE   H9R18969   6.217   5.369   7.601 -0.7730  1.9435 -0.4966
  168SAPE  C21018970   6.429   5.333   7.657  0.0398 -0.4419 -0.1126
  168SAPE  H10R18971   6.427   5.407   7.739  0.9302 -1.0496  0.4799
  168SAPE  H10S18972   6.526   5.348   7.604  0.0029 -0.0244 -0.0595
  168SAPE  C21118973   6.433   5.194   7.703  0.1694 -0.5849 -0.7683
  168SAPE  H11R18974   6.390   5.125   7.630  0.9424 -0.8012 -1.0290
  168SAPE  C21218975   6.478   5.147   7.824  0.4117 -0.8038  0.2081
  168SAPE  H12R18976   6.477   5.038   7.842  3.7920 -0.8703  0.6835
  168SAPE  C21318977   6.530   5.231   7.941  0.1604  0.2270  0.5073
  168SAPE  H13R18978   6.599   5.304   7.894  0.7463 -0.3304  0.4848
  168SAPE  H13S18979   6.582   5.176   8.023  1.9565  2.2141  0.7909
  168SAPE  C21418980   6.427   5.316   8.008  0.7326  0.2775  0.4689
  168SAPE  H14R18981   6.331   5.313   7.954  0.9118 -0.8490  0.1870
  168SAPE  C21518982   6.444   5.396   8.108  0.2107  0.5036 -1.0245
  168SAPE  H15R18983   6.362   5.446   8.162  1.8895  0.6555  1.6023
  168SAPE  C21618984   6.575   5.410   8.187  0.6849  0.9022  0.4503
  168SAPE  H16R18985   6.648   5.329   8.165 -1.2840 -1.5180  2.1994
  168SAPE  H16S18986   6.555   5.401   8.296 -1.1768 -0.4500  0.0594
  168SAPE  C21718987   6.644   5.538   8.148  0.4071  0.3284  0.2680
  168SAPE  H17R18988   6.581   5.626   8.175  0.4193  0.2589  0.5203
  168SAPE  H17S18989   6.669   5.532   8.040  0.8038  2.6692  0.1771
  168SAPE  C21818990   6.783   5.559   8.216  0.5886  0.7828 -0.2488
  168SAPE  H18R18991   6.830   5.459   8.211 -2.4213 -0.9028  1.9915
  168SAPE  H18S18992   6.766   5.587   8.322  0.2603 -0.3184 -0.0025
  168SAPE  C21918993   6.868   5.661   8.140  0.2401  0.4771  0.3318
  168SAPE  H19R18994   6.865   5.653   8.029  1.7890  2.2131  0.1101
  168SAPE  H19S18995   6.972   5.639   8.170  1.3187  0.6743 -2.8503
  168SAPE  C22018996   6.838   5.806   8.177  0.8959 -0.4762 -0.0118
  168SAPE  H20R18997   6.824   5.824   8.286  1.7483  1.4515 -0.1943
  168SAPE  H20S18998   6.752   5.858   8.131  0.9594  0.6779  1.1065
  168SAPE  H20T18999   6.920   5.872   8.143  1.1894  0.1273  1.7681
  168SAPE   C3319000   6.244   4.874   6.917  0.0153  0.2198 -0.1228
  168SAPE   H3X19001   6.218   4.792   6.987  0.1680 -0.8642 -1.2982
  168SAPE   H3Y19002   6.169   4.956   6.923 -0.0197  0.2925 -1.2676
  168SAPE   C3419003   6.386   4.914   6.961  0.4087 -0.3027 -0.2772
  168SAPE   H4X19004   6.414   5.001   6.898 -0.4157 -0.7386 -1.2585
  168SAPE   H4Y19005   6.464   4.838   6.940  0.1605 -0.7884  0.5187
  168SAPE   C3519006   6.410   4.947   7.110  0.1104  0.4245  0.8504
  168SAPE   H5X19007   6.322   5.007   7.139 -2.4068 -1.5912 -1.9485
  168SAPE   H5Y19008   6.506   5.002   7.118  0.9075 -0.3385 -2.0676
  168SAPE   C3619009   6.409   4.823   7.201 -0.2024  0.5187  0.6919
  168SAPE   H6X19010   6.486   4.749   7.169 -1.3946 -0.0343 -0.9864
  168SAPE   H6Y19011   6.319   4.760   7.188 -1.5920  2.5295  0.1412
  168SAPE   C3719012   6.414   4.858   7.347 -0.5452  0.7290  0.8195
  168SAPE   H7X19013   6.336   4.932   7.374 -1.4752 -0.5482  1.7182
  168SAPE   H7Y19014   6.517   4.900   7.357  0.3637 -1.3637  0.9209
  168SAPE   C3819015   6.398   4.739   7.444  0.2664 -0.1825 -0.7332
  168SAPE   H8X19016   6.473   4.664   7.408  0.2945  0.3850 -1.9099
  168SAPE   H8Y19017   6.294   4.701   7.432  0.6267 -1.0145 -1.3429
  168SAPE   C3919018   6.411   4.792   7.584 -0.5749  0.8162 -0.5344
  168SAPE   H9X19019   6.345   4.878   7.607 -1.3133  0.1640 -0.1732
  168SAPE   H9Y19020   6.515   4.829   7.597 -0.0251 -1.1103  1.1714
  168SAPE  C31019021   6.397   4.687   7.701 -0.0947  0.6283 -0.5913
  168SAPE  H10X19022   6.476   4.609   7.689  0.9241  1.1539  2.0022
  168SAPE  H10Y19023   6.295   4.644   7.691 -0.4875  0.2133  3.3815
  168SAPE  C31119024   6.414   4.738   7.845  0.0834 -0.4156 -0.5421
  168SAPE  H11X19025   6.336   4.813   7.871  1.2953  1.0829 -1.0856
  168SAPE  H11Y19026   6.513   4.788   7.849  0.0039 -0.0497  5.1808
  168SAPE  C31219027   6.397   4.629   7.946 -0.0342  0.2458 -0.6307
  168SAPE  H12X19028   6.462   4.539   7.938 -2.0026 -1.4210  0.9855
  168SAPE  H12Y19029   6.292   4.594   7.934 -0.5100  1.6900 -0.8201
  168SAPE  C31319030   6.409   4.676   8.092  0.3008  0.1597 -0.8949
  168SAPE  H13X19031   6.343   4.764   8.110  2.6551  1.9400 -0.4158
  168SAPE  H13Y19032   6.509   4.719   8.113 -0.5161  1.3433  0.7986
  168SAPE  C31419033   6.385   4.566   8.200  0.1331  0.0648 -0.9952
  168SAPE  H14X19034   6.440   4.600   8.291  0.7299  0.4208 -1.4769
  168SAPE  H14Y19035   6.413   4.463   8.171 -1.8868 -0.4265 -1.3618
  168SAPE  C31519036   6.239   4.552   8.229  0.4137  0.4939 -0.1513
  168SAPE  H15X19037   6.181   4.532   8.137 -1.1302  1.7235  0.4972
  168SAPE  H15Y19038   6.192   4.649   8.258 -1.1878 -0.7163  1.6082
  168SAPE  C31619039   6.191   4.449   8.334 -0.0856  0.3209  0.4233
  168SAPE  H16X19040   6.216   4.353   8.284 -0.1987  0.3398  0.3284
  168SAPE  H16Y19041   6.080   4.458   8.340 -0.2004 -1.1593  0.7090
  168SAPE  C31719042   6.256   4.470   8.472 -0.2098  0.3974  0.0589
  168SAPE  H17X19043   6.365   4.470   8.452  0.0353  0.4064  1.3215
  168SAPE  H17Y19044   6.234   4.386   8.541  1.7453 -1.4743 -1.4687
  168SAPE  C31819045   6.213   4.599   8.533 -0.3414 -0.3925 -0.2627
  168SAPE  H18X19046   6.243   4.622   8.638  1.8880  2.3131 -1.3460
  168SAPE  H18Y19047   6.104   4.616   8.538 -0.5353 -1.5289 -0.4304
  168SAPE  H18Z19048   6.257   4.690   8.487  0.6695  0.5659  2.3902
  169SAPE     N19049   3.679   4.513   6.361  0.5902 -0.8425 -0.6798
  169SAPE   HN119050   3.669   4.601   6.307 -1.1362  0.0206  0.9353
  169SAPE   HN219051   3.773   4.519   6.405 -1.1050 -0.2855  3.3169
  169SAPE   HN319052   3.678   4.442   6.286 -0.3394  1.6786 -3.2178
  169SAPE   C1219053   3.561   4.503   6.451  0.6105 -0.0328 -0.0092
  169SAPE  H12A19054   3.560   4.579   6.532  1.6178 -2.1938  2.1796
  169SAPE  H12B19055   3.572   4.406   6.506  1.3941  0.1614  0.1790
  169SAPE   C1119056   3.432   4.506   6.379 -0.1237 -0.5412 -0.2620
  169SAPE  H11A19057   3.439   4.586   6.302  1.3027 -1.5841 -1.2516
  169SAPE  H11B19058   3.345   4.535   6.443 -0.7890 -0.5965 -1.1154
  169SAPE     P19059   3.268   4.345   6.242 -0.0782 -0.1383 -0.2980
  169SAPE   O1319060   3.268   4.416   6.112 -0.2406 -0.3066  0.5200
  169SAPE   O1419061   3.245   4.197   6.240  0.1201  0.1676 -0.2235
  169SAPE   O1219062   3.407   4.378   6.314  0.1623 -0.4442  0.3234
  169SAPE   O1119063   3.164   4.415   6.334 -0.2129 -0.7474 -0.0685
  169SAPE    C119064   3.026   4.363   6.347 -0.5406 -0.3014 -0.1172
  169SAPE    HA19065   2.951   4.445   6.335 -0.9243 -0.5955  0.2272
  169SAPE    HB19066   2.997   4.279   6.281 -0.2410 -0.0591 -0.5662
  169SAPE    C219067   3.003   4.311   6.493 -0.2313  0.1370 -0.3385
  169SAPE    HS19068   2.892   4.306   6.503 -0.1113  1.4789  2.4680
  169SAPE   O2119069   3.067   4.392   6.593 -0.0928 -0.4838 -0.3226
  169SAPE   C2119070   3.025   4.519   6.592 -0.1781 -0.3672 -0.3289
  169SAPE   O2219071   2.925   4.565   6.533 -0.5919 -0.0634 -0.4167
  169SAPE   C2219072   3.120   4.605   6.689 -0.3826  0.0385 -0.9908
  169SAPE   H2R19073   3.180   4.677   6.631 -1.2211  1.8449  0.2994
  169SAPE   H2S19074   3.051   4.648   6.765  2.3164 -1.4340  2.6064
  169SAPE    C319075   3.062   4.170   6.513  0.6106  0.0461  0.2393
  169SAPE    HX19076   3.170   4.184   6.532  0.5977  1.4712 -0.5950
  169SAPE    HY19077   3.055   4.113   6.417  2.0020  0.9384 -0.4251
  169SAPE   O3119078   3.003   4.096   6.626  0.8566  0.3079 -0.0203
  169SAPE   C3119079   3.072   3.983   6.654 -0.0119  0.4029  0.7016
  169SAPE   O3219080   3.150   3.929   6.579 -0.2246 -0.2934 -0.0447
  169SAPE   C3219081   3.031   3.920   6.794  0.2187 -0.3215 -0.1329
  169SAPE   H2X19082   3.103   3.836   6.805  1.0509  0.5425  1.2818
  169SAPE   H2Y19083   2.929   3.876   6.788  1.0956 -2.5814  0.4052
  169SAPE   C2319084   3.227   4.520   6.760 -0.0829 -0.7292  0.3121
  169SAPE   H3R19085   3.295   4.469   6.689 -1.2089 -0.9007 -0.6644
  169SAPE   H3S19086   3.178   4.442   6.822 -3.2003  1.7654  1.2790
  169SAPE   C2419087   3.322   4.602   6.857  0.5544  0.6082  0.0511
  169SAPE   H4R19088   3.406   4.646   6.798 -0.3965  0.8908 -1.1319
  169SAPE   H4S19089   3.369   4.533   6.930  1.2739  1.6856  0.6289
  169SAPE   C2519090   3.262   4.722   6.931 -0.8594  0.0342  0.1459
  169SAPE   H5R19091   3.256   4.809   6.864  3.6483  0.0056 -0.5859
  169SAPE   C2619092   3.232   4.749   7.062 -0.1107 -0.1752 -0.4635
  169SAPE   H6R19093   3.195   4.850   7.086 -2.5753 -1.3657  1.0423
  169SAPE   C2719094   3.248   4.659   7.187 -0.2523 -0.6334  0.0441
  169SAPE   H7R19095   3.340   4.686   7.242  0.7679 -2.1157 -0.8550
  169SAPE   H7S19096   3.270   4.553   7.161  3.2864  0.2613 -1.1462
  169SAPE   C2819097   3.125   4.672   7.276 -0.5863  0.1354  0.5926
  169SAPE   H8R19098   3.058   4.586   7.262 -0.2264 -0.3323  1.6504
  169SAPE   C2919099   3.108   4.768   7.369 -0.4813  0.2544 -0.5088
  169SAPE   H9R19100   3.015   4.779   7.427  0.4437 -0.9282  1.2893
  169SAPE  C21019101   3.192   4.889   7.405 -0.4399 -0.5341 -0.0404
  169SAPE  H10R19102   3.289   4.891   7.351  1.8633 -0.0836  3.7770
  169SAPE  H10S19103   3.211   4.886   7.514 -1.1567 -2.7123  0.0877
  169SAPE  C21119104   3.132   5.021   7.373 -0.2732  0.4227  0.7581
  169SAPE  H11R19105   3.050   5.022   7.300 -0.0911  1.8662  0.5391
  169SAPE  C21219106   3.162   5.146   7.427 -0.1122 -0.7040  0.2602
  169SAPE  H12R19107   3.115   5.235   7.382 -1.1199 -0.4260  1.7656
  169SAPE  C21319108   3.272   5.170   7.524 -0.4654  0.4415  0.2211
  169SAPE  H13R19109   3.329   5.259   7.491 -1.4993  1.7797  1.8662
  169SAPE  H13S19110   3.349   5.090   7.521  0.2011  1.1043 -0.5505
  169SAPE  C21419111   3.233   5.182   7.664 -0.4410  0.0106  0.2367
  169SAPE  H14R19112   3.132   5.149   7.691 -0.6520  0.1075 -0.4107
  169SAPE  C21519113   3.305   5.249   7.762  0.3926  0.0188 -0.2380
  169SAPE  H15R19114   3.271   5.248   7.867 -0.7312  0.7307 -0.5777
  169SAPE  C21619115   3.440   5.318   7.739  0.9246 -0.2680 -0.7491
  169SAPE  H16R19116   3.423   5.427   7.748  0.7050 -0.2336 -1.5297
  169SAPE  H16S19117   3.472   5.297   7.635 -2.9359 -0.9312 -1.9501
  169SAPE  C21719118   3.542   5.269   7.845 -0.0997  0.3710  0.6046
  169SAPE  H17R19119   3.637   5.303   7.798  1.0276 -1.7403  1.2063
  169SAPE  H17S19120   3.546   5.158   7.849 -1.8833  0.2255 -0.3673
  169SAPE  C21819121   3.518   5.329   7.979 -0.2742  0.4186 -0.6898
  169SAPE  H18R19122   3.413   5.315   8.012 -0.2450 -1.0127 -1.1309
  169SAPE  H18S19123   3.532   5.439   7.971  2.6565  0.5635  3.5374
  169SAPE  C21919124   3.611   5.267   8.084  0.1685  0.0329 -0.6139
  169SAPE  H19R19125   3.602   5.332   8.174 -2.1458  0.1818 -0.8849
  169SAPE  H19S19126   3.721   5.271   8.071  0.3916  3.4408  1.0515
  169SAPE  C22019127   3.580   5.130   8.122  1.2086  0.0967 -1.0897
  169SAPE  H20R19128   3.599   5.059   8.039  0.2822 -1.3126 -0.1388
  169SAPE  H20S19129   3.475   5.118   8.159  0.5864  0.6633 -2.5774
  169SAPE  H20T19130   3.648   5.092   8.200 -0.5138 -1.8975 -0.4669
  169SAPE   C3319131   3.033   4.020   6.916 -1.0360  0.7476 -1.0586
  169SAPE   H3X19132   2.977   4.113   6.896 -0.9338  1.1299  0.3642
  169SAPE   H3Y19133   3.139   4.051   6.929 -0.8771  0.5500 -1.7861
  169SAPE   C3419134   2.993   3.955   7.045  0.0450 -0.3093 -0.6561
  169SAPE   H4X19135   3.047   3.866   7.081  0.7731 -0.0341 -1.0577
  169SAPE   H4Y19136   2.885   3.935   7.028 -0.1747 -1.4940  1.7615
  169SAPE   C3519137   2.997   4.055   7.162  0.1671 -0.1834 -0.1220
  169SAPE   H5X19138   2.932   4.145   7.154  0.9815  0.6224  1.6805
  169SAPE   H5Y19139   3.097   4.103   7.168  0.2291 -0.3197 -0.0587
  169SAPE   C3619140   2.957   3.981   7.285  1.0283  0.0793  0.1885
  169SAPE   H6X19141   3.023   3.895   7.307  1.0443  0.0945  0.1998
  169SAPE   H6Y19142   2.854   3.944   7.267  0.8923  1.3391 -1.9149
  169SAPE   C3719143   2.964   4.069   7.409 -0.5110 -0.3050  0.3108
  169SAPE   H7X19144   2.910   4.165   7.403 -0.6701  0.0082  4.1257
  169SAPE   H7Y19145   3.070   4.095   7.430 -1.4560  2.9562  1.7147
  169SAPE   C3819146   2.911   4.011   7.539  0.0084 -0.7937 -0.3021
  169SAPE   H8X19147   2.838   3.928   7.524  0.6696 -1.9291  2.2077
  169SAPE   H8Y19148   2.865   4.088   7.605 -0.8530 -1.4579 -0.1021
  169SAPE   C3919149   3.017   3.949   7.626  1.0858  0.0188 -0.0409
  169SAPE   H9X19150   2.961   3.907   7.713  0.3087 -1.7630 -1.3421
  169SAPE   H9Y19151   3.083   4.032   7.659 -0.6362  1.2464  0.4496
  169SAPE  C31019152   3.106   3.841   7.575  0.2017  0.4233  0.3321
  169SAPE  H10X19153   3.155   3.882   7.485  0.8431 -0.0677  0.4447
  169SAPE  H10Y19154   3.051   3.747   7.551  0.4612 -0.0787  1.6194
  169SAPE  C31119155   3.207   3.781   7.677  0.3119  0.4298 -1.6698
  169SAPE  H11X19156   3.274   3.702   7.638  1.3292  0.6935 -0.4935
  169SAPE  H11Y19157   3.140   3.738   7.754  2.1500  1.7872  0.8111
  169SAPE  C31219158   3.307   3.868   7.748  0.3553  0.2517  0.3308
  169SAPE  H12X19159   3.247   3.956   7.781  0.4912 -0.0604  1.4413
  169SAPE  H12Y19160   3.390   3.907   7.686 -1.1486  2.9143 -0.1803
  169SAPE  C31319161   3.365   3.809   7.881  0.2501 -0.5238 -0.4218
  169SAPE  H13X19162   3.455   3.744   7.874  1.4943  0.6674  2.8163
  169SAPE  H13Y19163   3.286   3.755   7.938  1.1847  0.0975  1.5481
  169SAPE  C31419164   3.425   3.929   7.964 -0.0497  0.2331 -0.2675
  169SAPE  H14X19165   3.346   3.997   8.002  2.1280  2.1634  1.0938
  169SAPE  H14Y19166   3.493   3.981   7.893  0.3019  1.0130  0.6157
  169SAPE  C31519167   3.510   3.881   8.086  0.4456 -0.0414 -0.3317
  169SAPE  H15X19168   3.550   3.973   8.132  0.4602  0.0129 -0.4531
  169SAPE  H15Y19169   3.595   3.821   8.046 -0.5711 -0.8226 -1.3967
  169SAPE  C31619170   3.416   3.803   8.180 -0.0638 -0.4547 -0.2721
  169SAPE  H16X19171   3.400   3.708   8.125  2.5621 -1.0485 -0.1678
  169SAPE  H16Y19172   3.324   3.864   8.185  1.0163  1.2508 -0.2690
  169SAPE  C31719173   3.461   3.769   8.319 -0.3558 -0.2641  0.3931
  169SAPE  H17X19174   3.383   3.704   8.365 -2.6047  1.6220 -0.4987
  169SAPE  H17Y19175   3.470   3.871   8.363  1.8293  0.0997 -0.7592
  169SAPE  C31819176   3.591   3.689   8.325 -0.2553  0.2790  0.3327
  169SAPE  H18X19177   3.630   3.688   8.429  1.4762 -0.7867 -0.2931
  169SAPE  H18Y19178   3.672   3.711   8.252  0.2784 -1.6836  0.3047
  169SAPE  H18Z19179   3.557   3.587   8.300 -1.1640  0.7216 -0.3349
  170SAPE     N19180   5.939   2.713   5.866  0.5814  0.3980  0.2972
  170SAPE   HN119181   5.956   2.813   5.889 -1.0037  0.3751  1.7375
  170SAPE   HN219182   6.028   2.660   5.859  1.3073  1.3333  2.0172
  170SAPE   HN319183   5.907   2.712   5.767  3.4751  0.7128 -0.7418
  170SAPE   C1219184   5.832   2.657   5.962  0.3999  0.8336  0.3266
  170SAPE  H12A19185   5.871   2.641   6.064  1.8539  1.7039 -0.0703
  170SAPE  H12B19186   5.808   2.556   5.923 -1.6763  0.9294  1.1842
  170SAPE   C1119187   5.703   2.729   5.960 -1.2231  0.1015 -0.1608
  170SAPE  H11A19188   5.633   2.673   6.026 -0.5343  0.1164  0.6122
  170SAPE  H11B19189   5.661   2.731   5.858 -0.6922 -1.5811 -0.4439
  170SAPE     P19190   5.649   2.923   6.132  0.7237  0.0517 -0.1384
  170SAPE   O1319191   5.744   3.029   6.187  0.5029 -0.3764 -0.2393
  170SAPE   O1419192   5.514   2.973   6.089 -0.2206  0.1497 -0.0036
  170SAPE   O1219193   5.720   2.862   6.004  0.2309  0.1921  0.3868
  170SAPE   O1119194   5.623   2.807   6.241 -0.2154  0.3974  0.1992
  170SAPE    C119195   5.738   2.753   6.299 -0.3845  0.0106 -0.1182
  170SAPE    HA19196   5.835   2.761   6.245 -0.8622  0.8375 -0.8613
  170SAPE    HB19197   5.756   2.814   6.390 -0.0972 -0.7622  0.3581
  170SAPE    C219198   5.708   2.606   6.352 -0.7222  0.0722  0.2045
  170SAPE    HS19199   5.644   2.555   6.277 -1.7900  1.4100  0.1701
  170SAPE   O2119200   5.641   2.616   6.477  0.2848 -0.3779 -0.0121
  170SAPE   C2119201   5.586   2.505   6.526  0.7055  0.0211  0.1627
  170SAPE   O2219202   5.572   2.400   6.469  0.8548  0.1586  0.5385
  170SAPE   C2219203   5.532   2.536   6.662  0.1655  0.0390 -0.3449
  170SAPE   H2R19204   5.477   2.633   6.668  0.8599  0.3981  0.3489
  170SAPE   H2S19205   5.456   2.459   6.688 -0.5003  0.7891 -0.0086
  170SAPE    C319206   5.838   2.517   6.354 -0.0219  0.1142 -0.1675
  170SAPE    HX19207   5.856   2.497   6.246 -1.6645 -0.4411 -0.3761
  170SAPE    HY19208   5.818   2.414   6.391  0.7415 -0.3009 -0.8644
  170SAPE   O3119209   5.932   2.574   6.442 -0.5243  0.0575  0.0497
  170SAPE   C3119210   6.057   2.583   6.386 -0.0975 -0.1959 -0.8412
  170SAPE   O3219211   6.088   2.539   6.278  0.7296  0.3369  0.3722
  170SAPE   C3219212   6.150   2.647   6.489  0.0153  0.3848 -0.1098
  170SAPE   H2X19213   6.098   2.711   6.564 -0.3592  0.4971 -0.4645
  170SAPE   H2Y19214   6.216   2.713   6.430  2.9892 -0.2038  2.2495
  170SAPE   C2319215   5.649   2.533   6.756  0.0508 -0.1083 -0.6095
  170SAPE   H3R19216   5.735   2.593   6.721 -0.9483  1.5781 -0.2661
  170SAPE   H3S19217   5.681   2.427   6.767  1.0971  0.3174  0.7170
  170SAPE   C2419218   5.624   2.602   6.892  0.2941 -1.4079 -0.4015
  170SAPE   H4R19219   5.521   2.575   6.923 -0.2695  0.7048 -0.2638
  170SAPE   H4S19220   5.621   2.708   6.858 -3.8899 -1.2262  0.0518
  170SAPE   C2519221   5.727   2.586   7.001 -0.0205 -0.7391 -0.1320
  170SAPE   H5R19222   5.826   2.622   6.972 -0.7804  0.3195 -1.5289
  170SAPE   C2619223   5.702   2.521   7.120 -0.1278 -0.5488 -0.1512
  170SAPE   H6R19224   5.780   2.524   7.197 -0.5150  0.7786  0.2146
  170SAPE   C2719225   5.584   2.442   7.162  0.3081  0.2314 -0.3168
  170SAPE   H7R19226   5.518   2.421   7.075 -0.4474  0.2136  0.2502
  170SAPE   H7S19227   5.534   2.515   7.230 -0.1379 -0.4692  0.1261
  170SAPE   C2819228   5.625   2.327   7.241 -1.4025  0.7580  0.3364
  170SAPE   H8R19229   5.642   2.244   7.170 -0.6539  1.9174 -0.8763
  170SAPE   C2919230   5.647   2.304   7.369 -0.6544  0.5239  0.0038
  170SAPE   H9R19231   5.685   2.203   7.392 -3.0991 -0.7342 -1.1678
  170SAPE  C21019232   5.634   2.396   7.484  0.5784  0.0068  0.6942
  170SAPE  H10R19233   5.698   2.487   7.476 -0.5169  0.7566  0.3079
  170SAPE  H10S19234   5.664   2.349   7.580  2.3889  0.2514  0.2863
  170SAPE  C21119235   5.492   2.465   7.505  0.2674  1.0296  0.0734
  170SAPE  H11R19236   5.459   2.543   7.435 -0.3089  1.1222  0.4464
  170SAPE  C21219237   5.412   2.422   7.605  0.7497 -0.1046  0.2880
  170SAPE  H12R19238   5.313   2.469   7.618  1.4289  2.1480 -1.8495
  170SAPE  C21319239   5.450   2.320   7.709 -0.2177  0.2912  0.1908
  170SAPE  H13R19240   5.543   2.354   7.759 -0.2915  0.1973  0.3927
  170SAPE  H13S19241   5.482   2.237   7.643 -2.5316 -0.8465  0.4007
  170SAPE  C21419242   5.347   2.285   7.814  0.5682  0.4965 -0.2248
  170SAPE  H14R19243   5.256   2.230   7.784  0.5578  0.8119 -0.7895
  170SAPE  C21519244   5.358   2.306   7.946 -0.5098  0.0809  0.0883
  170SAPE  H15R19245   5.276   2.283   8.016 -0.7840  0.9077  0.0373
  170SAPE  C21619246   5.476   2.383   8.012  0.4483  0.1892 -0.0825
  170SAPE  H16R19247   5.437   2.452   8.090 -0.9492  0.2288 -0.7780
  170SAPE  H16S19248   5.532   2.445   7.940  1.0320 -1.2238 -0.8897
  170SAPE  C21719249   5.580   2.296   8.084  0.1950  0.2944 -0.0279
  170SAPE  H17R19250   5.617   2.220   8.011 -1.4591  0.9584 -1.6485
  170SAPE  H17S19251   5.542   2.236   8.170 -0.2329  0.9818  0.2653
  170SAPE  C21819252   5.702   2.369   8.127 -0.0972 -0.1238 -0.0125
  170SAPE  H18R19253   5.683   2.473   8.160 -0.5832  0.3085 -1.5656
  170SAPE  H18S19254   5.773   2.362   8.042  1.1815  1.6935  0.8554
  170SAPE  C21919255   5.775   2.292   8.235  0.0597  0.2795 -0.3793
  170SAPE  H19R19256   5.782   2.186   8.202  2.1173 -0.6537  2.5797
  170SAPE  H19S19257   5.723   2.286   8.333 -1.0706 -1.3150 -1.0307
  170SAPE  C22019258   5.919   2.339   8.259  0.1043 -0.1189 -0.3084
  170SAPE  H20R19259   5.964   2.348   8.158  2.1616  0.6205  0.6220
  170SAPE  H20S19260   5.992   2.277   8.316  0.9097  1.2859  0.2315
  170SAPE  H20T19261   5.927   2.439   8.306  1.1301 -0.3924  0.1373
  170SAPE   C3319262   6.250   2.539   6.553 -0.0001  0.1558 -0.0316
  170SAPE   H3X19263   6.330   2.585   6.615 -0.3099 -0.9158  1.2176
  170SAPE   H3Y19264   6.296   2.483   6.469 -1.7947 -2.0253  0.3258
  170SAPE   C3419265   6.183   2.454   6.656 -0.3050  0.4141 -0.0366
  170SAPE   H4X19266   6.120   2.372   6.618 -1.3284  0.5844  1.2353
  170SAPE   H4Y19267   6.114   2.518   6.715 -0.2160 -2.0701  3.0732
  170SAPE   C3519268   6.287   2.380   6.743 -0.0323 -0.6839  0.3376
  170SAPE   H5X19269   6.390   2.423   6.741 -0.2839  0.1294  2.6192
  170SAPE   H5Y19270   6.308   2.280   6.699  1.7734 -0.4138  0.4756
  170SAPE   C3619271   6.231   2.357   6.881 -0.2557  0.6921 -1.0213
  170SAPE   H6X19272   6.281   2.272   6.931 -2.1226  0.3072  0.3054
  170SAPE   H6Y19273   6.123   2.333   6.876 -0.3952  0.7675  0.7513
  170SAPE   C3719274   6.269   2.475   6.970  0.0243 -0.1552 -0.5936
  170SAPE   H7X19275   6.196   2.558   6.961  0.0496 -0.0663 -0.0266
  170SAPE   H7Y19276   6.371   2.511   6.943 -0.4494  2.2930  0.5789
  170SAPE   C3819277   6.283   2.434   7.119 -0.1463 -0.1407 -1.0401
  170SAPE   H8X19278   6.325   2.525   7.167  1.0397 -0.3744 -1.5723
  170SAPE   H8Y19279   6.343   2.341   7.132  0.6353  0.6239  1.3115
  170SAPE   C3919280   6.146   2.410   7.181  0.1245  0.0056 -0.0593
  170SAPE   H9X19281   6.113   2.307   7.158  0.0529  0.1080 -0.4075
  170SAPE   H9Y19282   6.073   2.483   7.142 -2.2563 -1.8098  0.7708
  170SAPE  C31019283   6.142   2.404   7.331 -0.1281 -0.1992  0.0270
  170SAPE  H10X19284   6.174   2.505   7.364  0.6424 -0.5140  0.2534
  170SAPE  H10Y19285   6.210   2.320   7.358  0.8556  0.1417 -1.2953
  170SAPE  C31119286   6.004   2.372   7.401  0.0526 -0.3476  0.0550
  170SAPE  H11X19287   5.944   2.290   7.356 -0.0557 -0.8557  1.1044
  170SAPE  H11Y19288   5.938   2.458   7.379  1.2512 -0.3645 -4.8008
  170SAPE  C31219289   6.042   2.347   7.541  0.5695 -0.6233  0.3678
  170SAPE  H12X19290   5.968   2.406   7.599  0.8250 -2.3300  2.5265
  170SAPE  H12Y19291   6.140   2.393   7.568 -0.6062  2.6596 -0.3808
  170SAPE  C31319292   6.013   2.205   7.587 -0.5347  0.1050  0.0415
  170SAPE  H13X19293   6.078   2.137   7.528  0.8413  0.4943  1.0540
  170SAPE  H13Y19294   5.908   2.177   7.563 -0.1298 -2.9461  1.3258
  170SAPE  C31419295   6.036   2.175   7.737  0.1081 -0.1408  0.1312
  170SAPE  H14X19296   5.989   2.080   7.768  2.6553 -1.1671  1.0864
  170SAPE  H14Y19297   5.990   2.252   7.803 -0.0015 -0.3720  0.3265
  170SAPE  C31519298   6.188   2.176   7.783  0.7128 -0.0941  0.3141
  170SAPE  H15X19299   6.228   2.279   7.789  3.3142 -1.0954  2.5568
  170SAPE  H15Y19300   6.242   2.130   7.698 -1.0778  1.4030 -1.7533
  170SAPE  C31619301   6.193   2.096   7.911  0.4641 -0.6605 -0.0517
  170SAPE  H16X19302   6.304   2.096   7.919  0.7157  1.2181 -2.2853
  170SAPE  H16Y19303   6.164   1.990   7.898  0.4307 -0.6288 -0.2443
  170SAPE  C31719304   6.143   2.164   8.039 -0.0567 -0.0255 -1.1292
  170SAPE  H17X19305   6.033   2.149   8.038 -0.1509  0.6160 -0.9368
  170SAPE  H17Y19306   6.177   2.270   8.044  0.4006 -0.2196  0.7009
  170SAPE  C31819307   6.222   2.101   8.161  0.1433  0.1545 -0.1784
  170SAPE  H18X19308   6.202   1.992   8.173  1.8524 -0.3107 -1.1758
  170SAPE  H18Y19309   6.202   2.161   8.252 -0.3451  1.1234 -0.9109
  170SAPE  H18Z19310   6.330   2.122   8.146 -0.0083  0.6530 -0.5884
  171SAPE     N19311   5.923   3.197   6.267  0.3736  0.2947  0.4853
  171SAPE   HN119312   5.835   3.147   6.243 -0.0054  1.3450 -0.3949
  171SAPE   HN219313   5.898   3.296   6.285  0.0654  0.7356 -2.0669
  171SAPE   HN319314   5.984   3.188   6.184  0.1252 -0.2937  0.3583
  171SAPE   C1219315   5.986   3.134   6.381  0.3188  0.1420  0.2972
  171SAPE  H12A19316   5.904   3.126   6.456  0.8011 -0.6999  0.7481
  171SAPE  H12B19317   6.066   3.199   6.423 -0.6417  1.1553  0.5947
  171SAPE   C1119318   6.024   2.987   6.354  0.5978 -0.2659  0.4892
  171SAPE  H11A19319   5.926   2.939   6.333  0.4399  0.4836 -0.5697
  171SAPE  H11B19320   6.067   2.935   6.442 -1.4622  0.5998  2.0851
  171SAPE     P19321   6.262   2.978   6.240  0.0462 -0.1217 -0.2647
  171SAPE   O1319322   6.298   2.829   6.237  0.1334 -0.5766  0.3914
  171SAPE   O1419323   6.314   3.070   6.137 -0.1771  0.3304  0.0012
  171SAPE   O1219324   6.102   2.986   6.236  0.1038 -0.3588 -0.2876
  171SAPE   O1119325   6.299   3.029   6.387 -0.0647 -0.3652  0.0622
  171SAPE    C119326   6.420   3.103   6.396  0.4386 -0.5286 -0.3792
  171SAPE    HA19327   6.505   3.060   6.339  1.2965 -0.3684  0.7268
  171SAPE    HB19328   6.412   3.210   6.366 -0.6427 -0.0138  1.5669
  171SAPE    C219329   6.476   3.117   6.549  0.5496 -0.2451  0.5674
  171SAPE    HS19330   6.576   3.165   6.556 -0.0568  0.8373  2.5956
  171SAPE   O2119331   6.473   2.994   6.626 -0.0780 -0.0045 -0.0649
  171SAPE   C2119332   6.581   2.914   6.600  0.2882  0.5146 -0.1029
  171SAPE   O2219333   6.666   2.939   6.517  0.4668  0.2896  0.5626
  171SAPE   C2219334   6.557   2.778   6.681 -0.8014  0.3028 -0.8296
  171SAPE   H2R19335   6.447   2.766   6.688 -0.5774 -0.9439  1.3257
  171SAPE   H2S19336   6.595   2.688   6.628 -1.3926 -0.5616  0.1804
  171SAPE    C319337   6.382   3.218   6.625 -0.1931 -0.5907 -0.3239
  171SAPE    HX19338   6.292   3.154   6.639  0.1522 -0.8727  0.6676
  171SAPE    HY19339   6.362   3.309   6.563 -0.6261 -0.4870 -0.0379
  171SAPE   O3119340   6.437   3.265   6.745 -0.0465 -0.3242  0.0151
  171SAPE   C3119341   6.334   3.330   6.818  0.1257 -0.3624 -0.3545
  171SAPE   O3219342   6.233   3.369   6.769  0.2216  0.1389 -0.2424
  171SAPE   C3219343   6.371   3.326   6.964 -0.4510  0.4897  0.1852
  171SAPE   H2X19344   6.421   3.421   6.993  2.6343 -0.7540 -0.6430
  171SAPE   H2Y19345   6.434   3.235   6.971 -2.1393 -0.8401 -0.8428
  171SAPE   C2319346   6.625   2.780   6.822 -0.2489  0.1886  0.1039
  171SAPE   H3R19347   6.735   2.766   6.811  0.1204  1.7694  1.3628
  171SAPE   H3S19348   6.603   2.687   6.878 -0.2185  0.1887  0.1166
  171SAPE   C2419349   6.595   2.901   6.913  0.2657 -0.2535  0.1557
  171SAPE   H4R19350   6.607   2.994   6.854 -1.4797 -0.0392  0.0751
  171SAPE   H4S19351   6.684   2.897   6.978 -0.3670 -0.6853  1.0204
  171SAPE   C2519352   6.462   2.908   6.982 -0.5983  0.3619 -0.2761
  171SAPE   H5R19353   6.377   2.941   6.921 -0.5562 -0.2457 -0.6718
  171SAPE   C2619354   6.442   2.872   7.113  1.0418  0.0506 -0.5317
  171SAPE   H6R19355   6.341   2.859   7.155  0.7519 -0.2061 -1.3037
  171SAPE   C2719356   6.556   2.816   7.200 -0.4820  0.8063  0.1559
  171SAPE   H7R19357   6.652   2.868   7.177 -0.4119  0.9396  0.7240
  171SAPE   H7S19358   6.567   2.706   7.192  3.2876  1.2016 -4.2970
  171SAPE   C2819359   6.514   2.868   7.334  0.2116  0.3110 -0.8504
  171SAPE   H8R19360   6.539   2.973   7.357  1.5144 -0.0651 -0.4486
  171SAPE   C2919361   6.450   2.796   7.431 -0.4320  1.3868 -0.4374
  171SAPE   H9R19362   6.413   2.851   7.519 -1.4718  0.1771 -0.0871
  171SAPE  C21019363   6.416   2.649   7.434  0.5642 -0.5093 -0.7730
  171SAPE  H10R19364   6.411   2.601   7.334 -0.7493 -0.6271 -0.6777
  171SAPE  H10S19365   6.316   2.633   7.481  0.0968  0.9467 -1.2295
  171SAPE  C21119366   6.511   2.577   7.521  0.3694 -0.0271  0.3556
  171SAPE  H11R19367   6.610   2.553   7.480  0.9086  1.3764  0.8009
  171SAPE  C21219368   6.482   2.539   7.646 -0.3248 -0.0306 -0.6478
  171SAPE  H12R19369   6.564   2.495   7.704 -0.8772 -1.4275 -0.8911
  171SAPE  C21319370   6.363   2.561   7.728  0.6844 -0.0983  0.6205
  171SAPE  H13R19371   6.357   2.472   7.795 -0.2684  0.6890  1.6021
  171SAPE  H13S19372   6.273   2.561   7.663  1.1353  1.1775 -0.0280
  171SAPE  C21419373   6.338   2.689   7.806 -0.3275  0.2351 -0.0608
  171SAPE  H14R19374   6.341   2.785   7.753 -3.2263 -0.3831 -1.5307
  171SAPE  C21519375   6.291   2.688   7.935  0.1248  0.3573 -0.3603
  171SAPE  H15R19376   6.268   2.787   7.978 -0.0657 -0.2838  1.0967
  171SAPE  C21619377   6.261   2.571   8.028 -0.0224  0.0112  0.0152
  171SAPE  H16R19378   6.271   2.473   7.976 -0.6870  0.1888 -0.4679
  171SAPE  H16S19379   6.156   2.573   8.066  0.1894 -1.8608  0.8260
  171SAPE  C21719380   6.369   2.562   8.139  0.7677 -0.1873  0.3016
  171SAPE  H17R19381   6.354   2.468   8.195 -1.1974  0.1224  0.3905
  171SAPE  H17S19382   6.364   2.640   8.218 -0.0903  1.1388 -0.9949
  171SAPE  C21819383   6.513   2.544   8.085  0.1831 -0.4727  0.4564
  171SAPE  H18R19384   6.538   2.638   8.032 -1.0351  0.2294  1.0835
  171SAPE  H18S19385   6.491   2.463   8.012 -0.1991  1.0142 -1.1610
  171SAPE  C21919386   6.619   2.513   8.193 -0.4115  0.1494  0.3409
  171SAPE  H19R19387   6.719   2.497   8.146  0.2049  0.5156  1.4933
  171SAPE  H19S19388   6.594   2.415   8.239  1.4414 -0.8279 -0.5673
  171SAPE  C22019389   6.642   2.618   8.309 -0.5650  0.7315  0.4411
  171SAPE  H20R19390   6.694   2.710   8.275  0.1036  0.2727  0.2040
  171SAPE  H20S19391   6.702   2.572   8.390 -1.5540  0.1987  0.8898
  171SAPE  H20T19392   6.549   2.635   8.367  0.1519  1.7036  1.3380
  171SAPE   C3319393   6.246   3.294   7.052 -0.6309 -0.3570  0.4489
  171SAPE   H3X19394   6.169   3.237   6.996  0.1850  0.0199 -1.1093
  171SAPE   H3Y19395   6.190   3.383   7.088 -1.8098 -1.2520  0.9009
  171SAPE   C3419396   6.288   3.227   7.182 -0.4921  0.1080  0.0895
  171SAPE   H4X19397   6.362   3.290   7.234 -0.8248  2.2837 -1.9183
  171SAPE   H4Y19398   6.329   3.126   7.160 -0.1575 -0.3276  2.4899
  171SAPE   C3519399   6.170   3.200   7.280  0.3200  0.0854 -1.4852
  171SAPE   H5X19400   6.107   3.126   7.225  0.9560 -0.7431 -1.1077
  171SAPE   H5Y19401   6.116   3.295   7.304  1.2384  0.4605 -0.8613
  171SAPE   C3619402   6.202   3.123   7.408  0.3006 -0.5717  0.3744
  171SAPE   H6X19403   6.267   3.040   7.373  0.4578 -0.7803  1.1543
  171SAPE   H6Y19404   6.113   3.078   7.456  0.7856  0.3119  2.1778
  171SAPE   C3719405   6.274   3.209   7.511  0.4096  0.2427 -0.3544
  171SAPE   H7X19406   6.204   3.294   7.521 -0.5364 -0.1666 -2.9139
  171SAPE   H7Y19407   6.371   3.242   7.469  0.6625 -0.9171 -0.7055
  171SAPE   C3819408   6.287   3.139   7.654 -0.1127 -0.2350 -0.4652
  171SAPE   H8X19409   6.387   3.163   7.697 -0.9683  3.7566 -0.2620
  171SAPE   H8Y19410   6.270   3.031   7.637  0.0602 -0.4909  0.9101
  171SAPE   C3919411   6.181   3.196   7.744  0.4509  0.4096  0.2339
  171SAPE   H9X19412   6.099   3.234   7.679  2.1046  0.1822 -2.1235
  171SAPE   H9Y19413   6.223   3.278   7.805  1.5118 -1.3332  1.9590
  171SAPE  C31019414   6.136   3.098   7.846  0.7589 -0.8493 -0.0255
  171SAPE  H10X19415   6.223   3.050   7.896  2.1976  2.0425  0.4702
  171SAPE  H10Y19416   6.066   3.024   7.803  0.2883  1.1051 -2.8334
  171SAPE  C31119417   6.039   3.160   7.947 -0.9151 -1.0135  0.3188
  171SAPE  H11X19418   5.948   3.201   7.899 -2.2786 -0.5923  3.0844
  171SAPE  H11Y19419   6.090   3.243   8.001 -3.3262 -1.8466  4.2635
  171SAPE  C31219420   5.981   3.062   8.039  0.5705 -0.3802  0.0449
  171SAPE  H12X19421   6.065   2.996   8.069  0.3915 -1.8405 -2.4331
  171SAPE  H12Y19422   5.911   2.993   7.987 -0.4694 -0.1818  1.1205
  171SAPE  C31319423   5.902   3.124   8.150 -0.8216  0.1913 -0.1570
  171SAPE  H13X19424   5.820   3.184   8.106 -0.6633  0.4867 -0.0549
  171SAPE  H13Y19425   5.969   3.188   8.212 -0.3020  0.2683 -0.7955
  171SAPE  C31419426   5.821   3.020   8.230  0.1357  0.6746 -0.3147
  171SAPE  H14X19427   5.893   2.942   8.262  0.5983 -0.0851 -2.9505
  171SAPE  H14Y19428   5.744   2.970   8.167 -0.7382  4.8344 -2.9569
  171SAPE  C31519429   5.737   3.080   8.351 -0.0994  0.0333 -0.6104
  171SAPE  H15X19430   5.665   3.161   8.325 -0.0079  0.5909  0.7644
  171SAPE  H15Y19431   5.798   3.134   8.426 -1.7773  1.1643 -0.0051
  171SAPE  C31619432   5.643   2.979   8.416  0.4866  0.3995 -0.6204
  171SAPE  H16X19433   5.589   3.039   8.492 -1.8866  1.0998 -2.7064
  171SAPE  H16Y19434   5.713   2.912   8.470 -0.6366  0.9477  1.6142
  171SAPE  C31719435   5.531   2.906   8.332  0.0488 -0.3377 -0.7441
  171SAPE  H17X19436   5.454   2.855   8.393 -1.0331  0.4044 -1.4425
  171SAPE  H17Y19437   5.573   2.821   8.274  1.3648  0.4387 -0.9710
  171SAPE  C31819438   5.456   3.001   8.235  0.3963 -0.2047  0.7051
  171SAPE  H18X19439   5.359   3.030   8.280  0.9456  2.4318  0.3304
  171SAPE  H18Y19440   5.437   2.946   8.140  3.8978  0.2639 -0.3990
  171SAPE  H18Z19441   5.511   3.093   8.207 -1.0852  0.4495 -0.2049
  172SAPE     N19442   5.380   2.841   6.346  0.1807  0.1099  0.6532
  172SAPE   HN119443   5.451   2.782   6.298 -0.2286 -1.1962  1.6113
  172SAPE   HN219444   5.447   2.915   6.377  3.9881 -2.3066 -1.0906
  172SAPE   HN319445   5.338   2.789   6.426 -3.3100  1.9049  0.1724
  172SAPE   C1219446   5.260   2.889   6.265 -0.0484  0.6445  0.2491
  172SAPE  H12A19447   5.240   2.817   6.183  2.2324 -1.4207  1.3833
  172SAPE  H12B19448   5.271   2.994   6.232 -1.7395  1.3548  1.7600
  172SAPE   C1119449   5.132   2.888   6.348 -0.5290  0.0618  0.0990
  172SAPE  H11A19450   5.041   2.911   6.289 -0.0237 -2.9232 -2.0830
  172SAPE  H11B19451   5.154   2.958   6.431 -1.8751 -1.0113  1.4347
  172SAPE     P19452   5.031   2.640   6.355 -0.0815 -0.2861  0.2884
  172SAPE   O1319453   4.994   2.668   6.217 -0.4926  0.0853  0.3419
  172SAPE   O1419454   5.101   2.511   6.370 -0.3656 -0.5174 -0.1986
  172SAPE   O1219455   5.127   2.760   6.413  0.7180 -0.0045 -0.7968
  172SAPE   O1119456   4.913   2.650   6.454 -0.6509  0.2374 -0.1173
  172SAPE    C119457   4.839   2.770   6.485 -0.0881  0.4082 -0.1966
  172SAPE    HA19458   4.849   2.851   6.409 -1.4134  0.6710 -0.1213
  172SAPE    HB19459   4.734   2.738   6.498  0.0538 -0.4025 -0.9971
  172SAPE    C219460   4.877   2.826   6.623 -0.0309 -0.7530  0.3711
  172SAPE    HS19461   4.973   2.879   6.606 -0.2473 -0.7364 -0.9591
  172SAPE   O2119462   4.875   2.718   6.721 -0.3760 -0.6139 -0.3841
  172SAPE   C2119463   4.986   2.692   6.780  1.1462 -0.2293  0.0867
  172SAPE   O2219464   5.094   2.741   6.769 -0.5447  0.4413 -0.2675
  172SAPE   C2219465   4.958   2.559   6.854 -0.5124  0.2147 -0.1170
  172SAPE   H2R19466   4.877   2.579   6.928  3.0561  1.2714  3.9222
  172SAPE   H2S19467   4.918   2.489   6.777  0.4035  0.5159 -0.8853
  172SAPE    C319468   4.773   2.938   6.652 -0.6362 -0.8198  0.0936
  172SAPE    HX19469   4.679   2.893   6.691 -1.2347 -0.5581 -1.0304
  172SAPE    HY19470   4.746   3.004   6.567  1.2529  1.0259  0.8220
  172SAPE   O3119471   4.838   3.015   6.757  0.1558 -0.5023 -0.3933
  172SAPE   C3119472   4.752   3.104   6.809 -0.7849 -0.4737  0.0917
  172SAPE   O3219473   4.633   3.121   6.769  0.4144 -0.7139  0.0142
  172SAPE   C3219474   4.815   3.188   6.914 -0.3172 -0.0371 -0.4565
  172SAPE   H2X19475   4.810   3.296   6.887  1.7480  0.4342  0.8280
  172SAPE   H2Y19476   4.921   3.168   6.941 -0.6968  0.2168  1.3346
  172SAPE   C2319477   5.082   2.517   6.943  0.5300  0.1174 -0.5795
  172SAPE   H3R19478   5.169   2.517   6.874  2.3251  5.4069  1.2191
  172SAPE   H3S19479   5.071   2.412   6.979 -2.0049  0.6974  0.5864
  172SAPE   C2419480   5.108   2.607   7.064  0.1512 -0.3076  0.4808
  172SAPE   H4R19481   5.017   2.624   7.124 -0.3983  0.6489 -0.5784
  172SAPE   H4S19482   5.142   2.709   7.033  2.4015 -1.1908 -0.1454
  172SAPE   C2519483   5.216   2.534   7.147 -0.9846 -0.7088  0.0535
  172SAPE   H5R19484   5.311   2.542   7.092 -2.0328  1.2460 -1.6063
  172SAPE   C2619485   5.209   2.498   7.280 -0.0620  0.2231 -0.0107
  172SAPE   H6R19486   5.286   2.428   7.315  0.7109  0.6047 -0.9060
  172SAPE   C2719487   5.094   2.524   7.371  0.2270 -0.0308  0.3578
  172SAPE   H7R19488   5.044   2.620   7.345 -0.8024 -0.5579  0.3829
  172SAPE   H7S19489   5.147   2.536   7.468  1.0077 -0.1226 -0.0518
  172SAPE   C2819490   4.987   2.416   7.376 -0.4691 -0.2403  0.3869
  172SAPE   H8R19491   4.933   2.390   7.284 -0.0204 -1.6213  0.4933
  172SAPE   C2919492   4.961   2.338   7.480  0.1729 -0.3728  0.3049
  172SAPE   H9R19493   4.875   2.270   7.474 -1.4560  1.6472 -0.3153
  172SAPE  C21019494   5.029   2.345   7.620  0.0132 -0.8030 -0.7575
  172SAPE  H10R19495   5.134   2.372   7.597 -0.1441 -0.0836 -0.6516
  172SAPE  H10S19496   5.027   2.239   7.655  0.2383 -0.9220 -1.0934
  172SAPE  C21119497   4.953   2.441   7.713 -0.8824 -0.8871  0.8696
  172SAPE  H11R19498   4.957   2.548   7.686  1.7117 -1.7276 -2.8044
  172SAPE  C21219499   4.909   2.409   7.835 -0.7676  0.9568 -0.3258
  172SAPE  H12R19500   4.855   2.473   7.905  0.9978  1.3124  0.7732
  172SAPE  C21319501   4.923   2.266   7.885  0.5200  0.5038  0.3238
  172SAPE  H13R19502   5.027   2.250   7.921 -0.3628  1.7469  3.8596
  172SAPE  H13S19503   4.899   2.195   7.803  1.9490  1.3442 -0.8814
  172SAPE  C21419504   4.818   2.245   7.998 -0.5965  0.0937 -0.0083
  172SAPE  H14R19505   4.720   2.216   7.959  0.7462 -2.0749 -2.1109
  172SAPE  C21519506   4.825   2.252   8.131 -0.2072 -0.6113  0.2146
  172SAPE  H15R19507   4.735   2.226   8.189 -0.8586  1.2881  0.1293
  172SAPE  C21619508   4.944   2.293   8.217 -0.4224  0.3601  0.0893
  172SAPE  H16R19509   4.920   2.381   8.280 -0.1935 -0.3290  1.1602
  172SAPE  H16S19510   5.029   2.336   8.159 -0.2112  0.9319  0.7986
  172SAPE  C21719511   4.996   2.176   8.303 -0.2099  0.0005 -0.4181
  172SAPE  H17R19512   5.014   2.093   8.231  0.1264  0.3141 -0.7005
  172SAPE  H17S19513   4.918   2.144   8.376  2.3203  0.2205  2.5985
  172SAPE  C21819514   5.127   2.216   8.374  0.1666  0.3178 -0.5837
  172SAPE  H18R19515   5.090   2.262   8.468  1.5212  0.9786 -0.3526
  172SAPE  H18S19516   5.177   2.294   8.312 -0.3410  1.6472  0.6117
  172SAPE  C21919517   5.237   2.109   8.392  0.3330 -0.0811 -0.5921
  172SAPE  H19R19518   5.194   2.045   8.472 -0.6279  2.0520  0.6805
  172SAPE  H19S19519   5.321   2.158   8.445  1.0628 -1.4740 -0.4219
  172SAPE  C22019520   5.280   2.035   8.261  0.0460 -0.7093  0.0565
  172SAPE  H20R19521   5.287   2.109   8.178 -2.5898 -1.5339 -0.9798
  172SAPE  H20S19522   5.191   1.974   8.238 -2.3198  1.4117  2.8246
  172SAPE  H20T19523   5.375   1.979   8.273  0.4276 -0.3487 -1.1288
  172SAPE   C3319524   4.744   3.166   7.051 -0.2963 -0.4565 -0.6696
  172SAPE   H3X19525   4.801   3.084   7.099  0.8478  0.7110  0.0126
  172SAPE   H3Y19526   4.637   3.136   7.048  0.2797 -2.9432  0.6256
  172SAPE   C3419527   4.756   3.289   7.141  0.5317  0.4478 -0.6043
  172SAPE   H4X19528   4.685   3.369   7.113  0.4198  0.8923  0.8466
  172SAPE   H4Y19529   4.856   3.336   7.132  0.2414  0.8600 -1.8707
  172SAPE   C3519530   4.733   3.242   7.290  0.6913 -0.0904 -0.4466
  172SAPE   H5X19531   4.764   3.135   7.292 -2.7382 -1.2238 -0.1466
  172SAPE   H5Y19532   4.622   3.243   7.303  0.7056 -0.9382 -0.1822
  172SAPE   C3619533   4.796   3.330   7.400  0.6810 -0.3735 -0.2359
  172SAPE   H6X19534   4.907   3.321   7.405  0.6194 -1.6795 -0.8739
  172SAPE   H6Y19535   4.755   3.297   7.498 -2.0635  1.2108 -0.7334
  172SAPE   C3719536   4.766   3.482   7.384  0.2091  0.6370 -0.4478
  172SAPE   H7X19537   4.677   3.483   7.317 -1.5602 -1.1579  1.7350
  172SAPE   H7Y19538   4.852   3.525   7.327  2.1406 -2.7528 -0.3620
  172SAPE   C3819539   4.739   3.552   7.516  0.4624 -0.5866 -0.4852
  172SAPE   H8X19540   4.803   3.643   7.520 -0.7219  0.2283  0.5960
  172SAPE   H8Y19541   4.759   3.492   7.607 -0.8277 -0.9502 -0.4231
  172SAPE   C3919542   4.593   3.595   7.517 -0.0425 -0.3224 -0.5513
  172SAPE   H9X19543   4.526   3.509   7.493 -0.3797 -0.6108  1.2318
  172SAPE   H9Y19544   4.575   3.668   7.435  1.0982  0.2794 -0.2812
  172SAPE  C31019545   4.542   3.647   7.654  0.1575 -0.4826  1.1028
  172SAPE  H10X19546   4.456   3.717   7.648 -1.1358 -2.0624  0.2945
  172SAPE  H10Y19547   4.624   3.698   7.708  0.5115  0.8594 -0.6192
  172SAPE  C31119548   4.477   3.530   7.736  0.5268  0.5862 -0.2824
  172SAPE  H11X19549   4.553   3.456   7.770 -1.2499 -2.1105 -1.7836
  172SAPE  H11Y19550   4.406   3.474   7.672  0.3838 -0.4165  0.7226
  172SAPE  C31219551   4.407   3.572   7.864  0.2117 -0.0652 -0.5692
  172SAPE  H12X19552   4.396   3.489   7.937  0.3111  0.7048  0.3388
  172SAPE  H12Y19553   4.307   3.605   7.831  0.2308  0.6388  0.0516
  172SAPE  C31319554   4.479   3.691   7.937  0.2984  0.6873 -0.2891
  172SAPE  H13X19555   4.493   3.786   7.882 -1.8231  0.8863 -0.5698
  172SAPE  H13Y19556   4.579   3.652   7.964  0.2968  1.8586  1.6083
  172SAPE  C31419557   4.415   3.717   8.072 -0.4080 -0.5478  0.3715
  172SAPE  H14X19558   4.386   3.619   8.115 -0.6148  0.0156  1.5831
  172SAPE  H14Y19559   4.328   3.785   8.062 -0.2006 -0.3539 -0.1262
  172SAPE  C31519560   4.518   3.774   8.164 -0.3098 -0.2993 -0.4588
  172SAPE  H15X19561   4.566   3.861   8.114 -1.4596  1.2803  1.0327
  172SAPE  H15Y19562   4.600   3.704   8.189 -0.6707 -0.1638  1.1675
  172SAPE  C31619563   4.458   3.815   8.301  0.2198 -0.0697  0.7363
  172SAPE  H16X19564   4.417   3.724   8.350  2.4686 -0.8052  1.3730
  172SAPE  H16Y19565   4.384   3.894   8.274  0.2397 -1.3796 -3.9108
  172SAPE  C31719566   4.559   3.873   8.405  0.8705  0.3599 -0.8898
  172SAPE  H17X19567   4.508   3.913   8.495  1.3885  0.2497 -0.5435
  172SAPE  H17Y19568   4.613   3.958   8.357  0.1065 -0.5604 -3.5671
  172SAPE  C31819569   4.668   3.776   8.447  0.0135 -0.1650 -0.1385
  172SAPE  H18X19570   4.704   3.709   8.367  1.9478 -2.3299  2.3648
  172SAPE  H18Y19571   4.628   3.719   8.533 -1.0980  0.1176 -0.4554
  172SAPE  H18Z19572   4.758   3.832   8.482 -1.8863  1.9022  1.8443
  173SOPE     N19573   5.275   1.041  10.873 -0.0706  0.4529  0.0367
  173SOPE   HN119574   5.183   1.010  10.835 -0.4191  1.7808 -0.2599
  173SOPE   HN219575   5.355   1.004  10.817 -1.7596 -0.3961 -1.9660
  173SOPE   HN319576   5.286   1.002  10.968 -1.0561 -0.9000 -0.3812
  173SOPE   C1219577   5.286   1.184  10.883  0.4498  0.2561  0.3495
  173SOPE  H12A19578   5.381   1.218  10.929 -0.3392  0.1892  2.1150
  173SOPE  H12B19579   5.211   1.210  10.960 -0.3467 -0.1615 -0.2708
  173SOPE   C1119580   5.259   1.250  10.747 -0.1633 -0.3406  0.0895
  173SOPE  H11A19581   5.188   1.187  10.689 -1.4294 -2.0641  3.2336
  173SOPE  H11B19582   5.350   1.244  10.684 -0.1999 -2.4796  0.1607
  173SOPE     P19583   5.322   1.504  10.755 -0.1176 -0.2585 -0.0874
  173SOPE   O1319584   5.449   1.453  10.806  0.6921  0.9243 -0.2561
  173SOPE   O1419585   5.262   1.622  10.821  0.1164  0.2157  0.2178
  173SOPE   O1219586   5.215   1.380  10.765  0.2588 -0.5438  0.1265
  173SOPE   O1119587   5.332   1.527  10.597 -0.3783 -0.0978  0.1540
  173SOPE    C119588   5.206   1.536  10.524  0.1580  0.3491  0.0532
  173SOPE    HA19589   5.140   1.621  10.553 -2.4714 -0.7337 -2.3327
  173SOPE    HB19590   5.151   1.440  10.529  1.6291 -0.5880 -1.1806
  173SOPE    C219591   5.236   1.559  10.373  0.5648 -0.3318 -0.5662
  173SOPE    HS19592   5.140   1.554  10.316 -0.5068 -0.9991  1.2180
  173SOPE   O2119593   5.339   1.466  10.325 -0.4109  0.0281 -0.2385
  173SOPE   C2119594   5.285   1.351  10.290  0.6024  0.0841 -0.0793
  173SOPE   O2219595   5.162   1.328  10.295  0.3935 -0.2007  0.0807
  173SOPE   C2219596   5.403   1.262  10.241 -0.0548  0.6034 -0.1039
  173SOPE   H2R19597   5.453   1.230  10.335 -1.1937  1.6370  0.8917
  173SOPE   H2S19598   5.466   1.332  10.183 -1.7765  2.5350  0.2404
  173SOPE    C319599   5.289   1.703  10.358  0.2857 -0.1009 -0.2829
  173SOPE    HX19600   5.386   1.705  10.413 -0.4475  0.6788  1.0610
  173SOPE    HY19601   5.217   1.776  10.402  0.1501 -0.3640 -0.0725
  173SOPE   O3119602   5.297   1.729  10.224  0.1525  0.2634 -0.0226
  173SOPE   C3119603   5.426   1.724  10.171 -0.1510  0.2400 -0.7629
  173SOPE   O3219604   5.529   1.705  10.231 -0.6075  0.5815 -0.5856
  173SOPE   C3219605   5.404   1.749  10.018  0.4857 -0.6010 -0.6356
  173SOPE   H2X19606   5.392   1.860  10.009  2.6726 -0.3945 -1.5836
  173SOPE   H2Y19607   5.305   1.705   9.992  0.8071 -1.0490 -1.1181
  173SOPE   C2319608   5.357   1.143  10.152 -0.2796 -0.3910  0.4050
  173SOPE   H3R19609   5.270   1.085  10.187 -0.0370 -0.0120  1.6830
  173SOPE   H3S19610   5.421   1.052  10.156 -3.0954 -2.5180  0.3707
  173SOPE   C2419611   5.332   1.180  10.003  0.9557  0.0035  0.0983
  173SOPE   H4R19612   5.435   1.176   9.962  0.8576  0.7264 -0.2236
  173SOPE   H4S19613   5.274   1.095   9.961  1.3990 -1.0326  1.4971
  173SOPE   C2519614   5.263   1.312   9.976 -0.0832 -0.6123  0.5349
  173SOPE   H5R19615   5.158   1.293  10.007  0.1416  0.1344  1.8542
  173SOPE   H5S19616   5.305   1.396  10.035 -2.0268  1.2059 -0.5345
  173SOPE   C2619617   5.254   1.348   9.822  0.1280 -0.0200  0.0501
  173SOPE   H6R19618   5.212   1.263   9.765  0.4156 -0.3040  0.2585
  173SOPE   H6S19619   5.196   1.439   9.794  1.9675  0.8224 -1.2685
  173SOPE   C2719620   5.393   1.379   9.753 -0.0192 -0.0917 -0.4924
  173SOPE   H7R19621   5.441   1.462   9.810  2.9337 -1.3088 -0.9922
  173SOPE   H7S19622   5.463   1.293   9.759  2.4173  1.7992  0.1150
  173SOPE   C2819623   5.385   1.429   9.608  0.3360 -0.5267 -0.8221
  173SOPE   H8R19624   5.321   1.520   9.611  0.8903 -0.1119 -1.3391
  173SOPE   H8S19625   5.490   1.457   9.583  0.7155 -0.1085  1.1076
  173SOPE   C2919626   5.324   1.328   9.508 -0.0031  0.3705  0.2849
  173SOPE   H9119627   5.252   1.264   9.561  0.9200  0.8459  2.2217
  173SOPE  C21019628   5.350   1.325   9.378 -0.0794 -0.0085  0.3188
  173SOPE  H10119629   5.304   1.246   9.317  1.2880 -1.0526  0.5943
  173SOPE  C21119630   5.445   1.421   9.306  0.5347  0.1817  0.1687
  173SOPE  H11R19631   5.480   1.504   9.370 -1.8473  2.2827 -1.0679
  173SOPE  H11S19632   5.381   1.465   9.226  0.2729 -0.8038 -0.1833
  173SOPE  C21219633   5.564   1.350   9.242  0.5598 -0.3118 -0.3278
  173SOPE  H12R19634   5.607   1.286   9.322 -0.2849 -0.6719 -0.1517
  173SOPE  H12S19635   5.643   1.425   9.220  0.6799 -1.3303 -4.0897
  173SOPE  C21319636   5.516   1.268   9.127 -0.6718  0.1389  0.2778
  173SOPE  H13R19637   5.459   1.337   9.061 -1.5803 -0.7794  0.0737
  173SOPE  H13S19638   5.449   1.190   9.168  2.5318 -2.5149  0.8676
  173SOPE  C21419639   5.631   1.214   9.038  0.1931  0.7241  0.5380
  173SOPE  H14R19640   5.665   1.114   9.075 -0.6958  0.5329  0.8700
  173SOPE  H14S19641   5.719   1.280   9.024  0.2613  0.4240 -0.5508
  173SOPE  C21519642   5.586   1.178   8.895 -0.5000 -0.4070 -0.6038
  173SOPE  H15R19643   5.548   1.265   8.837  1.9647  1.7475  0.8054
  173SOPE  H15S19644   5.506   1.103   8.917 -1.7717  0.4839 -2.0312
  173SOPE  C21619645   5.695   1.105   8.814 -0.4925 -0.1728 -0.1926
  173SOPE  H16R19646   5.666   0.998   8.809 -3.8679  0.6942 -1.8109
  173SOPE  H16S19647   5.795   1.102   8.862 -0.1204  1.1061 -0.8253
  173SOPE  C21719648   5.702   1.141   8.667 -0.1214 -0.1859 -0.4619
  173SOPE  H17R19649   5.656   1.241   8.658 -2.7193 -0.9848  2.3608
  173SOPE  H17S19650   5.644   1.070   8.604 -0.4078  0.1086 -0.5325
  173SOPE  C21819651   5.843   1.150   8.604  0.0224 -0.5097 -0.0641
  173SOPE  H18R19652   5.874   1.046   8.579 -0.2838 -1.3619  2.7876
  173SOPE  H18S19653   5.923   1.202   8.660  1.2728  0.6624 -2.7392
  173SOPE  H18T19654   5.833   1.202   8.506  0.6481  0.9576  0.6140
  173SOPE   C3319655   5.524   1.695   9.934  0.0328 -0.7954 -0.4673
  173SOPE   H3X19656   5.530   1.586   9.953 -1.0843 -0.5695  1.5478
  173SOPE   H3Y19657   5.616   1.729   9.985  0.2522 -2.4737  0.3247
  173SOPE   C3419658   5.524   1.733   9.787 -0.1843 -0.1859  0.5378
  173SOPE   H4X19659   5.523   1.844   9.784  0.4591  0.0034  3.8520
  173SOPE   H4Y19660   5.441   1.691   9.726  0.9570  1.2715 -2.1978
  173SOPE   C3519661   5.649   1.679   9.720 -0.1313 -0.1580  0.0437
  173SOPE   H5X19662   5.653   1.568   9.722  4.6721 -0.2052  0.2423
  173SOPE   H5Y19663   5.743   1.709   9.772 -0.6438  2.0388 -0.2049
  173SOPE   C3619664   5.657   1.719   9.575  0.2168  0.0765 -0.2183
  173SOPE   H6X19665   5.626   1.826   9.574 -0.4909 -0.0812  1.2550
  173SOPE   H6Y19666   5.583   1.660   9.517  1.2065 -1.0328 -0.3837
  173SOPE   C3719667   5.784   1.710   9.499  0.0175  0.8463  0.2305
  173SOPE   H7X19668   5.822   1.606   9.509 -3.8346 -0.6405  0.9209
  173SOPE   H7Y19669   5.851   1.784   9.548  0.6459  0.0360  0.6038
  173SOPE   C3819670   5.771   1.747   9.351 -0.1171 -0.3355 -0.0131
  173SOPE   H8X19671   5.734   1.848   9.324 -1.3304 -0.8929 -0.5329
  173SOPE   H8Y19672   5.695   1.682   9.303 -0.9945  0.9793 -0.4686
  173SOPE   C3919673   5.905   1.717   9.280 -0.2896 -0.1250 -0.1898
  173SOPE   H9X19674   5.941   1.615   9.305 -1.5279 -0.1994  1.4695
  173SOPE   H9Y19675   5.974   1.791   9.327 -0.6930 -0.5018  1.0396
  173SOPE  C31019676   5.895   1.742   9.134  1.1971 -0.2654  0.3560
  173SOPE  H10X19677   6.002   1.749   9.106  0.7006 -1.2306 -2.0454
  173SOPE  H10Y19678   5.846   1.835   9.100 -1.6231 -1.7709  0.0161
  173SOPE  C31119679   5.832   1.624   9.057 -0.5887 -0.1493 -0.1123
  173SOPE  H11X19680   5.722   1.626   9.071 -0.6663  0.6536 -0.7718
  173SOPE  H11Y19681   5.872   1.530   9.101  1.2846 -1.1607 -3.6268
  173SOPE  C31219682   5.866   1.634   8.906 -0.3429 -0.2762  0.7675
  173SOPE  H12X19683   5.976   1.649   8.896 -0.7187  4.5745  1.0596
  173SOPE  H12Y19684   5.829   1.730   8.864  0.4714 -0.3578 -0.1729
  173SOPE  C31319685   5.816   1.523   8.819  0.5887 -0.0151  0.5130
  173SOPE  H13X19686   5.707   1.507   8.833  0.8797 -2.1793  0.6398
  173SOPE  H13Y19687   5.867   1.429   8.851  1.8734  0.4021 -0.2468
  173SOPE  C31419688   5.841   1.547   8.671 -0.0988  0.8599 -0.4979
  173SOPE  H14X19689   5.822   1.654   8.644  0.9800  1.2252  0.1240
  173SOPE  H14Y19690   5.771   1.478   8.621  0.0386 -1.7124  2.5386
  173SOPE  C31519691   5.986   1.520   8.619  0.0326  0.6054  0.1270
  173SOPE  H15X19692   5.977   1.442   8.541  1.1269 -1.7889  2.2816
  173SOPE  H15Y19693   6.047   1.475   8.700 -0.4453  0.3361  0.3401
  173SOPE  C31619694   6.052   1.649   8.556 -0.5845  0.9147  0.2588
  173SOPE  H16X19695   6.087   1.703   8.647  1.9699  0.9668 -0.6805
  173SOPE  H16Y19696   5.977   1.708   8.498 -1.3965 -0.5304 -0.2116
  173SOPE  C31719697   6.180   1.613   8.480  0.0620  0.5644 -0.2493
  173SOPE  H17X19698   6.167   1.546   8.391  0.0896  0.5758 -0.2612
  173SOPE  H17Y19699   6.242   1.553   8.550  0.6556  0.2001 -1.0597
  173SOPE  C31819700   6.270   1.728   8.438 -0.0096 -0.5911 -0.6487
  173SOPE  H18X19701   6.227   1.798   8.365  2.3004 -1.1017 -2.6189
  173SOPE  H18Y19702   6.367   1.686   8.405  0.1588 -2.0365  1.4636
  173SOPE  H18Z19703   6.295   1.792   8.526  0.6498 -0.0462 -1.2218
  174SOPE     N19704   0.695   6.749  10.935 -0.5342 -0.0432  0.5416
  174SOPE   HN119705   0.752   6.822  10.982  0.1907 -1.2809  1.6515
  174SOPE   HN219706   0.649   6.709  11.020  1.8741 -0.5721  1.6920
  174SOPE   HN319707   0.758   6.673  10.902 -1.5995  0.0901 -1.9753
  174SOPE   C1219708   0.613   6.798  10.820  1.2350  0.7446 -0.0949
  174SOPE  H12A19709   0.555   6.887  10.851 -0.3145  0.2155 -1.3425
  174SOPE  H12B19710   0.547   6.712  10.794  0.9458  1.6722 -2.7062
  174SOPE   C1119711   0.704   6.835  10.701  0.5080 -0.4372  0.1956
  174SOPE  H11A19712   0.641   6.878  10.621  0.0386  1.9556  1.7624
  174SOPE  H11B19713   0.745   6.741  10.658 -0.2313 -1.4612  1.6573
  174SOPE     P19714   0.951   6.910  10.677  0.1444 -0.3163  0.0685
  174SOPE   O1319715   1.003   6.779  10.719 -0.4711  0.4376  0.1860
  174SOPE   O1419716   1.031   7.027  10.716 -0.0370  0.1672 -0.3218
  174SOPE   O1219717   0.808   6.925  10.734  0.5321  0.2711 -0.6186
  174SOPE   O1119718   0.929   6.922  10.524  0.0108  0.6373  0.2766
  174SOPE    C119719   0.879   7.046  10.475  0.0822 -0.3875 -0.6969
  174SOPE    HA19720   0.949   7.129  10.497  0.3306 -0.5131 -0.9831
  174SOPE    HB19721   0.783   7.079  10.519  1.6558  2.8220  0.6154
  174SOPE    C219722   0.871   7.046  10.321  0.0197 -0.4526  1.1214
  174SOPE    HS19723   0.869   7.151  10.284  1.8614 -0.7331  0.0855
  174SOPE   O2119724   0.765   6.968  10.264 -0.0954 -0.3230  0.1662
  174SOPE   C2119725   0.645   7.030  10.248 -0.1025 -0.4226 -0.3328
  174SOPE   O2219726   0.620   7.141  10.291  0.2289 -0.2580 -0.1732
  174SOPE   C2219727   0.553   6.949  10.151 -0.1550  0.2949  0.0885
  174SOPE   H2R19728   0.459   7.002  10.128 -0.0867  0.0320 -0.8672
  174SOPE   H2S19729   0.523   6.853  10.199  1.9605 -1.3324 -1.5776
  174SOPE    C319730   1.007   7.006  10.258 -0.5326 -0.6758 -0.5505
  174SOPE    HX19731   1.026   6.902  10.291  2.2121  0.4425  1.7761
  174SOPE    HY19732   1.077   7.073  10.312  0.0131 -0.8607 -1.0211
  174SOPE   O3119733   1.013   7.029  10.114  0.2683  0.5430 -0.2413
  174SOPE   C3119734   1.123   6.978  10.055  0.7309 -0.3778 -0.2749
  174SOPE   O3219735   1.212   6.918  10.112 -0.1227 -0.0057  0.6161
  174SOPE   C3219736   1.118   6.996   9.903 -0.7556  0.5207 -0.0773
  174SOPE   H2X19737   1.044   6.926   9.860 -0.0662 -0.3413  0.1072
  174SOPE   H2Y19738   1.214   6.955   9.866 -0.7667 -0.5681  1.0464
  174SOPE   C2319739   0.627   6.915  10.017 -0.4063 -0.0380 -0.1084
  174SOPE   H3R19740   0.564   6.843   9.960 -0.0624  0.4776 -1.1682
  174SOPE   H3S19741   0.720   6.866  10.052  0.0675  1.6668  1.1650
  174SOPE   C2419742   0.654   7.036   9.919 -0.4512  0.2186  1.0807
  174SOPE   H4R19743   0.611   7.128   9.964 -0.4703  0.3622  0.7685
  174SOPE   H4S19744   0.762   7.050   9.897 -0.1441 -2.3852  0.5348
  174SOPE   C2519745   0.600   7.018   9.771  1.4600  0.0037 -0.3948
  174SOPE   H5R19746   0.650   6.928   9.732  2.2106  0.2091  0.0727
  174SOPE   H5S19747   0.496   6.980   9.784  0.0789  3.8531  1.3808
  174SOPE   C2619748   0.585   7.144   9.696  0.1766  0.3425 -0.3082
  174SOPE   H6R19749   0.520   7.117   9.610 -0.7574  1.1301  0.1345
  174SOPE   H6S19750   0.532   7.216   9.761 -3.0607 -0.9569 -1.3299
  174SOPE   C2719751   0.712   7.194   9.634 -0.1030 -0.5144 -0.4787
  174SOPE   H7R19752   0.772   7.246   9.711 -1.9088 -0.4355  0.9374
  174SOPE   H7S19753   0.768   7.102   9.606 -2.3952 -2.1763  0.0280
  174SOPE   C2819754   0.705   7.290   9.518  0.3027 -0.7065  0.5491
  174SOPE   H8R19755   0.649   7.385   9.533 -0.8692 -1.1751 -0.7020
  174SOPE   H8S19756   0.807   7.333   9.507  0.2557 -0.8681 -0.6518
  174SOPE   C2919757   0.663   7.221   9.388  0.5929  0.0181  0.8908
  174SOPE   H9119758   0.559   7.184   9.386  0.0050  1.5102 -2.4923
  174SOPE  C21019759   0.744   7.178   9.289  0.5763 -0.0679 -0.4107
  174SOPE  H10119760   0.698   7.141   9.196 -0.8481  1.5738 -0.4082
  174SOPE  C21119761   0.889   7.221   9.281 -0.2266  0.9404  1.0472
  174SOPE  H11R19762   0.933   7.134   9.333 -0.5331  0.9989  1.4103
  174SOPE  H11S19763   0.934   7.302   9.343  1.9513 -1.1897  2.4403
  174SOPE  C21219764   0.939   7.237   9.137 -0.4752  0.3671 -0.1376
  174SOPE  H12R19765   1.047   7.261   9.139 -1.0895  3.5934  0.6650
  174SOPE  H12S19766   0.899   7.329   9.090 -1.2335  0.3140  0.3796
  174SOPE  C21319767   0.921   7.115   9.042  0.0844  0.2159 -0.3131
  174SOPE  H13R19768   0.814   7.107   9.014 -0.5528  0.2481  1.9074
  174SOPE  H13S19769   0.943   7.023   9.100  1.4585  1.5083  1.3030
  174SOPE  C21419770   1.002   7.103   8.911  0.3121 -0.0162  0.0614
  174SOPE  H14R19771   1.111   7.095   8.933 -0.3870  1.0894  5.1190
  174SOPE  H14S19772   0.958   7.176   8.840 -0.0184 -1.4715 -1.2814
  174SOPE  C21519773   0.965   6.970   8.841 -0.3007 -0.7295 -0.4399
  174SOPE  H15R19774   0.867   6.990   8.792 -0.2493  0.5652 -0.0537
  174SOPE  H15S19775   0.954   6.886   8.914  0.4192 -0.3324  0.1403
  174SOPE  C21619776   1.065   6.918   8.734 -0.0935  0.7546 -0.8830
  174SOPE  H16R19777   1.062   6.808   8.725 -0.5140  0.7714 -0.9536
  174SOPE  H16S19778   1.168   6.940   8.772 -1.0500  4.3873 -0.0097
  174SOPE  C21719779   1.053   6.989   8.600 -0.3980  0.1339 -0.1602
  174SOPE  H17R19780   1.057   7.099   8.615  2.8459 -0.0651  1.2327
  174SOPE  H17S19781   0.954   6.971   8.552 -0.6435  1.1031 -0.0478
  174SOPE  C21819782   1.164   6.939   8.514  0.2137 -0.4127  0.1737
  174SOPE  H18R19783   1.154   6.957   8.405  0.7152  3.9329  0.6740
  174SOPE  H18S19784   1.165   6.828   8.521 -0.3059 -0.4957 -0.8707
  174SOPE  H18T19785   1.255   6.990   8.553  1.0220 -2.0390  0.4727
  174SOPE   C3319786   1.095   7.142   9.854  0.0252 -1.0238  0.6697
  174SOPE   H3X19787   1.162   7.201   9.921  1.3806 -0.1949 -1.3450
  174SOPE   H3Y19788   0.993   7.174   9.884 -0.6173 -0.0827 -2.1961
  174SOPE   C3419789   1.129   7.175   9.710  0.2372 -0.3168  0.2656
  174SOPE   H4X19790   1.071   7.111   9.640  2.0265  1.0869 -2.7004
  174SOPE   H4Y19791   1.237   7.153   9.694  0.0338 -2.3465  1.3012
  174SOPE   C3519792   1.105   7.320   9.671 -0.5069  0.2970 -0.1683
  174SOPE   H5X19793   1.140   7.385   9.754 -1.2852 -0.5754  0.8739
  174SOPE   H5Y19794   0.997   7.345   9.672 -0.1667  1.8662  0.3338
  174SOPE   C3619795   1.181   7.362   9.546  0.0385 -0.0602 -0.1930
  174SOPE   H6X19796   1.170   7.290   9.462  1.7797 -1.3843  0.6357
  174SOPE   H6Y19797   1.288   7.349   9.571  0.9804  3.2013 -2.0098
  174SOPE   C3719798   1.146   7.502   9.487 -0.6253  0.0851 -0.0969
  174SOPE   H7X19799   1.209   7.579   9.536 -2.6960  0.8814  1.4581
  174SOPE   H7Y19800   1.039   7.530   9.500 -0.9360 -1.7128  1.7061
  174SOPE   C3819801   1.193   7.507   9.338  0.6215  0.8182  0.2468
  174SOPE   H8X19802   1.177   7.603   9.284  1.3518 -0.4316 -2.3832
  174SOPE   H8Y19803   1.145   7.419   9.291  1.3466  0.0122  1.0061
  174SOPE   C3919804   1.336   7.472   9.326 -0.2817  0.2969 -0.0284
  174SOPE   H9X19805   1.357   7.367   9.355 -0.5634  0.7086  1.7763
  174SOPE   H9Y19806   1.387   7.533   9.404 -3.5230  1.5324  1.2842
  174SOPE  C31019807   1.395   7.495   9.183 -0.3511  0.0240 -0.3576
  174SOPE  H10X19808   1.503   7.472   9.179 -0.1485  1.0911 -1.1849
  174SOPE  H10Y19809   1.400   7.603   9.159  1.3418 -0.5518 -3.0026
  174SOPE  C31119810   1.329   7.412   9.072  0.1901  0.1401  0.5466
  174SOPE  H11X19811   1.225   7.444   9.052 -0.8194 -2.7072  0.8578
  174SOPE  H11Y19812   1.321   7.306   9.105 -0.6458 -0.5676 -1.7450
  174SOPE  C31219813   1.420   7.431   8.949  0.5251 -0.3614  0.0083
  174SOPE  H12X19814   1.522   7.392   8.966 -0.1631 -2.5367 -0.5141
  174SOPE  H12Y19815   1.429   7.539   8.926 -1.6587  0.2074  1.5450
  174SOPE  C31319816   1.355   7.359   8.826  0.0257 -0.6621  0.1089
  174SOPE  H13X19817   1.313   7.267   8.872 -2.1860  0.2931  0.1689
  174SOPE  H13Y19818   1.422   7.354   8.738  0.2115 -2.1144  0.3149
  174SOPE  C31419819   1.236   7.440   8.775  0.0841 -0.2907 -0.7037
  174SOPE  H14X19820   1.268   7.546   8.772 -1.1720  0.1252 -0.0634
  174SOPE  H14Y19821   1.148   7.433   8.843  0.5894 -2.0689 -0.1554
  174SOPE  C31519822   1.191   7.405   8.633  0.0202 -0.6820 -0.3016
  174SOPE  H15X19823   1.156   7.303   8.607  1.6971 -0.8169 -2.2319
  174SOPE  H15Y19824   1.283   7.419   8.573  1.2807 -1.2836  1.4103
  174SOPE  C31619825   1.078   7.499   8.581 -0.4693 -0.4020 -0.0791
  174SOPE  H16X19826   1.126   7.598   8.574 -0.1199 -0.6130 -0.7444
  174SOPE  H16Y19827   0.993   7.504   8.653 -1.9252 -1.1549 -1.6694
  174SOPE  C31719828   1.013   7.454   8.451 -0.0617  0.2931  0.2130
  174SOPE  H17X19829   1.093   7.452   8.374 -0.6204  1.2639 -0.4074
  174SOPE  H17Y19830   0.940   7.523   8.403 -0.4168  1.0504  1.7891
  174SOPE  C31819831   0.948   7.310   8.463  0.5266  0.5786 -0.1059
  174SOPE  H18X19832   0.888   7.287   8.372 -0.2277  1.7510  0.0609
  174SOPE  H18Y19833   0.881   7.298   8.551 -0.4584 -2.0903 -1.1119
  174SOPE  H18Z19834   1.021   7.227   8.460 -0.5850 -0.4215 -1.0225
  175SOPE     N19835   4.174   1.776  10.913  0.1492 -0.2055  0.2664
  175SOPE   HN119836   4.083   1.748  10.872  1.0761 -4.6816  0.7522
  175SOPE   HN219837   4.231   1.689  10.909 -1.4052 -1.2485 -0.1958
  175SOPE   HN319838   4.169   1.815  11.009  1.0335  2.5485 -0.6943
  175SOPE   C1219839   4.242   1.876  10.813  0.6306 -0.3446 -0.1681
  175SOPE  H12A19840   4.341   1.908  10.852  1.9049 -2.7083 -1.2473
  175SOPE  H12B19841   4.175   1.963  10.794  0.6989 -0.6029 -1.7339
  175SOPE   C1119842   4.266   1.800  10.684  0.5425  0.4133  0.7143
  175SOPE  H11A19843   4.310   1.700  10.706 -1.0635  0.0556  2.5318
  175SOPE  H11B19844   4.329   1.867  10.622  1.0715  0.2785  1.0981
  175SOPE     P19845   4.087   1.877  10.496  0.3015  0.3582  0.5055
  175SOPE   O1319846   4.098   2.020  10.534 -0.0873 -0.5229 -0.0353
  175SOPE   O1419847   3.957   1.827  10.446 -0.2671 -0.4068  0.2061
  175SOPE   O1219848   4.136   1.787  10.615  0.2300  0.1100 -0.4659
  175SOPE   O1119849   4.192   1.833  10.387 -0.8256  0.0000  0.2023
  175SOPE    C119850   4.207   1.703  10.328 -1.7422  0.2190  0.3203
  175SOPE    HA19851   4.125   1.630  10.347  0.8002 -3.3965 -1.5510
  175SOPE    HB19852   4.302   1.653  10.354 -1.7762  1.1108  2.3362
  175SOPE    C219853   4.195   1.713  10.169 -0.3040 -0.9977  0.3902
  175SOPE    HS19854   4.197   1.608  10.133 -0.0289 -0.8414 -0.0505
  175SOPE   O2119855   4.299   1.787  10.116 -0.1952  0.1301 -0.8539
  175SOPE   C2119856   4.414   1.730  10.098  0.3660 -0.3582 -0.3189
  175SOPE   O2219857   4.439   1.613  10.117  0.4755  0.1835  0.5115
  175SOPE   C2219858   4.515   1.835  10.047 -0.5689  0.0906  0.5709
  175SOPE   H2R19859   4.598   1.780   9.997 -1.5084 -1.9649  1.1774
  175SOPE   H2S19860   4.549   1.859  10.150  3.1766  1.2938 -0.7774
  175SOPE    C319861   4.060   1.778  10.130 -1.0970  0.1427  0.0273
  175SOPE    HX19862   4.076   1.884  10.161  0.5096 -0.0914  0.0829
  175SOPE    HY19863   3.979   1.722  10.180  0.7759 -2.3138  0.5088
  175SOPE   O3119864   4.053   1.778   9.987 -0.0541  0.0126 -0.4651
  175SOPE   C3119865   3.929   1.812   9.943 -0.2072  0.5474 -0.3758
  175SOPE   O3219866   3.842   1.864  10.007  0.3308 -0.7120 -0.4446
  175SOPE   C3219867   3.918   1.759   9.793  0.1414  0.3330 -0.3445
  175SOPE   H2X19868   3.922   1.850   9.730 -0.3581  0.2823 -0.4500
  175SOPE   H2Y19869   3.810   1.736   9.783  0.2692 -0.4094 -0.0598
  175SOPE   C2319870   4.460   1.956   9.967  0.0160 -0.1764  0.2727
  175SOPE   H3R19871   4.530   2.040   9.989 -0.4323  0.4241 -0.5149
  175SOPE   H3S19872   4.357   1.985   9.999 -0.1742  0.9753 -1.2474
  175SOPE   C2419873   4.467   1.948   9.813 -1.2640  0.3929 -0.6506
  175SOPE   H4R19874   4.462   2.051   9.771  1.6691  1.3067  0.9614
  175SOPE   H4S19875   4.567   1.910   9.783 -1.3867 -1.3418  0.9569
  175SOPE   C2519876   4.355   1.876   9.747 -0.2911  0.5965 -0.3348
  175SOPE   H5R19877   4.348   1.778   9.798  0.3780  0.0104 -1.3367
  175SOPE   H5S19878   4.263   1.933   9.771 -0.6711  0.0354 -0.4466
  175SOPE   C2619879   4.368   1.872   9.599  0.1143 -0.4365  0.8192
  175SOPE   H6R19880   4.367   1.977   9.562 -0.9695 -0.2244  1.4185
  175SOPE   H6S19881   4.465   1.824   9.573 -0.1791 -0.4098 -0.4113
  175SOPE   C2719882   4.264   1.783   9.531  0.9834  0.1014  0.4272
  175SOPE   H7R19883   4.280   1.675   9.550  1.2241  0.0270 -0.1723
  175SOPE   H7S19884   4.162   1.820   9.555 -0.3348 -2.9297 -0.0675
  175SOPE   C2819885   4.275   1.786   9.371 -0.3467 -0.1768  0.1647
  175SOPE   H8R19886   4.272   1.896   9.354 -0.8812 -0.2605 -0.3054
  175SOPE   H8S19887   4.379   1.757   9.347  0.0257 -0.1041  1.5873
  175SOPE   C2919888   4.180   1.701   9.293  0.5240  0.5614  0.2803
  175SOPE   H9119889   4.076   1.736   9.301  0.7510  1.8072 -1.5432
  175SOPE  C21019890   4.209   1.592   9.216  0.5951 -0.2184  0.5839
  175SOPE  H10119891   4.126   1.552   9.157  0.7164 -1.1081  1.0110
  175SOPE  C21119892   4.347   1.529   9.190  0.4473  0.3383  0.0651
  175SOPE  H11R19893   4.322   1.420   9.191 -0.9464  0.6208  1.5096
  175SOPE  H11S19894   4.430   1.547   9.262  0.4572 -0.7347  0.3441
  175SOPE  C21219895   4.407   1.554   9.052 -0.1501 -0.2496  0.4133
  175SOPE  H12R19896   4.481   1.472   9.042 -0.4230 -0.5295  0.6655
  175SOPE  H12S19897   4.461   1.650   9.047  2.0310 -1.3812  0.8638
  175SOPE  C21319898   4.306   1.557   8.938  0.6316  0.1966 -0.1621
  175SOPE  H13R19899   4.229   1.634   8.960 -1.4373 -2.6214  3.4405
  175SOPE  H13S19900   4.243   1.466   8.942 -0.0605  0.6954  0.6133
  175SOPE  C21419901   4.355   1.582   8.793  0.2739 -1.2022 -0.1472
  175SOPE  H14R19902   4.377   1.690   8.789  0.4548 -1.2621 -0.8771
  175SOPE  H14S19903   4.278   1.565   8.715  0.3469  0.7586 -0.6844
  175SOPE  C21519904   4.480   1.506   8.749  0.5190 -0.0799 -0.6378
  175SOPE  H15R19905   4.460   1.398   8.732 -1.3098 -0.0162  0.8078
  175SOPE  H15S19906   4.564   1.520   8.820  1.9368 -0.0363 -2.2676
  175SOPE  C21619907   4.546   1.566   8.621 -0.2424  0.2860 -0.6522
  175SOPE  H16R19908   4.562   1.674   8.639 -3.1050  0.3803  2.3162
  175SOPE  H16S19909   4.465   1.565   8.545 -4.0486  1.3487  2.9886
  175SOPE  C21719910   4.672   1.498   8.566 -0.5558 -0.5136  0.1542
  175SOPE  H17R19911   4.681   1.512   8.456 -1.0611 -3.9678 -0.4446
  175SOPE  H17S19912   4.671   1.388   8.583  0.6581 -0.5109  0.3054
  175SOPE  C21819913   4.790   1.560   8.636  0.2074  0.1213 -0.0288
  175SOPE  H18R19914   4.760   1.625   8.721 -1.0907  0.4038 -0.6899
  175SOPE  H18S19915   4.858   1.617   8.570  1.1134 -0.7552  0.1172
  175SOPE  H18T19916   4.859   1.478   8.669  2.1229  1.0131 -1.6434
  175SOPE   C3319917   3.985   1.637   9.731 -0.3429  0.1897  0.0588
  175SOPE   H3X19918   3.981   1.558   9.810  2.7055  0.9612  1.1311
  175SOPE   H3Y19919   4.092   1.655   9.705 -0.1990 -1.9168 -1.0160
  175SOPE   C3419920   3.914   1.598   9.594  0.3505 -0.8253 -0.2048
  175SOPE   H4X19921   3.917   1.686   9.527 -2.1866 -1.9504 -1.9598
  175SOPE   H4Y19922   3.806   1.588   9.617  0.4984  1.7213  2.0874
  175SOPE   C3519923   3.975   1.476   9.528 -0.3481  0.9913 -0.3923
  175SOPE   H5X19924   3.995   1.388   9.594 -1.6017 -0.4592 -1.8633
  175SOPE   H5Y19925   4.073   1.517   9.496  0.1638  0.2688  0.2018
  175SOPE   C3619926   3.903   1.417   9.408 -0.2520 -0.1260  0.0675
  175SOPE   H6X19927   3.892   1.495   9.329  2.6416 -1.4328 -1.8030
  175SOPE   H6Y19928   3.796   1.401   9.431 -0.3880  0.4667 -0.1203
  175SOPE   C3719929   3.969   1.292   9.341 -0.2076 -0.2123 -0.0482
  175SOPE   H7X19930   3.933   1.203   9.396 -1.7512  1.6991  2.2254
  175SOPE   H7Y19931   4.079   1.286   9.361 -0.2548  0.5178  0.4974
  175SOPE   C3819932   3.953   1.284   9.191 -0.2096 -0.4163  0.5613
  175SOPE   H8X19933   4.011   1.372   9.153  0.6334 -1.6323 -1.0992
  175SOPE   H8Y19934   3.844   1.301   9.183 -0.4837 -1.3982  1.9149
  175SOPE   C3919935   4.000   1.157   9.125 -0.8316  0.3222 -0.8192
  175SOPE   H9X19936   3.925   1.076   9.138 -0.8557  0.4307 -0.2538
  175SOPE   H9Y19937   4.097   1.113   9.159 -1.0513 -0.5469 -1.2735
  175SOPE  C31019938   4.020   1.175   8.974 -0.2745  0.0885 -0.0990
  175SOPE  H10X19939   4.095   1.253   8.947 -0.0188 -1.0795 -3.1293
  175SOPE  H10Y19940   3.926   1.215   8.930 -0.2137 -0.4976 -0.7818
  175SOPE  C31119941   4.057   1.040   8.918 -0.9058  0.3166  0.3359
  175SOPE  H11X19942   3.976   0.964   8.922 -0.6104  0.0299  1.2031
  175SOPE  H11Y19943   4.137   0.993   8.979 -1.0717 -1.2837 -0.6419
  175SOPE  C31219944   4.122   1.049   8.780  0.4084 -0.1169  0.7576
  175SOPE  H12X19945   4.173   0.956   8.748 -0.9974 -0.8964  0.7026
  175SOPE  H12Y19946   4.195   1.133   8.777 -0.3519  0.5959  1.6493
  175SOPE  C31319947   4.009   1.080   8.677 -0.7518 -0.4904  0.5477
  175SOPE  H13X19948   3.975   1.185   8.692 -0.2008 -0.4208  1.3988
  175SOPE  H13Y19949   3.924   1.010   8.689 -1.5902  0.3730 -0.1830
  175SOPE  C31419950   4.069   1.073   8.524 -0.3349 -0.3352 -0.0163
  175SOPE  H14X19951   4.100   0.967   8.512 -0.3266 -0.7337  2.8487
  175SOPE  H14Y19952   4.157   1.141   8.516  0.1474 -1.0383 -0.8685
  175SOPE  C31519953   3.968   1.097   8.415  0.0469 -0.2927 -0.0936
  175SOPE  H15X19954   3.905   1.179   8.456 -0.8760 -2.2715  2.7816
  175SOPE  H15Y19955   3.897   1.012   8.406  0.2763 -0.5057  0.1209
  175SOPE  C31619956   4.018   1.129   8.274 -0.1686 -0.1946  0.1636
  175SOPE  H16X19957   4.083   1.053   8.226  0.4643  1.4635 -1.7322
  175SOPE  H16Y19958   4.079   1.222   8.285  0.3786 -0.7548  2.3922
  175SOPE  C31719959   3.908   1.153   8.173 -0.6620 -0.3003 -0.4611
  175SOPE  H17X19960   3.858   1.059   8.141  0.7468 -1.0582 -0.5170
  175SOPE  H17Y19961   3.961   1.182   8.080  0.4520 -0.3903  0.1386
  175SOPE  C31819962   3.800   1.260   8.191  0.4379  0.2219 -0.0078
  175SOPE  H18X19963   3.707   1.213   8.228  0.2913  2.0068  2.0885
  175SOPE  H18Y19964   3.769   1.300   8.093 -0.3986 -0.7532 -0.1526
  175SOPE  H18Z19965   3.829   1.346   8.256  2.1579  0.7421 -1.3593
  176SOPE     N19966   0.512   0.576  10.750 -0.4994  0.0383 -0.4469
  176SOPE   HN119967   0.596   0.613  10.798 -2.6211  2.8776  1.4057
  176SOPE   HN219968   0.487   0.502  10.819  1.7145  0.6699  1.1434
  176SOPE   HN319969   0.539   0.544  10.654  0.6231 -3.1243  0.8080
  176SOPE   C1219970   0.406   0.684  10.750 -0.5425 -0.1165 -0.0528
  176SOPE  H12A19971   0.403   0.732  10.850 -1.3784  3.1044 -1.4837
  176SOPE  H12B19972   0.307   0.635  10.736 -0.5312 -0.2027  0.1699
  176SOPE   C1119973   0.430   0.797  10.651  0.0948 -0.4577 -0.5201
  176SOPE  H11A19974   0.335   0.854  10.641 -0.1840 -0.6306  0.9571
  176SOPE  H11B19975   0.439   0.761  10.546 -0.7962 -0.4718 -0.5945
  176SOPE     P19976   0.549   1.001  10.775 -0.0906  0.3340  0.1131
  176SOPE   O1319977   0.682   1.038  10.834 -0.2728  0.0104  0.3651
  176SOPE   O1419978   0.435   0.998  10.875  0.3975 -0.4444  0.3607
  176SOPE   O1219979   0.545   0.866  10.690 -1.0609 -0.5539 -0.0553
  176SOPE   O1119980   0.507   1.100  10.665  0.4665 -0.0190 -0.2764
  176SOPE    C119981   0.603   1.116  10.554 -0.0699 -0.0792  0.0335
  176SOPE    HA19982   0.668   1.029  10.531  2.1141  1.5345 -0.2068
  176SOPE    HB19983   0.666   1.206  10.573 -1.1788  0.4493  1.4692
  176SOPE    C219984   0.526   1.155  10.417 -0.9847 -0.1658  0.7068
  176SOPE    HS19985   0.463   1.242  10.443  0.1368  1.3292 -1.3669
  176SOPE   O2119986   0.450   1.034  10.384 -0.1390 -0.1915  0.2894
  176SOPE   C2119987   0.318   1.049  10.384 -0.6245 -0.4547  0.1728
  176SOPE   O2219988   0.254   1.152  10.405 -0.6442  0.1478  0.0757
  176SOPE   C2219989   0.256   0.916  10.331  0.7862 -0.3526 -0.0846
  176SOPE   H2R19990   0.194   0.878  10.414 -0.5219  0.1295 -0.8067
  176SOPE   H2S19991   0.346   0.858  10.302  0.8603 -0.4774  0.3893
  176SOPE    C319992   0.615   1.199  10.298  0.0784 -0.4615  0.2367
  176SOPE    HX19993   0.656   1.098  10.276 -0.7396 -0.9637  0.9381
  176SOPE    HY19994   0.694   1.268  10.333  0.8559 -1.0684 -0.2883
  176SOPE   O3119995   0.541   1.244  10.183 -0.3123  0.7544  0.3671
  176SOPE   C3119996   0.539   1.372  10.169 -1.1036  0.2074 -0.8892
  176SOPE   O3219997   0.591   1.451  10.249  0.2041 -0.1684  0.1992
  176SOPE   C3219998   0.459   1.404  10.042 -0.1576 -0.2735  0.3621
  176SOPE   H2X19999   0.373   1.334  10.049  1.1352 -1.7585  3.4070
  176SOPE   H2Y20000   0.524   1.366   9.960 -2.6539  0.5965 -2.1563
  176SOPE   C2320001   0.183   0.927  10.193  0.2786  0.2366 -0.0921
  176SOPE   H3R20002   0.108   1.009  10.185  0.4399  0.3660 -0.2879
  176SOPE   H3S20003   0.126   0.839  10.157 -1.2486  0.6672  1.1839
  176SOPE   C2420004   0.280   0.965  10.075 -0.1105 -0.1060 -0.4107
  176SOPE   H4R20005   0.361   1.021  10.126  1.0930 -0.8667 -1.4396
  176SOPE   H4S20006   0.312   0.868  10.030 -0.2678 -0.2329 -0.2553
  176SOPE   C2520007   0.209   1.060   9.978 -0.0764 -0.4424  0.7821
  176SOPE   H5R20008   0.133   1.006   9.918 -0.1884 -4.2475  3.9859
  176SOPE   H5S20009   0.178   1.144  10.044 -1.0481  0.7552 -1.1083
  176SOPE   C2620010   0.308   1.108   9.873  0.2267  0.1436  0.2118
  176SOPE   H6R20011   0.399   1.147   9.922 -0.0304 -0.5126  1.2394
  176SOPE   H6S20012   0.327   1.009   9.826 -1.1163  0.2682 -0.6739
  176SOPE   C2720013   0.259   1.211   9.767  0.0841  0.2206 -0.3495
  176SOPE   H7R20014   0.151   1.193   9.747  0.0718  0.7419 -0.7803
  176SOPE   H7S20015   0.272   1.312   9.812  2.6158 -1.2903  2.7104
  176SOPE   C2820016   0.346   1.204   9.640  0.6971 -0.2225  0.1410
  176SOPE   H8R20017   0.444   1.243   9.674  0.0948  1.3564  0.1198
  176SOPE   H8S20018   0.367   1.099   9.608  0.1728 -0.4055  0.3820
  176SOPE   C2920019   0.299   1.297   9.541  0.6431  0.2336 -1.1407
  176SOPE   H9120020   0.190   1.312   9.539  0.0764 -2.7849  0.6843
  176SOPE  C21020021   0.374   1.364   9.462  0.0587  0.1532 -0.4613
  176SOPE  H10120022   0.318   1.442   9.410 -0.8313 -1.6700 -2.3436
  176SOPE  C21120023   0.523   1.370   9.453  0.3653  0.4844  0.4897
  176SOPE  H11R20024   0.569   1.273   9.481 -2.1890 -1.3011 -1.0371
  176SOPE  H11S20025   0.574   1.453   9.505 -0.2948  1.2388 -0.0338
  176SOPE  C21220026   0.567   1.366   9.299 -0.4895  0.2815 -0.2890
  176SOPE  H12R20027   0.559   1.468   9.254  0.7543  0.2524 -0.5989
  176SOPE  H12S20028   0.502   1.306   9.232 -1.4772  2.5892 -1.5534
  176SOPE  C21320029   0.720   1.334   9.296 -0.5259  0.4867  0.2488
  176SOPE  H13R20030   0.739   1.235   9.341  1.0756  0.1726 -0.9773
  176SOPE  H13S20031   0.774   1.403   9.364  1.4986  0.3890 -1.1518
  176SOPE  C21420032   0.802   1.345   9.168  0.2599 -0.0003  0.7687
  176SOPE  H14R20033   0.909   1.339   9.197 -0.2037 -0.3768  2.5088
  176SOPE  H14S20034   0.782   1.448   9.130  0.8945  0.8813  2.6335
  176SOPE  C21520035   0.767   1.241   9.062 -0.0984 -0.1833  0.3390
  176SOPE  H15R20036   0.658   1.222   9.075 -0.0141 -1.0223 -0.0725
  176SOPE  H15S20037   0.829   1.149   9.072 -1.1758 -1.1093 -0.9648
  176SOPE  C21620038   0.791   1.283   8.918 -0.0725 -0.3637 -0.0880
  176SOPE  H16R20039   0.895   1.321   8.912  0.1559 -0.6165  1.7014
  176SOPE  H16S20040   0.710   1.356   8.896  1.4644  0.4688 -3.7233
  176SOPE  C21720041   0.776   1.170   8.822 -0.3962 -0.4626  0.5928
  176SOPE  H17R20042   0.682   1.113   8.839 -0.3311  0.0388  3.0949
  176SOPE  H17S20043   0.864   1.104   8.830  0.8137  1.0506  0.2787
  176SOPE  C21820044   0.790   1.209   8.679 -0.1554  0.3369  0.8563
  176SOPE  H18R20045   0.747   1.133   8.611 -0.7938  2.9289 -1.8492
  176SOPE  H18S20046   0.894   1.217   8.640 -0.5869 -0.5928 -0.5755
  176SOPE  H18T20047   0.737   1.305   8.663  0.4184  0.8482  1.8970
  176SOPE   C3320048   0.433   1.553  10.038  0.9053  0.3038  0.4141
  176SOPE   H3X20049   0.524   1.616  10.039  0.1533  1.4762  2.7247
  176SOPE   H3Y20050   0.377   1.579  10.131  1.8025  0.3122  0.9647
  176SOPE   C3420051   0.357   1.587   9.911 -0.3907 -0.1301  0.1172
  176SOPE   H4X20052   0.252   1.553   9.926  0.2027 -1.9601  0.3677
  176SOPE   H4Y20053   0.391   1.517   9.831 -0.4217 -0.4837  0.4109
  176SOPE   C3520054   0.355   1.738   9.874  0.1642 -0.1656 -0.3929
  176SOPE   H5X20055   0.454   1.780   9.900 -1.2042  3.3972 -0.3834
  176SOPE   H5Y20056   0.284   1.782   9.947  0.5804  0.0758 -0.1287
  176SOPE   C3620057   0.311   1.753   9.727 -0.4360  0.4414 -0.1658
  176SOPE   H6X20058   0.261   1.849   9.704  0.0788  0.6306 -0.4981
  176SOPE   H6Y20059   0.233   1.680   9.696  0.6409 -0.7309 -0.2365
  176SOPE   C3720060   0.428   1.731   9.623 -0.2822  0.5857 -0.3748
  176SOPE   H7X20061   0.472   1.630   9.632  2.5164  1.8445  1.2267
  176SOPE   H7Y20062   0.512   1.796   9.655 -0.3250  0.8586 -0.8036
  176SOPE   C3820063   0.379   1.751   9.476 -0.4580  0.0718 -0.1703
  176SOPE   H8X20064   0.333   1.851   9.470 -0.9117 -0.2076 -1.6498
  176SOPE   H8Y20065   0.299   1.678   9.453  0.9982 -1.3062 -1.1004
  176SOPE   C3920066   0.492   1.743   9.382 -0.7123  0.4039  0.1655
  176SOPE   H9X20067   0.549   1.648   9.392  2.5059  1.8778 -2.3795
  176SOPE   H9Y20068   0.564   1.824   9.405 -0.4656  1.4118 -3.4178
  176SOPE  C31020069   0.459   1.765   9.228  1.2739 -0.1217  0.5750
  176SOPE  H10X20070   0.413   1.865   9.214 -1.2074 -1.3793 -1.0517
  176SOPE  H10Y20071   0.382   1.689   9.202 -2.1877  3.6324 -1.1360
  176SOPE  C31120072   0.579   1.756   9.130 -0.1415 -0.0635  0.1124
  176SOPE  H11X20073   0.654   1.678   9.156  0.4638 -0.1356 -1.6909
  176SOPE  H11Y20074   0.635   1.851   9.142  0.2438 -0.2295 -0.3367
  176SOPE  C31220075   0.546   1.728   8.984 -0.5363  0.9102 -0.1814
  176SOPE  H12X20076   0.485   1.814   8.950 -0.3278  0.2355 -2.4537
  176SOPE  H12Y20077   0.479   1.640   8.971  0.4193  0.0335  0.6005
  176SOPE  C31320078   0.654   1.722   8.874  0.3752  0.2368 -0.5896
  176SOPE  H13X20079   0.729   1.644   8.898 -0.0557  0.0304  0.1377
  176SOPE  H13Y20080   0.705   1.820   8.870  0.5898  0.0972 -1.5306
  176SOPE  C31420081   0.594   1.667   8.745 -0.1229  0.3019 -0.3752
  176SOPE  H14X20082   0.531   1.745   8.696 -1.3612 -0.7471 -0.5230
  176SOPE  H14Y20083   0.519   1.589   8.771  0.4838  0.0824  0.7357
  176SOPE  C31520084   0.692   1.618   8.635  0.1095  0.3954  0.1061
  176SOPE  H15X20085   0.636   1.553   8.565  0.0608 -0.8112  1.2380
  176SOPE  H15Y20086   0.778   1.556   8.666  0.9369  1.4789  0.0289
  176SOPE  C31620087   0.731   1.730   8.537  0.2213 -0.8960 -0.2151
  176SOPE  H16X20088   0.773   1.813   8.598  2.0546 -1.4668 -0.6206
  176SOPE  H16Y20089   0.643   1.777   8.488 -0.9640 -0.1395  2.4597
  176SOPE  C31720090   0.827   1.681   8.433 -0.0220  0.5007 -0.5559
  176SOPE  H17X20091   0.783   1.600   8.371 -3.2273  0.9971  0.8936
  176SOPE  H17Y20092   0.919   1.651   8.489 -2.2133  2.4943  4.7237
  176SOPE  C31820093   0.865   1.798   8.335 -0.1080 -0.3625  0.2160
  176SOPE  H18X20094   0.874   1.894   8.389 -1.1554  0.3990 -0.8937
  176SOPE  H18Y20095   0.778   1.815   8.267 -0.5906  0.2559  0.9770
  176SOPE  H18Z20096   0.966   1.777   8.293 -0.4785 -0.8489 -0.4662
  177SOPE     N20097   0.630   4.364  11.072 -0.8924  0.3538 -0.3403
  177SOPE   HN120098   0.655   4.461  11.099  0.2821  0.0332 -0.2377
  177SOPE   HN220099   0.572   4.329  11.151  3.1270  0.5596  3.0262
  177SOPE   HN320100   0.718   4.309  11.072 -0.2694  1.3434  0.0492
  177SOPE   C1220101   0.547   4.362  10.944 -0.0114  0.9181  0.4968
  177SOPE  H12A20102   0.540   4.258  10.905  0.0985  1.0982 -0.0099
  177SOPE  H12B20103   0.602   4.422  10.868  2.0488 -1.2428  0.1457
  177SOPE   C1120104   0.408   4.417  10.971 -0.2929 -0.8709  0.2608
  177SOPE  H11A20105   0.421   4.527  10.969 -1.6421 -0.6984 -1.0385
  177SOPE  H11B20106   0.364   4.368  11.061  1.0128 -1.5208  0.5707
  177SOPE     P20107   0.202   4.466  10.815 -0.1483 -0.2928  0.7064
  177SOPE   O1320108   0.150   4.539  10.933 -0.3444 -0.3180  0.1571
  177SOPE   O1420109   0.111   4.378  10.737 -0.1177  0.2384 -0.1397
  177SOPE   O1220110   0.324   4.380  10.861  0.4199 -0.1915  0.4309
  177SOPE   O1120111   0.273   4.565  10.708 -0.1181  0.1786 -0.0496
  177SOPE    C120112   0.347   4.523  10.598 -0.4153 -0.2626  0.8392
  177SOPE    HA20113   0.292   4.445  10.540  0.1641 -0.0918  0.0589
  177SOPE    HB20114   0.443   4.482  10.635  0.4806 -2.1377 -3.0372
  177SOPE    C220115   0.376   4.651  10.517  0.6044 -0.2532 -0.0006
  177SOPE    HS20116   0.426   4.713  10.594 -0.0751 -0.7785  0.8799
  177SOPE   O2120117   0.253   4.711  10.482 -0.2043  0.0127 -0.2843
  177SOPE   C2120118   0.257   4.831  10.438 -0.3903 -0.2368 -0.1457
  177SOPE   O2220119   0.353   4.903  10.444  0.3008 -0.8443 -0.4888
  177SOPE   C2220120   0.114   4.869  10.392 -0.0240  0.0479 -0.4026
  177SOPE   H2R20121   0.058   4.909  10.479 -2.6472 -2.5094 -0.7556
  177SOPE   H2S20122   0.049   4.782  10.370 -0.9214  0.1589  1.5930
  177SOPE    C320123   0.460   4.628  10.386  0.6488 -0.6014 -0.3761
  177SOPE    HX20124   0.536   4.551  10.409  0.6048 -0.5388 -0.0214
  177SOPE    HY20125   0.501   4.730  10.368  1.5042 -0.9048 -0.1774
  177SOPE   O3120126   0.370   4.600  10.280  0.4946  0.2695  0.6331
  177SOPE   C3120127   0.343   4.473  10.263 -0.1773 -0.0654  0.1447
  177SOPE   O3220128   0.405   4.384  10.318 -0.0750 -0.3267 -0.5748
  177SOPE   C3220129   0.215   4.455  10.174  0.4789 -0.0937 -0.2105
  177SOPE   H2X20130   0.216   4.540  10.102  1.7774  1.7455  1.8503
  177SOPE   H2Y20131   0.121   4.471  10.231 -0.0458 -0.2481 -1.0147
  177SOPE   C2320132   0.093   4.977  10.282  0.7086 -0.2868 -1.1831
  177SOPE   H3R20133   0.153   5.066  10.311 -1.3840  0.9378 -0.3840
  177SOPE   H3S20134  -0.010   5.015  10.264  2.2203  3.9502 -2.0596
  177SOPE   C2420135   0.151   4.939  10.153  0.7378 -0.0703 -0.2383
  177SOPE   H4R20136   0.256   4.911  10.173  0.7002 -0.7687 -0.9603
  177SOPE   H4S20137   0.098   4.845  10.122  0.3961  0.0752 -0.1002
  177SOPE   C2520138   0.157   5.040  10.036 -0.2469 -0.2802 -0.1270
  177SOPE   H5R20139   0.064   5.101  10.033 -0.0505 -0.0135 -1.6755
  177SOPE   H5S20140   0.251   5.097  10.051 -0.9985  0.6637  1.1172
  177SOPE   C2620141   0.172   4.965   9.904 -0.3203  0.3396  0.0261
  177SOPE   H6R20142   0.069   4.931   9.879  0.7594 -1.1188 -2.9724
  177SOPE   H6S20143   0.201   5.035   9.823  2.5577 -1.3150 -0.5263
  177SOPE   C2720144   0.273   4.846   9.906  0.7000  0.3292 -0.3875
  177SOPE   H7R20145   0.366   4.884   9.954  0.9829 -1.9256  0.9932
  177SOPE   H7S20146   0.237   4.763   9.971  2.0469 -0.0125 -0.0395
  177SOPE   C2820147   0.283   4.776   9.768 -0.2838  0.0422 -0.1019
  177SOPE   H8R20148   0.348   4.688   9.786  0.2305 -0.0197 -2.0660
  177SOPE   H8S20149   0.180   4.739   9.747  0.9550 -2.4195 -2.4079
  177SOPE   C2920150   0.335   4.860   9.655 -0.6046 -0.4609  0.1488
  177SOPE   H9120151   0.401   4.944   9.683 -0.8309 -0.1274 -0.3048
  177SOPE  C21020152   0.302   4.848   9.523  0.0315  0.0575  0.0149
  177SOPE  H10120153   0.355   4.913   9.452 -0.5261 -0.3399 -0.7789
  177SOPE  C21120154   0.212   4.741   9.478 -0.7139  0.0288 -0.3318
  177SOPE  H11R20155   0.107   4.768   9.504 -0.8178 -0.1928 -0.5184
  177SOPE  H11S20156   0.228   4.642   9.525 -0.5758  0.5569  0.7778
  177SOPE  C21220157   0.230   4.729   9.326 -0.0650  0.5586  0.3184
  177SOPE  H12R20158   0.192   4.816   9.269  0.9762 -0.8234 -2.6811
  177SOPE  H12S20159   0.165   4.649   9.283  2.6556 -1.5745 -0.1132
  177SOPE  C21320160   0.368   4.691   9.270 -0.7427 -0.4059 -0.6385
  177SOPE  H13R20161   0.409   4.607   9.330 -0.3957  0.7311  0.7705
  177SOPE  H13S20162   0.431   4.783   9.274 -2.8619  1.0949  2.1314
  177SOPE  C21420163   0.353   4.627   9.131 -0.0118  0.0422 -0.3304
  177SOPE  H14R20164   0.309   4.700   9.060 -1.4750  0.7838  1.2787
  177SOPE  H14S20165   0.269   4.554   9.140  0.7566 -0.6764  1.6393
  177SOPE  C21520166   0.471   4.549   9.083  0.5696  0.3689  0.0616
  177SOPE  H15R20167   0.506   4.476   9.159 -0.4623 -1.1743 -0.8858
  177SOPE  H15S20168   0.557   4.616   9.060  0.5150  0.8092  1.0968
  177SOPE  C21620169   0.445   4.474   8.950  0.1350  0.2317  0.0910
  177SOPE  H16R20170   0.349   4.417   8.948  1.2441 -1.7110 -2.1257
  177SOPE  H16S20171   0.528   4.405   8.922  1.0816  1.5138 -0.3659
  177SOPE  C21720172   0.438   4.568   8.824 -0.8574 -0.4323 -0.5160
  177SOPE  H17R20173   0.543   4.596   8.801 -0.0462 -0.4338  2.6453
  177SOPE  H17S20174   0.373   4.654   8.848 -3.1138 -2.9377  3.3574
  177SOPE  C21820175   0.381   4.483   8.711  0.3517 -0.3682  0.4424
  177SOPE  H18R20176   0.450   4.396   8.705  1.4747  0.4782  0.6561
  177SOPE  H18S20177   0.391   4.546   8.620 -3.2219  1.6150  1.2370
  177SOPE  H18T20178   0.277   4.451   8.734 -0.5165  3.1301  2.1106
  177SOPE   C3320179   0.219   4.326  10.088 -0.2408  0.3454 -0.2875
  177SOPE   H3X20180   0.228   4.230  10.144 -0.9226  0.3595 -0.1380
  177SOPE   H3Y20181   0.319   4.329  10.039  0.4853 -0.2981  1.0842
  177SOPE   C3420182   0.103   4.331   9.987 -0.1910 -0.4958  0.0796
  177SOPE   H4X20183   0.057   4.431   9.970 -1.5166 -1.1367 -0.2723
  177SOPE   H4Y20184   0.024   4.278  10.045  0.7011  0.3202  2.1100
  177SOPE   C3520185   0.129   4.248   9.855  0.3449  0.6210 -0.4287
  177SOPE   H5X20186   0.029   4.209   9.825  0.7010  0.7860 -1.8788
  177SOPE   H5Y20187   0.180   4.152   9.878 -1.4448 -0.2116  0.3099
  177SOPE   C3620188   0.202   4.320   9.740  0.5596 -0.0043  0.5218
  177SOPE   H6X20189   0.311   4.338   9.754  0.4288  0.3053  1.1789
  177SOPE   H6Y20190   0.138   4.410   9.728 -0.9588 -1.2430 -1.5073
  177SOPE   C3720191   0.188   4.253   9.606  0.0213  0.0868 -0.0976
  177SOPE   H7X20192   0.085   4.214   9.595 -0.8621  2.2479  0.0085
  177SOPE   H7Y20193   0.258   4.171   9.578  0.1205  0.2579 -0.3525
  177SOPE   C3820194   0.236   4.354   9.499  0.0896 -0.2731 -0.5065
  177SOPE   H8X20195   0.342   4.377   9.523  0.3550 -2.6926  0.9074
  177SOPE   H8Y20196   0.174   4.444   9.522  0.0870 -0.3443 -0.2324
  177SOPE   C3920197   0.211   4.301   9.360  0.0313 -0.3346 -0.2744
  177SOPE   H9X20198   0.260   4.203   9.341  2.3342  0.4432  1.1984
  177SOPE   H9Y20199   0.275   4.358   9.289  1.9193 -1.2763  0.5869
  177SOPE  C31020200   0.072   4.291   9.313 -0.3206  0.0125 -0.3841
  177SOPE  H10X20201   0.021   4.389   9.327  0.3704  0.4858 -1.0905
  177SOPE  H10Y20202   0.014   4.219   9.374 -1.1812  1.5447  0.6779
  177SOPE  C31120203   0.058   4.222   9.175  0.3306 -0.3917  0.1571
  177SOPE  H11X20204  -0.050   4.213   9.152  0.1426  0.3386  0.7117
  177SOPE  H11Y20205   0.105   4.122   9.172  1.3935  0.0778  0.6286
  177SOPE  C31220206   0.108   4.317   9.061  0.0842  0.1789  0.4411
  177SOPE  H12X20207   0.219   4.322   9.069  0.0482  0.4198  0.8241
  177SOPE  H12Y20208   0.068   4.418   9.085  0.5568  0.0340  1.9826
  177SOPE  C31320209   0.060   4.267   8.919  0.0223  0.1150  0.2327
  177SOPE  H13X20210   0.096   4.167   8.887 -1.7201 -0.4324 -0.1114
  177SOPE  H13Y20211   0.111   4.338   8.850 -1.9892 -0.3618 -1.8461
  177SOPE  C31420212  -0.092   4.286   8.891  0.3164  0.3471 -0.4789
  177SOPE  H14X20213  -0.124   4.380   8.941  0.7418 -0.1253  0.7262
  177SOPE  H14Y20214  -0.155   4.205   8.934 -2.3441  1.4858 -1.9651
  177SOPE  C31520215  -0.115   4.291   8.739 -0.5967  0.7399  0.1400
  177SOPE  H15X20216  -0.071   4.202   8.689 -1.7083 -0.4290  1.1419
  177SOPE  H15Y20217  -0.081   4.390   8.702 -3.0971  1.9319  0.7944
  177SOPE  C31620218  -0.263   4.304   8.689 -0.0153 -0.0649 -1.0527
  177SOPE  H16X20219  -0.271   4.331   8.582 -0.4361  0.3943 -0.9149
  177SOPE  H16Y20220  -0.313   4.390   8.738 -0.0605  0.2229 -1.5999
  177SOPE  C31720221  -0.346   4.176   8.699  0.2067 -0.5358  0.0157
  177SOPE  H17X20222  -0.450   4.206   8.674 -0.2760 -1.3283  0.9871
  177SOPE  H17Y20223  -0.350   4.145   8.806  2.0070  0.5092  0.4382
  177SOPE  C31820224  -0.295   4.052   8.628  1.2031 -0.1569 -0.0001
  177SOPE  H18X20225  -0.378   3.982   8.607 -0.1110  1.1031  0.8297
  177SOPE  H18Y20226  -0.221   3.996   8.689 -0.8346 -1.8365  1.0789
  177SOPE  H18Z20227  -0.247   4.087   8.534  0.5174 -0.2241 -0.3787
  178SOPE     N20228   5.123   5.030  10.433  0.3011  0.1422 -0.6386
  178SOPE   HN120229   5.163   5.030  10.530 -0.9865  2.1105 -0.0584
  178SOPE   HN220230   5.039   5.090  10.439 -0.5455 -1.0541 -0.0409
  178SOPE   HN320231   5.086   4.937  10.405  1.3950 -0.8222  0.9306
  178SOPE   C1220232   5.227   5.085  10.333  0.4598  0.1124  0.7547
  178SOPE  H12A20233   5.179   5.078  10.234 -0.7080 -2.0960  1.4111
  178SOPE  H12B20234   5.317   5.018  10.335 -0.2164 -0.8536 -0.1336
  178SOPE   C1120235   5.268   5.228  10.368 -0.6452 -0.3309  0.2942
  178SOPE  H11A20236   5.322   5.282  10.287 -0.5560  1.5012  1.5143
  178SOPE  H11B20237   5.332   5.207  10.457 -0.1396 -1.7118 -0.3605
  178SOPE     P20238   5.160   5.389  10.530 -0.1191 -0.3213 -0.2714
  178SOPE   O1320239   5.286   5.470  10.534  0.3231 -0.2731  0.0729
  178SOPE   O1420240   5.144   5.286  10.638  0.0682  0.1354 -0.1656
  178SOPE   O1220241   5.151   5.309  10.395 -0.1368 -0.7975 -0.1754
  178SOPE   O1120242   5.030   5.487  10.520 -0.1166  0.4750 -0.3256
  178SOPE    C120243   5.003   5.585  10.424  0.3748  0.0051 -0.4888
  178SOPE    HA20244   5.090   5.635  10.377 -0.3120 -0.2615 -2.1274
  178SOPE    HB20245   4.967   5.675  10.477  0.8797  0.9174 -1.6576
  178SOPE    C220246   4.919   5.532  10.305  0.2708 -0.0066  0.6579
  178SOPE    HS20247   4.835   5.482  10.358  0.7016  0.7773  2.1438
  178SOPE   O2120248   4.999   5.450  10.220  0.8197 -0.3280  0.3424
  178SOPE   C2120249   4.932   5.348  10.165 -1.0101 -0.0427 -0.1091
  178SOPE   O2220250   4.821   5.308  10.201  0.1002 -0.3674  0.0230
  178SOPE   C2220251   5.007   5.286  10.047  0.3720 -0.5095  0.1263
  178SOPE   H2R20252   4.938   5.247   9.968 -0.6140 -0.1389  0.7875
  178SOPE   H2S20253   5.053   5.194  10.090 -1.4562 -1.5956 -0.1446
  178SOPE    C320254   4.864   5.654  10.220  0.0886 -0.0403  0.5425
  178SOPE    HX20255   4.955   5.681  10.163 -0.5394 -0.7036 -0.8277
  178SOPE    HY20256   4.831   5.741  10.281 -0.6992 -0.6112  0.9549
  178SOPE   O3120257   4.763   5.627  10.122 -0.0807  0.9382  0.5174
  178SOPE   C3120258   4.635   5.635  10.148 -0.6913  0.2514  0.0623
  178SOPE   O3220259   4.587   5.682  10.247 -0.3064  0.4270 -0.0721
  178SOPE   C3220260   4.557   5.560  10.043  0.3959 -0.3444 -0.0839
  178SOPE   H2X20261   4.451   5.594  10.037  0.8604  1.4118  1.0782
  178SOPE   H2Y20262   4.533   5.462  10.090 -2.4462 -0.7172 -2.0169
  178SOPE   C2320263   5.125   5.375   9.988  0.5369 -0.5306 -0.7498
  178SOPE   H3R20264   5.201   5.390  10.068  0.0092 -1.9233  0.0487
  178SOPE   H3S20265   5.086   5.470   9.947 -1.7320 -0.9214  0.3554
  178SOPE   C2420266   5.200   5.315   9.869  0.0800 -0.4307 -0.6860
  178SOPE   H4R20267   5.292   5.375   9.853  1.1697 -1.2633  1.8951
  178SOPE   H4S20268   5.243   5.213   9.878  0.5586 -0.3022 -1.4182
  178SOPE   C2520269   5.116   5.326   9.740 -0.1847 -0.1202  0.0343
  178SOPE   H5R20270   5.009   5.344   9.765  0.4700  0.3915  2.8017
  178SOPE   H5S20271   5.158   5.404   9.674  0.0054 -0.5697 -0.3851
  178SOPE   C2620272   5.122   5.182   9.671  0.3794  0.3273 -0.0476
  178SOPE   H6R20273   5.225   5.169   9.630  0.2007 -1.7149  0.0116
  178SOPE   H6S20274   5.101   5.111   9.755  0.6445 -0.1860 -0.4059
  178SOPE   C2720275   5.025   5.174   9.556  0.1307  0.1845 -0.4269
  178SOPE   H7R20276   5.053   5.083   9.500  2.1031 -0.5818  1.6519
  178SOPE   H7S20277   4.921   5.163   9.595  1.1385 -1.8682  1.9322
  178SOPE   C2820278   5.017   5.297   9.459 -1.2576  0.5992  0.3391
  178SOPE   H8R20279   4.963   5.385   9.501  1.0593  1.6179  1.3670
  178SOPE   H8S20280   5.119   5.341   9.454 -0.3585 -1.4810 -0.8688
  178SOPE   C2920281   4.954   5.257   9.332  0.3956  0.9873  0.2508
  178SOPE   H9120282   4.845   5.245   9.336  0.4069  1.1343  1.1394
  178SOPE  C21020283   5.020   5.224   9.217 -0.6154 -0.6435  0.1000
  178SOPE  H10120284   4.956   5.189   9.135 -0.6246 -2.0867  0.6893
  178SOPE  C21120285   5.164   5.224   9.184 -0.1025  0.2190  0.4883
  178SOPE  H11R20286   5.204   5.125   9.154  1.2254  1.3739 -1.8183
  178SOPE  H11S20287   5.213   5.265   9.275  0.2649 -0.4852  0.6134
  178SOPE  C21220288   5.214   5.325   9.088 -0.2934 -0.5178 -0.2554
  178SOPE  H12R20289   5.178   5.284   8.991  0.5796 -2.3186  0.1417
  178SOPE  H12S20290   5.323   5.319   9.073 -0.2306  2.3818 -1.7633
  178SOPE  C21320291   5.199   5.473   9.126 -0.6603 -0.0726  0.5651
  178SOPE  H13R20292   5.230   5.492   9.231 -1.6918  0.8696  0.7270
  178SOPE  H13S20293   5.089   5.483   9.137 -0.6209 -1.5495  2.8362
  178SOPE  C21420294   5.264   5.582   9.034  0.7973 -0.7619 -0.1708
  178SOPE  H14R20295   5.374   5.564   9.034  0.9342  0.0192 -0.0387
  178SOPE  H14S20296   5.248   5.685   9.072 -1.4473 -1.1360  0.0087
  178SOPE  C21520297   5.197   5.590   8.889 -0.0131  0.7766  0.1184
  178SOPE  H15R20298   5.089   5.614   8.900 -1.1090 -2.2792 -2.5623
  178SOPE  H15S20299   5.192   5.489   8.844  0.9464  1.2746 -1.2027
  178SOPE  C21620300   5.277   5.675   8.794  0.4798  0.1761  0.8963
  178SOPE  H16R20301   5.381   5.662   8.830 -0.0162  1.2093  2.8710
  178SOPE  H16S20302   5.246   5.781   8.805 -0.6388  0.2536 -2.0949
  178SOPE  C21720303   5.259   5.630   8.644 -0.3512  0.2432 -0.1883
  178SOPE  H17R20304   5.149   5.627   8.628 -0.2498 -1.6791 -0.8145
  178SOPE  H17S20305   5.289   5.524   8.631 -3.3621 -1.0555  2.0996
  178SOPE  C21820306   5.334   5.721   8.553  0.1558 -0.9172 -0.5864
  178SOPE  H18R20307   5.316   5.688   8.448  0.1626 -0.5954 -0.6888
  178SOPE  H18S20308   5.443   5.725   8.570 -0.0951  2.7566  1.1831
  178SOPE  H18T20309   5.310   5.828   8.568  0.3005 -1.0718  0.8624
  178SOPE   C3320310   4.625   5.523   9.915  0.6085  0.2455 -0.6948
  178SOPE   H3X20311   4.568   5.454   9.848 -0.5677  1.2839 -0.7935
  178SOPE   H3Y20312   4.719   5.468   9.937  0.4566  1.1746  2.9109
  178SOPE   C3420313   4.656   5.637   9.815  0.7266 -0.2357 -0.2611
  178SOPE   H4X20314   4.736   5.705   9.850 -2.3789  2.5629  1.9971
  178SOPE   H4Y20315   4.564   5.697   9.797  1.4091  0.4961 -1.3619
  178SOPE   C3520316   4.708   5.584   9.686 -0.1801  0.0497  0.8674
  178SOPE   H5X20317   4.628   5.531   9.630  0.5098 -1.3707  1.1656
  178SOPE   H5Y20318   4.780   5.501   9.705  1.3068  1.4235  1.5038
  178SOPE   C3620319   4.766   5.694   9.590  0.2818  0.1468 -0.1197
  178SOPE   H6X20320   4.858   5.726   9.644  0.3440  0.2170 -0.2685
  178SOPE   H6Y20321   4.698   5.779   9.572  2.3420  1.6253 -1.2705
  178SOPE   C3720322   4.809   5.654   9.448 -0.0468 -0.8539 -0.0438
  178SOPE   H7X20323   4.892   5.581   9.441  0.0309 -0.7997  0.3326
  178SOPE   H7Y20324   4.844   5.751   9.405  1.3661 -1.2966  0.0615
  178SOPE   C3820325   4.700   5.599   9.357 -0.1855 -0.2529 -0.0636
  178SOPE   H8X20326   4.605   5.657   9.363  0.0207  0.0540  0.2148
  178SOPE   H8Y20327   4.664   5.499   9.391 -3.7120  1.4262  1.6886
  178SOPE   C3920328   4.751   5.585   9.216 -0.3770 -0.2251  0.8792
  178SOPE   H9X20329   4.840   5.519   9.217 -1.5805 -1.9020  1.4677
  178SOPE   H9Y20330   4.772   5.684   9.171  0.2151  0.3221  2.2904
  178SOPE  C31020331   4.646   5.516   9.125  0.2398  0.3250  0.2695
  178SOPE  H10X20332   4.552   5.576   9.118 -1.1032 -1.7610 -0.6287
  178SOPE  H10Y20333   4.617   5.418   9.167  0.0931 -0.6266 -1.9330
  178SOPE  C31120334   4.688   5.495   8.983 -0.1460 -0.0337 -0.2106
  178SOPE  H11X20335   4.743   5.584   8.945 -0.0768  0.7738  1.6321
  178SOPE  H11Y20336   4.590   5.488   8.931 -1.5078  1.1106  1.9821
  178SOPE  C31220337   4.773   5.371   8.965  0.5098  0.2477 -0.0942
  178SOPE  H12X20338   4.711   5.283   8.991  1.4276 -0.0564  1.2238
  178SOPE  H12Y20339   4.853   5.371   9.043  0.1246 -1.3659  0.3335
  178SOPE  C31320340   4.815   5.368   8.822 -0.3743 -0.4741 -0.0672
  178SOPE  H13X20341   4.862   5.467   8.803 -2.2940  0.1616 -1.7833
  178SOPE  H13Y20342   4.731   5.359   8.751 -1.4542  0.1610  1.0877
  178SOPE  C31420343   4.939   5.278   8.785  0.1655  0.3800 -0.3755
  178SOPE  H14X20344   4.899   5.175   8.801 -3.0309  1.4739 -0.6035
  178SOPE  H14Y20345   5.013   5.310   8.861  0.1189 -0.0295 -0.1517
  178SOPE  C31520346   4.993   5.302   8.643 -0.2543  0.3239  0.2543
  178SOPE  H15X20347   5.042   5.401   8.636 -1.0729  0.6406 -2.3063
  178SOPE  H15Y20348   4.908   5.303   8.572 -0.2623 -1.4831  0.1980
  178SOPE  C31620349   5.097   5.194   8.605  0.0796  0.0576  0.5060
  178SOPE  H16X20350   5.044   5.097   8.612 -0.5180  0.4923  2.3900
  178SOPE  H16Y20351   5.173   5.192   8.686  0.2580  2.4570  0.4656
  178SOPE  C31720352   5.173   5.203   8.471 -0.5705 -0.6729  0.4965
  178SOPE  H17X20353   5.225   5.301   8.475  2.5475 -1.9393 -3.0244
  178SOPE  H17Y20354   5.113   5.201   8.377  1.2618 -0.6531 -0.7419
  178SOPE  C31820355   5.281   5.095   8.464  0.6259 -0.3706  0.4540
  178SOPE  H18X20356   5.345   5.102   8.554  0.6238 -1.9933  0.6050
  178SOPE  H18Y20357   5.349   5.100   8.376  1.9025  0.6897  1.4640
  178SOPE  H18Z20358   5.238   4.993   8.460  1.4734 -0.9112  3.1595
  179SOPE     N20359   1.543   2.803   6.166 -0.4206 -0.0255  0.0839
  179SOPE   HN120360   1.638   2.841   6.150 -0.6695  1.7681  2.3637
  179SOPE   HN220361   1.474   2.825   6.091 -0.4181 -0.3888 -0.0263
  179SOPE   HN320362   1.513   2.851   6.253  0.6460 -1.8273  1.4976
  179SOPE   C1220363   1.550   2.656   6.200 -0.5836  0.2934 -0.0504
  179SOPE  H12A20364   1.653   2.627   6.229 -0.6789  0.7589  0.7800
  179SOPE  H12B20365   1.541   2.608   6.100  0.9420  1.1621 -0.6538
  179SOPE   C1120366   1.457   2.609   6.310 -0.2501  0.0422 -0.5761
  179SOPE  H11A20367   1.483   2.653   6.408  1.5097 -1.1285 -0.4682
  179SOPE  H11B20368   1.471   2.499   6.322 -0.4311  0.0291 -0.4855
  179SOPE     P20369   1.207   2.649   6.364 -0.1610  0.1605 -0.1573
  179SOPE   O1320370   1.205   2.535   6.458  0.0604  0.2605  0.0582
  179SOPE   O1420371   1.085   2.666   6.282 -0.1164 -0.1076 -0.3836
  179SOPE   O1220372   1.323   2.639   6.268 -0.5694 -0.3346  0.1674
  179SOPE   O1120373   1.230   2.780   6.449 -0.2054 -0.2010  0.2378
  179SOPE    C120374   1.253   2.906   6.366 -0.0372  0.6813  0.2853
  179SOPE    HA20375   1.163   2.942   6.312  0.0443 -2.4321 -2.2271
  179SOPE    HB20376   1.321   2.886   6.280 -0.1632 -1.3099  0.5996
  179SOPE    C220377   1.307   3.025   6.456  0.2556 -0.5894  0.4435
  179SOPE    HS20378   1.354   3.092   6.381 -1.9201  1.1422  0.5301
  179SOPE   O2120379   1.384   2.987   6.572 -0.4883  0.5197 -0.4990
  179SOPE   C2120380   1.495   2.924   6.526  0.3284 -0.1182  0.7927
  179SOPE   O2220381   1.536   2.920   6.409 -0.2718 -0.4749 -0.1497
  179SOPE   C2220382   1.562   2.862   6.646  0.3929  0.1229  0.5313
  179SOPE   H2R20383   1.655   2.923   6.658  1.2709 -1.1015  0.1364
  179SOPE   H2S20384   1.592   2.759   6.620  0.0735  0.2311 -0.2844
  179SOPE    C320385   1.184   3.108   6.506  0.7275  0.3553  0.3822
  179SOPE    HX20386   1.202   3.139   6.611 -0.4635 -1.9307  1.3398
  179SOPE    HY20387   1.104   3.031   6.509 -0.7892  1.7705 -1.3149
  179SOPE   O3120388   1.154   3.223   6.422  0.2227  0.1736 -0.3562
  179SOPE   C3120389   1.028   3.275   6.454  0.0158  0.5494  0.1879
  179SOPE   O3220390   0.949   3.217   6.520 -0.4559 -0.1529 -0.6239
  179SOPE   C3220391   1.012   3.413   6.395  0.9686 -0.5018 -0.0028
  179SOPE   H2X20392   0.905   3.439   6.407  0.9452  0.4409 -1.9783
  179SOPE   H2Y20393   1.039   3.426   6.288 -1.4803 -0.0361 -0.6043
  179SOPE   C2320394   1.479   2.858   6.777 -0.0080  0.3343 -0.0743
  179SOPE   H3R20395   1.501   2.757   6.819 -1.3580 -0.0779 -0.2948
  179SOPE   H3S20396   1.369   2.861   6.758 -0.3140 -2.1606  0.9782
  179SOPE   C2420397   1.516   2.967   6.873 -0.9753  0.1035 -0.1450
  179SOPE   H4R20398   1.572   3.047   6.820 -0.6986  2.4861  3.4462
  179SOPE   H4S20399   1.419   3.008   6.907  0.0151  2.0136  0.5688
  179SOPE   C2520400   1.611   2.920   6.991 -0.0882  0.8422  0.0457
  179SOPE   H5R20401   1.559   2.832   7.036 -1.3406  0.6844 -1.6206
  179SOPE   H5S20402   1.706   2.883   6.947  0.3795  2.6122 -0.5263
  179SOPE   C2620403   1.644   3.031   7.090  0.8594 -0.9351 -0.4676
  179SOPE   H6R20404   1.686   3.119   7.037  1.3149 -1.6791 -1.3636
  179SOPE   H6S20405   1.555   3.060   7.151  1.8926 -0.2801  0.7797
  179SOPE   C2720406   1.740   2.975   7.202  0.1231  0.0448  0.2873
  179SOPE   H7R20407   1.680   2.894   7.248 -0.4661  0.7822  0.8460
  179SOPE   H7S20408   1.822   2.926   7.144 -1.0681 -1.1345 -0.4634
  179SOPE   C2820409   1.790   3.086   7.297 -0.4949  0.0269 -0.0406
  179SOPE   H8R20410   1.879   3.037   7.341  1.3364  1.1101 -2.3116
  179SOPE   H8S20411   1.834   3.173   7.243  0.8235  0.4517  1.6314
  179SOPE   C2920412   1.689   3.142   7.385 -0.1690 -0.0519  0.1131
  179SOPE   H9120413   1.655   3.240   7.349 -1.7304 -1.1322 -1.5465
  179SOPE  C21020414   1.651   3.095   7.507 -0.1052 -0.2707  0.1925
  179SOPE  H10120415   1.596   3.163   7.574  0.8561 -0.5266  1.2738
  179SOPE  C21120416   1.703   2.971   7.565 -0.4951  1.2492 -0.3272
  179SOPE  H11R20417   1.736   2.902   7.485  0.4505  2.2251 -0.8065
  179SOPE  H11S20418   1.626   2.917   7.625  0.3784 -1.6824 -1.6561
  179SOPE  C21220419   1.832   3.000   7.641  0.9633 -0.7278 -0.0608
  179SOPE  H12R20420   1.903   3.065   7.585 -0.8276  0.7670 -0.6935
  179SOPE  H12S20421   1.877   2.903   7.673  1.0608 -0.5486  0.3534
  179SOPE  C21320422   1.799   3.077   7.770  0.1540 -0.1266  0.1625
  179SOPE  H13R20423   1.714   3.030   7.824  1.8726 -1.0195  2.2466
  179SOPE  H13S20424   1.761   3.178   7.743  0.5428  0.2467  0.9521
  179SOPE  C21420425   1.916   3.081   7.875 -0.1765 -1.0177 -0.0423
  179SOPE  H14R20426   1.890   3.135   7.968 -0.0506 -1.0477  0.0106
  179SOPE  H14S20427   1.999   3.140   7.832 -0.9699 -0.8064 -1.3426
  179SOPE  C21520428   1.964   2.946   7.927 -0.1062 -0.2458  0.7482
  179SOPE  H15R20429   2.010   2.890   7.843  0.9333  0.3854  0.8726
  179SOPE  H15S20430   1.877   2.886   7.959 -1.8866 -0.2924 -3.5022
  179SOPE  C21620431   2.061   2.957   8.040  0.1161  0.6311 -0.0521
  179SOPE  H16R20432   2.110   2.864   8.075  1.0090  0.7597 -0.8869
  179SOPE  H16S20433   2.004   2.988   8.130  1.0581  0.1288  0.7363
  179SOPE  C21720434   2.187   3.054   8.037  0.1766  0.4413  0.4632
  179SOPE  H17R20435   2.150   3.143   7.982  0.0036  0.7512  1.0686
  179SOPE  H17S20436   2.268   3.007   7.978 -0.1101 -1.0176  1.1856
  179SOPE  C21820437   2.227   3.096   8.179  0.0224 -0.4283  1.2525
  179SOPE  H18R20438   2.228   3.007   8.246 -1.0160 -1.8357 -0.5109
  179SOPE  H18S20439   2.161   3.171   8.226 -0.5064 -0.9753  1.3959
  179SOPE  H18T20440   2.328   3.143   8.180 -0.0373 -0.2742  0.2945
  179SOPE   C3320441   1.103   3.511   6.465  0.1014 -0.4349 -0.0760
  179SOPE   H3X20442   1.111   3.602   6.403  0.5070 -0.2421  0.2543
  179SOPE   H3Y20443   1.207   3.471   6.465 -0.1156 -1.0171 -0.3976
  179SOPE   C3420444   1.060   3.562   6.603 -0.1969 -0.2049  0.1495
  179SOPE   H4X20445   1.064   3.494   6.690 -2.0908 -0.8287 -0.2026
  179SOPE   H4Y20446   0.951   3.584   6.595 -0.4226 -1.8021 -2.4809
  179SOPE   C3520447   1.144   3.690   6.634  0.3788  0.2674 -0.3188
  179SOPE   H5X20448   1.148   3.755   6.544  0.4731  1.2050  0.3484
  179SOPE   H5Y20449   1.251   3.662   6.648  0.5116 -1.2192 -3.4316
  179SOPE   C3620450   1.098   3.768   6.758 -1.0461  0.4652  0.1708
  179SOPE   H6X20451   1.009   3.829   6.730  0.1310  1.2367 -2.1267
  179SOPE   H6Y20452   1.169   3.848   6.787 -1.9929  0.6240  2.2923
  179SOPE   C3720453   1.045   3.686   6.874  0.3338 -0.3747  0.1148
  179SOPE   H7X20454   1.125   3.611   6.892 -1.6256 -2.3527  1.1222
  179SOPE   H7Y20455   0.957   3.622   6.853 -1.2890  0.9825  2.2857
  179SOPE   C3820456   1.020   3.772   6.998  0.0845 -0.4588 -0.1767
  179SOPE   H8X20457   0.936   3.843   6.982  0.8318  0.1977 -1.2731
  179SOPE   H8Y20458   1.106   3.841   7.010 -0.2941  0.4373 -2.2148
  179SOPE   C3920459   1.007   3.689   7.130  0.7566  0.5590  0.3529
  179SOPE   H9X20460   1.099   3.627   7.137 -0.1595 -1.0481 -1.3276
  179SOPE   H9Y20461   0.925   3.614   7.126  0.5343  0.8279 -2.9984
  179SOPE  C31020462   1.000   3.776   7.262  0.6083 -0.1060  0.5878
  179SOPE  H10X20463   0.901   3.823   7.248  1.1917  0.9736  0.0097
  179SOPE  H10Y20464   1.067   3.864   7.272  0.0998  0.3153  0.3354
  179SOPE  C31120465   0.979   3.691   7.387  0.7715 -0.1557  0.5018
  179SOPE  H11X20466   1.003   3.585   7.365 -1.0195  0.0534 -3.3166
  179SOPE  H11Y20467   0.871   3.697   7.411  0.6647  1.9618 -0.2886
  179SOPE  C31220468   1.063   3.743   7.499 -0.0070  0.5103 -0.5889
  179SOPE  H12X20469   1.059   3.854   7.499 -1.1261  0.4896  0.6407
  179SOPE  H12Y20470   1.170   3.723   7.475 -0.5562 -0.2836 -2.6055
  179SOPE  C31320471   1.039   3.667   7.633  0.2650 -0.3806  0.3026
  179SOPE  H13X20472   1.071   3.562   7.614 -0.9118 -0.9310  1.2030
  179SOPE  H13Y20473   0.928   3.659   7.644  0.1021 -0.1603 -0.9622
  179SOPE  C31420474   1.114   3.718   7.753 -0.3439  0.4902 -0.3678
  179SOPE  H14X20475   1.074   3.819   7.777 -0.1309  0.1713  1.5224
  179SOPE  H14Y20476   1.223   3.722   7.733 -0.1635 -0.5530  0.2983
  179SOPE  C31520477   1.090   3.629   7.879  0.8454 -0.3009 -0.9034
  179SOPE  H15X20478   1.143   3.533   7.860  0.3007 -0.8681  0.3511
  179SOPE  H15Y20479   0.984   3.596   7.892  1.4556 -2.8888 -1.8193
  179SOPE  C31620480   1.152   3.687   8.001  0.3040 -0.3813  0.1347
  179SOPE  H16X20481   1.123   3.795   8.003 -0.3263 -0.5235 -0.6932
  179SOPE  H16Y20482   1.263   3.685   7.994  0.2825  1.3361 -1.6302
  179SOPE  C31720483   1.109   3.626   8.137 -0.0197 -0.0546  0.6566
  179SOPE  H17X20484   1.189   3.643   8.212  0.1061 -0.6353  0.6594
  179SOPE  H17Y20485   1.098   3.516   8.124  0.8138 -0.1687  0.8629
  179SOPE  C31820486   0.970   3.679   8.183  0.4805 -0.1145 -0.3315
  179SOPE  H18X20487   0.937   3.620   8.271 -1.2426 -0.2037 -0.9962
  179SOPE  H18Y20488   0.897   3.657   8.102  0.8960 -1.3613 -0.3799
  179SOPE  H18Z20489   0.960   3.788   8.206  1.9415  0.0132 -0.2404
  180SOPE     N20490   0.677   6.185   6.319 -0.8121 -0.1501 -0.3025
  180SOPE   HN120491   0.644   6.156   6.414 -0.2658 -0.8909 -0.3358
  180SOPE   HN220492   0.779   6.173   6.310 -0.9404 -0.8356 -0.9196
  180SOPE   HN320493   0.651   6.285   6.302  1.7238  0.4747 -0.8407
  180SOPE   C1220494   0.620   6.108   6.207 -0.1503 -0.7840 -1.0550
  180SOPE  H12A20495   0.661   6.162   6.120  0.8560  2.1736  1.1007
  180SOPE  H12B20496   0.510   6.122   6.209  0.2089  2.7075 -1.1507
  180SOPE   C1120497   0.667   5.961   6.200 -0.1838 -0.6899 -0.0921
  180SOPE  H11A20498   0.606   5.931   6.112  0.7517 -0.7898 -0.7262
  180SOPE  H11B20499   0.626   5.907   6.287 -1.9149 -0.5819 -0.8087
  180SOPE     P20500   0.904   5.878   6.266 -0.2186  0.0597  0.1387
  180SOPE   O1320501   1.038   5.913   6.214 -0.0592 -0.1561  0.0523
  180SOPE   O1420502   0.872   5.732   6.269  0.1705 -0.1017  0.5459
  180SOPE   O1220503   0.802   5.955   6.176 -0.8658  0.5409  0.8996
  180SOPE   O1120504   0.891   5.933   6.411  0.8570 -0.3928  0.2026
  180SOPE    C120505   0.999   5.938   6.503 -1.1314 -0.1996 -0.4878
  180SOPE    HA20506   0.976   6.012   6.582  3.1460  1.0944 -0.1842
  180SOPE    HB20507   1.092   5.973   6.453  0.4156  0.7304  2.7741
  180SOPE    C220508   1.022   5.797   6.576  0.4684  0.0942  0.1459
  180SOPE    HS20509   1.024   5.724   6.492  0.6145  0.6067 -0.3000
  180SOPE   O2120510   0.913   5.772   6.671  0.0088 -0.0010  0.1974
  180SOPE   C2120511   0.891   5.649   6.708 -0.1828  0.7923  0.1351
  180SOPE   O2220512   0.950   5.548   6.666  0.4017  0.4136  0.0098
  180SOPE   C2220513   0.795   5.661   6.822 -0.9666  0.4766 -0.1478
  180SOPE   H2R20514   0.693   5.633   6.787 -0.8622 -0.0034 -0.0754
  180SOPE   H2S20515   0.801   5.764   6.863  2.3821  0.8116 -1.2230
  180SOPE    C320516   1.164   5.782   6.634 -0.0771 -0.7362 -0.3363
  180SOPE    HX20517   1.239   5.789   6.552  1.4491  1.4586  1.1414
  180SOPE    HY20518   1.175   5.684   6.685 -0.2649 -0.3562  0.4478
  180SOPE   O3120519   1.196   5.897   6.722 -0.4309  0.2702  0.1054
  180SOPE   C3120520   1.176   5.876   6.852 -0.4170 -0.2478  0.2734
  180SOPE   O3220521   1.114   5.788   6.898 -0.1715  1.0077  0.2685
  180SOPE   C3220522   1.237   5.987   6.922 -0.2771 -0.1316  1.1011
  180SOPE   H2X20523   1.178   6.077   6.895  0.2329  0.4950  2.0254
  180SOPE   H2Y20524   1.337   5.985   6.873 -2.2339 -0.2364 -3.4375
  180SOPE   C2320525   0.830   5.563   6.939  0.0542  0.1989 -1.4602
  180SOPE   H3R20526   0.939   5.574   6.957 -0.2207  0.7250  0.0260
  180SOPE   H3S20527   0.814   5.460   6.900 -1.5026 -0.3872  0.5361
  180SOPE   C2420528   0.765   5.585   7.069  0.0089  0.7197 -0.0983
  180SOPE   H4R20529   0.778   5.688   7.108 -0.4779  0.6427  0.2836
  180SOPE   H4S20530   0.656   5.571   7.049  0.1729 -1.5058  0.3176
  180SOPE   C2520531   0.810   5.482   7.177  0.0519 -0.3713  0.2884
  180SOPE   H5R20532   0.734   5.472   7.257 -1.0844  1.5977 -0.4656
  180SOPE   H5S20533   0.805   5.378   7.139  0.9339 -0.8473  1.4523
  180SOPE   C2620534   0.956   5.494   7.221  0.0494  0.6343 -0.1408
  180SOPE   H6R20535   1.013   5.479   7.127  0.6495  2.2528 -0.0725
  180SOPE   H6S20536   1.008   5.580   7.267 -1.2122 -0.1423  3.0074
  180SOPE   C2720537   0.994   5.376   7.318  0.0061  0.0646 -0.0675
  180SOPE   H7R20538   0.950   5.278   7.290  1.4218 -1.0374  1.3933
  180SOPE   H7S20539   1.105   5.369   7.307 -0.0589  0.0511 -0.7769
  180SOPE   C2820540   0.981   5.418   7.468  0.2547  0.5532 -0.2177
  180SOPE   H8R20541   1.019   5.336   7.533 -1.1766  1.1369  1.4251
  180SOPE   H8S20542   1.050   5.501   7.493  0.5069  0.2746  0.0325
  180SOPE   C2920543   0.842   5.456   7.513  0.0235  0.2927 -0.5250
  180SOPE   H9120544   0.797   5.539   7.456 -0.4210 -0.2727 -0.9983
  180SOPE  C21020545   0.764   5.400   7.615  0.5530 -0.0623  1.1752
  180SOPE  H10120546   0.666   5.447   7.631  0.8982  0.9407  0.4011
  180SOPE  C21120547   0.784   5.273   7.685  0.1762  0.2403 -0.0548
  180SOPE  H11R20548   0.881   5.227   7.657 -0.4176 -0.3935 -1.1479
  180SOPE  H11S20549   0.695   5.210   7.662  0.4257  0.6876 -2.4853
  180SOPE  C21220550   0.788   5.320   7.834  0.1780  0.8749 -0.8460
  180SOPE  H12R20551   0.695   5.369   7.868 -1.8923 -1.7706 -2.3277
  180SOPE  H12S20552   0.869   5.392   7.860  1.3424 -0.8387  0.4866
  180SOPE  C21320553   0.809   5.198   7.922  0.0069  0.3212 -0.2113
  180SOPE  H13R20554   0.918   5.181   7.935  0.1123  0.8705 -0.3115
  180SOPE  H13S20555   0.754   5.113   7.876 -0.3621  0.8083 -0.6878
  180SOPE  C21420556   0.750   5.216   8.069  0.1044  0.3638  0.4858
  180SOPE  H14R20557   0.640   5.225   8.059  0.1941 -0.6284 -2.3806
  180SOPE  H14S20558   0.789   5.308   8.118  0.4219 -0.0183  0.9655
  180SOPE  C21520559   0.772   5.096   8.163  1.1887 -0.4152 -0.0202
  180SOPE  H15R20560   0.762   5.134   8.267 -0.2931 -0.9481  0.0525
  180SOPE  H15S20561   0.882   5.076   8.163  1.1968 -0.3851 -0.6957
  180SOPE  C21620562   0.687   4.975   8.135  0.2075 -0.5008  0.2075
  180SOPE  H16R20563   0.682   4.962   8.024 -0.5946 -2.0164  0.3847
  180SOPE  H16S20564   0.585   4.994   8.175  0.0799 -0.9185  0.0840
  180SOPE  C21720565   0.746   4.851   8.201 -0.0235  0.5551 -0.7504
  180SOPE  H17R20566   0.682   4.762   8.183 -1.9823  1.6559  0.4144
  180SOPE  H17S20567   0.754   4.868   8.310  0.2677 -0.2369 -0.6463
  180SOPE  C21820568   0.886   4.816   8.148 -0.4749 -0.7900 -0.6626
  180SOPE  H18R20569   0.958   4.897   8.171 -2.9983  1.7105 -0.9562
  180SOPE  H18S20570   0.899   4.797   8.040 -0.4223  1.5019 -1.1004
  180SOPE  H18T20571   0.936   4.736   8.207  3.6472  1.6554 -0.4637
  180SOPE   C3320572   1.235   5.977   7.068  0.2813 -0.9030 -0.0869
  180SOPE   H3X20573   1.307   6.050   7.112  0.4710 -0.5043 -1.0222
  180SOPE   H3Y20574   1.271   5.878   7.101 -0.0732 -0.8871  0.3543
  180SOPE   C3420575   1.098   6.006   7.124 -0.0019  0.5399 -0.8821
  180SOPE   H4X20576   1.036   6.034   7.037 -0.5988 -0.3458 -0.7564
  180SOPE   H4Y20577   1.093   6.094   7.190 -1.0209 -0.3297  0.2396
  180SOPE   C3520578   1.025   5.884   7.196 -0.3451  0.2505  0.6881
  180SOPE   H5X20579   1.017   5.791   7.136  2.3955  0.5520 -0.2978
  180SOPE   H5Y20580   0.921   5.913   7.219 -0.6065 -0.5446  0.5463
  180SOPE   C3620581   1.102   5.859   7.319 -0.1389  0.1194  0.3721
  180SOPE   H6X20582   1.135   5.957   7.360 -0.6637  0.5779 -0.2927
  180SOPE   H6Y20583   1.190   5.791   7.313 -1.7835 -1.9882 -1.4083
  180SOPE   C3720584   1.015   5.809   7.440  0.0313  0.5192 -0.0386
  180SOPE   H7X20585   0.993   5.700   7.436 -1.1850  0.3561  5.1910
  180SOPE   H7Y20586   0.919   5.860   7.416  0.1643  1.2058  0.8332
  180SOPE   C3820587   1.066   5.856   7.578  0.1885  0.5441 -0.1589
  180SOPE   H8X20588   1.075   5.967   7.584 -1.7940  0.7291  0.3347
  180SOPE   H8Y20589   1.169   5.818   7.590  0.2795  1.0735  0.8580
  180SOPE   C3920590   0.979   5.790   7.680 -0.9310 -0.1687  0.8944
  180SOPE   H9X20591   0.972   5.681   7.663 -1.1116  0.2954 -2.8009
  180SOPE   H9Y20592   0.884   5.846   7.689 -0.4693  0.9311 -0.5808
  180SOPE  C31020593   1.047   5.793   7.819  0.3938 -0.5513 -0.2217
  180SOPE  H10X20594   1.089   5.892   7.846 -0.4350 -0.1200 -0.4761
  180SOPE  H10Y20595   1.141   5.734   7.813 -0.3659 -1.7960 -0.3140
  180SOPE  C31120596   0.959   5.723   7.925 -0.2078 -0.1020  0.4723
  180SOPE  H11X20597   0.931   5.621   7.891  1.3939 -0.8701  1.3422
  180SOPE  H11Y20598   0.861   5.773   7.937  1.0466  3.3501 -1.9650
  180SOPE  C31220599   1.018   5.701   8.061 -0.1999  0.0844 -0.6918
  180SOPE  H12X20600   1.050   5.791   8.118  1.6367 -1.9361  1.7467
  180SOPE  H12Y20601   1.114   5.645   8.050 -1.2155 -1.6688 -0.9661
  180SOPE  C31320602   0.923   5.627   8.151  0.0144 -0.2026  1.1146
  180SOPE  H13X20603   0.889   5.534   8.100 -1.2719  0.2934  1.0172
  180SOPE  H13Y20604   0.832   5.689   8.165 -0.0633 -0.3467  1.2671
  180SOPE  C31420605   0.987   5.571   8.279  0.7323  0.0459  0.4834
  180SOPE  H14X20606   1.013   5.654   8.349  0.2000 -1.7675  2.9632
  180SOPE  H14Y20607   1.083   5.523   8.251  1.6044  1.7352  0.4671
  180SOPE  C31520608   0.894   5.481   8.361 -0.7632  0.7299 -0.3936
  180SOPE  H15X20609   0.888   5.379   8.320 -0.4553  0.2073  0.8067
  180SOPE  H15Y20610   0.793   5.528   8.366 -0.4705  1.4422 -0.9790
  180SOPE  C31620611   0.952   5.455   8.506  0.3504  0.1022 -0.5536
  180SOPE  H16X20612   0.985   5.550   8.554 -0.1183  0.0079 -0.0299
  180SOPE  H16Y20613   1.032   5.378   8.501 -0.2151 -0.7705  2.1332
  180SOPE  C31720614   0.843   5.397   8.603  0.2814  0.4187  0.0841
  180SOPE  H17X20615   0.757   5.468   8.597  0.0747  0.1271 -0.4417
  180SOPE  H17Y20616   0.878   5.398   8.709  0.0384  0.4866  0.1650
  180SOPE  C31820617   0.797   5.256   8.563 -0.0802 -0.2603  0.4912
  180SOPE  H18X20618   0.766   5.249   8.457 -0.2533  0.8670  0.4528
  180SOPE  H18Y20619   0.711   5.230   8.627 -1.1252  2.6523  0.4321
  180SOPE  H18Z20620   0.876   5.180   8.578 -0.3095 -0.6450 -0.2024
  181SOPE     N20621   5.049   2.221   5.995  0.0703 -1.2321  0.0675
  181SOPE   HN120622   5.079   2.247   6.091 -1.6830  0.8299  0.1399
  181SOPE   HN220623   4.986   2.138   5.993 -2.1608  0.3710 -1.0171
  181SOPE   HN320624   5.129   2.194   5.934 -0.5438 -0.4603 -1.1192
  181SOPE   C1220625   4.980   2.344   5.946 -0.5978 -0.1317  0.6959
  181SOPE  H12A20626   4.946   2.333   5.841 -0.7415  1.1848  0.5789
  181SOPE  H12B20627   5.057   2.424   5.945 -0.7787  0.0937 -1.6621
  181SOPE   C1120628   4.850   2.376   6.019 -0.0376 -0.0837  0.5680
  181SOPE  H11A20629   4.815   2.468   5.967  3.9629 -0.8927 -4.2992
  181SOPE  H11B20630   4.864   2.393   6.128  1.5617 -4.1268  1.1860
  181SOPE     P20631   4.609   2.279   6.053 -0.2366 -0.1810  0.1355
  181SOPE   O1320632   4.534   2.167   5.987 -0.9838 -0.2708 -0.4840
  181SOPE   O1420633   4.555   2.416   6.025 -0.1534  0.0768 -0.4054
  181SOPE   O1220634   4.760   2.259   6.014 -0.3655  0.1996 -0.7474
  181SOPE   O1120635   4.596   2.247   6.209 -0.2698 -0.1160  0.0560
  181SOPE    C120636   4.684   2.153   6.278  0.3795 -0.9621  0.4131
  181SOPE    HA20637   4.741   2.211   6.354 -0.1270 -2.8375  2.3288
  181SOPE    HB20638   4.743   2.093   6.206 -0.0979 -0.8814 -0.0471
  181SOPE    C220639   4.606   2.058   6.371 -0.4715  0.7045 -0.6306
  181SOPE    HS20640   4.534   1.996   6.313 -2.1426  0.8410  1.2064
  181SOPE   O2120641   4.538   2.128   6.481  0.1832 -0.2187 -0.9378
  181SOPE   C2120642   4.435   2.072   6.533  0.0764  0.0147  0.4355
  181SOPE   O2220643   4.378   1.980   6.481 -0.0560 -0.0786 -0.2895
  181SOPE   C2220644   4.386   2.155   6.651 -0.1411  0.5630  0.0476
  181SOPE   H2R20645   4.322   2.236   6.609 -0.8646 -0.1395 -0.2200
  181SOPE   H2S20646   4.471   2.206   6.701 -0.1348  0.8663 -0.2716
  181SOPE    C320647   4.710   1.957   6.439 -0.3605 -0.0456  0.5201
  181SOPE    HX20648   4.775   2.010   6.512  0.2833  0.1751 -0.2060
  181SOPE    HY20649   4.766   1.932   6.346 -2.1904 -0.2660 -0.5719
  181SOPE   O3120650   4.650   1.821   6.489  0.1682 -0.0319  0.7775
  181SOPE   C3120651   4.662   1.801   6.616  0.2827 -0.6141  0.2901
  181SOPE   O3220652   4.708   1.876   6.704 -0.3075  0.2332  0.1634
  181SOPE   C3220653   4.616   1.653   6.648 -0.0239 -0.0857  0.4738
  181SOPE   H2X20654   4.710   1.595   6.645  1.0749  1.5919  1.0253
  181SOPE   H2Y20655   4.553   1.611   6.566  2.6633  0.8986 -2.3095
  181SOPE   C2320656   4.308   2.077   6.754 -0.5292  0.1859 -0.3669
  181SOPE   H3R20657   4.362   1.987   6.790  0.5165  1.4469  1.3822
  181SOPE   H3S20658   4.226   2.025   6.700 -0.6502  2.1096 -2.1574
  181SOPE   C2420659   4.239   2.160   6.864  0.7424 -0.5953 -0.3406
  181SOPE   H4R20660   4.308   2.244   6.885 -0.6270  0.6668 -0.7789
  181SOPE   H4S20661   4.141   2.194   6.826 -0.6720 -1.9949  1.8360
  181SOPE   C2520662   4.212   2.070   6.990 -0.9231  0.8185  0.0292
  181SOPE   H5R20663   4.152   1.982   6.958  1.5639 -1.5076  1.3437
  181SOPE   H5S20664   4.312   2.037   7.024 -2.3040 -3.9506  0.2144
  181SOPE   C2620665   4.133   2.137   7.096 -0.3136 -0.4963  0.2568
  181SOPE   H6R20666   4.189   2.229   7.124  2.0011 -0.6434 -3.2153
  181SOPE   H6S20667   4.028   2.161   7.067 -0.6288 -1.8084  0.2728
  181SOPE   C2720668   4.139   2.057   7.231 -0.2466 -0.0940  0.4227
  181SOPE   H7R20669   4.084   1.960   7.230 -0.4139 -0.0012 -0.0307
  181SOPE   H7S20670   4.245   2.025   7.238 -0.0350  0.2924 -0.7814
  181SOPE   C2820671   4.101   2.143   7.352 -0.5401  1.0113  0.4897
  181SOPE   H8R20672   4.163   2.234   7.364  0.9897 -0.0079  0.5243
  181SOPE   H8S20673   3.997   2.177   7.332 -0.9387 -1.2155 -1.6255
  181SOPE   C2920674   4.119   2.054   7.467 -0.3701  0.2792  0.2958
  181SOPE   H9120675   4.218   2.046   7.514  0.2795 -0.6100 -1.1498
  181SOPE  C21020676   4.016   1.991   7.528 -1.3764 -0.2450  0.3110
  181SOPE  H10120677   4.041   1.918   7.606 -2.2039 -1.3095 -0.3936
  181SOPE  C21120678   3.873   1.993   7.488  0.4680  0.2620  0.1679
  181SOPE  H11R20679   3.866   2.064   7.402  0.8822 -0.7432 -0.7129
  181SOPE  H11S20680   3.795   2.027   7.559 -2.3480 -2.0788 -1.5823
  181SOPE  C21220681   3.825   1.853   7.439  0.7891  0.7178 -0.2645
  181SOPE  H12R20682   3.787   1.795   7.526  0.9034  0.0748 -0.6434
  181SOPE  H12S20683   3.905   1.793   7.391  0.9515  0.3402  0.4623
  181SOPE  C21320684   3.714   1.865   7.332 -0.2553 -0.4973 -0.6237
  181SOPE  H13R20685   3.645   1.941   7.375  1.5109 -0.4714  2.5231
  181SOPE  H13S20686   3.650   1.775   7.324 -0.9228 -0.0354 -0.6104
  181SOPE  C21420687   3.774   1.895   7.184  0.0239  0.6572 -0.6680
  181SOPE  H14R20688   3.847   1.974   7.210 -0.3516  0.9806 -0.5932
  181SOPE  H14S20689   3.703   1.948   7.117 -1.1534  1.0499  0.8179
  181SOPE  C21520690   3.820   1.763   7.118 -0.4255 -0.6344 -0.0917
  181SOPE  H15R20691   3.733   1.699   7.095 -2.8834  1.7346  1.9336
  181SOPE  H15S20692   3.881   1.702   7.189  2.5925  2.7401  0.5232
  181SOPE  C21620693   3.917   1.794   7.003 -0.2025  0.5424  0.5005
  181SOPE  H16R20694   4.004   1.857   7.031  1.7406 -2.0394  0.6105
  181SOPE  H16S20695   3.859   1.854   6.930 -0.9861 -0.5214  0.2227
  181SOPE  C21720696   3.976   1.667   6.936  0.1876  0.7488 -0.7283
  181SOPE  H17R20697   3.894   1.600   6.905 -0.7378  0.4690  2.0528
  181SOPE  H17S20698   4.036   1.615   7.014 -0.5279  1.6647  0.4628
  181SOPE  C21820699   4.059   1.708   6.818 -0.2830 -0.0311 -0.1732
  181SOPE  H18R20700   4.002   1.764   6.741  0.4683 -0.1974 -0.8663
  181SOPE  H18S20701   4.095   1.612   6.775 -1.7273  0.2469 -2.1141
  181SOPE  H18T20702   4.143   1.773   6.851  2.3643 -3.2455 -0.0285
  181SOPE   C3320703   4.559   1.626   6.788  0.3769  0.0138  0.2002
  181SOPE   H3X20704   4.541   1.725   6.835  0.5087 -0.5476  1.4684
  181SOPE   H3Y20705   4.632   1.560   6.839 -0.7747 -0.7285  0.9301
  181SOPE   C3420706   4.431   1.540   6.784 -0.0407 -0.1836 -0.5120
  181SOPE   H4X20707   4.434   1.459   6.707 -0.4829 -1.3538  0.6750
  181SOPE   H4Y20708   4.348   1.608   6.756  0.9601  1.1794 -0.2812
  181SOPE   C3520709   4.397   1.469   6.914  0.3847  0.3866 -0.5949
  181SOPE   H5X20710   4.474   1.398   6.951 -1.2971 -0.6294  1.1175
  181SOPE   H5Y20711   4.303   1.410   6.912  0.1002  0.7877  0.3638
  181SOPE   C3620712   4.378   1.573   7.026  0.1184  0.4474 -0.3388
  181SOPE   H6X20713   4.318   1.649   6.971 -0.9320  0.2521  0.5150
  181SOPE   H6Y20714   4.477   1.613   7.056 -0.3726  0.9980  0.5820
  181SOPE   C3720715   4.302   1.509   7.148  0.2357  0.3747  0.4124
  181SOPE   H7X20716   4.349   1.414   7.180 -0.8828  0.2557  1.7660
  181SOPE   H7Y20717   4.201   1.485   7.110  0.5941  2.0828 -1.8659
  181SOPE   C3820718   4.271   1.607   7.268  0.0296  0.3897  0.4179
  181SOPE   H8X20719   4.214   1.695   7.231 -1.3559 -0.4351  0.5205
  181SOPE   H8Y20720   4.369   1.641   7.305  0.5698 -1.8188  1.1993
  181SOPE   C3920721   4.191   1.542   7.377  0.4329 -0.4430 -0.0643
  181SOPE   H9X20722   4.234   1.443   7.407  0.3751 -0.0527  1.3614
  181SOPE   H9Y20723   4.092   1.509   7.338 -0.2983 -1.0670  2.1591
  181SOPE  C31020724   4.171   1.637   7.498  0.7331 -0.2689 -0.1797
  181SOPE  H10X20725   4.090   1.714   7.490  2.2878  1.4516 -0.0222
  181SOPE  H10Y20726   4.267   1.691   7.512  2.0106 -2.5380  0.3251
  181SOPE  C31120727   4.148   1.558   7.633  0.2811 -0.3084  0.6363
  181SOPE  H11X20728   4.233   1.487   7.633  0.5738 -0.0087 -1.3869
  181SOPE  H11Y20729   4.063   1.486   7.632  0.5628 -0.6845 -1.5005
  181SOPE  C31220730   4.139   1.633   7.768  0.2633 -0.1335 -0.7777
  181SOPE  H12X20731   4.197   1.728   7.766 -0.5425  0.3671 -2.2027
  181SOPE  H12Y20732   4.183   1.568   7.846 -0.2609 -0.0621 -0.4173
  181SOPE  C31320733   4.001   1.681   7.800  0.0029  0.1859 -0.6212
  181SOPE  H13X20734   3.938   1.594   7.830 -2.0246  1.7983  0.0206
  181SOPE  H13Y20735   3.960   1.728   7.708 -1.2287  1.4113  0.5235
  181SOPE  C31420736   3.989   1.771   7.925  0.1504 -0.4649 -0.0026
  181SOPE  H14X20737   4.026   1.870   7.892 -0.7626  0.2645  1.0633
  181SOPE  H14Y20738   4.060   1.741   8.005 -0.2327 -0.8108  0.2164
  181SOPE  C31520739   3.851   1.797   7.984  1.1541 -0.2857 -0.1603
  181SOPE  H15X20740   3.865   1.834   8.088  0.2169 -1.6508  0.4774
  181SOPE  H15Y20741   3.793   1.702   7.994 -1.9428  1.3927 -0.9004
  181SOPE  C31620742   3.757   1.884   7.898 -0.0422  0.2190 -0.5587
  181SOPE  H16X20743   3.756   1.852   7.791 -1.4909 -1.7679 -0.0065
  181SOPE  H16Y20744   3.805   1.984   7.886  3.2794 -1.1920  0.0329
  181SOPE  C31720745   3.615   1.924   7.948 -0.3626 -0.5052 -0.4451
  181SOPE  H17X20746   3.630   1.993   8.033 -3.6356  1.3888 -1.2313
  181SOPE  H17Y20747   3.548   1.840   7.977 -0.0193 -1.5254 -2.4057
  181SOPE  C31820748   3.555   2.015   7.847 -0.7462  0.1242  0.0211
  181SOPE  H18X20749   3.455   2.057   7.870 -0.6202  0.7966 -0.6301
  181SOPE  H18Y20750   3.550   1.974   7.744  0.9864 -0.8320  0.2718
  181SOPE  H18Z20751   3.635   2.093   7.846 -1.0102  0.4456  1.4260
  182SOPE     N20752   2.321   3.904   6.197  0.2235  0.0065 -0.2585
  182SOPE   HN120753   2.251   3.941   6.265  0.4269 -0.4605  0.2073
  182SOPE   HN220754   2.348   3.815   6.242 -3.4742  0.0337  2.4756
  182SOPE   HN320755   2.406   3.964   6.199  0.9297 -1.0118  1.0381
  182SOPE   C1220756   2.251   3.890   6.064  0.4624  0.1888  0.0349
  182SOPE  H12A20757   2.322   3.843   5.992  1.0252 -2.7036  2.3049
  182SOPE  H12B20758   2.212   3.989   6.033 -0.9895  0.3584  2.2213
  182SOPE   C1120759   2.114   3.810   6.085 -0.3187  0.0228  0.3436
  182SOPE  H11A20760   2.134   3.703   6.107  0.7876  0.0569 -0.4296
  182SOPE  H11B20761   2.061   3.794   5.989 -0.0967  0.8248  0.0782
  182SOPE     P20762   1.873   3.840   6.197 -0.3354  0.3097  0.0246
  182SOPE   O1320763   1.829   3.832   6.058  0.0457 -0.4092  0.0902
  182SOPE   O1420764   1.801   3.934   6.288 -0.4331  0.8438 -0.1338
  182SOPE   O1220765   2.028   3.867   6.187  0.3950  0.4282 -0.7691
  182SOPE   O1120766   1.863   3.699   6.266 -0.1705 -0.0663 -0.2728
  182SOPE    C120767   1.956   3.664   6.372 -0.5921  0.2310  0.9714
  182SOPE    HA20768   2.040   3.736   6.385 -0.1094 -0.3686  1.2249
  182SOPE    HB20769   2.010   3.572   6.341 -0.0198  0.6575  0.6954
  182SOPE    C220770   1.879   3.649   6.510 -0.3062  0.0157  0.4093
  182SOPE    HS20771   1.951   3.613   6.586 -0.4933  0.0402  0.6014
  182SOPE   O2120772   1.772   3.567   6.502 -0.1685  0.6999 -0.3689
  182SOPE   C2120773   1.792   3.430   6.490 -0.5497  0.5887  0.7002
  182SOPE   O2220774   1.905   3.389   6.487 -0.3715  0.3404  0.6720
  182SOPE   C2220775   1.663   3.351   6.500  0.7634  0.3330  0.0533
  182SOPE   H2R20776   1.679   3.256   6.557 -0.9475  0.5133  0.9024
  182SOPE   H2S20777   1.630   3.322   6.398  1.3237 -1.6345  0.3756
  182SOPE    C320778   1.826   3.777   6.575  0.0639  0.0080 -0.4977
  182SOPE    HX20779   1.740   3.815   6.515  1.6164 -0.6783 -3.2983
  182SOPE    HY20780   1.907   3.853   6.575  3.6291 -3.4469 -0.7880
  182SOPE   O3120781   1.794   3.748   6.710 -0.7502 -0.4827  0.0783
  182SOPE   C3120782   1.671   3.781   6.750  0.0973  0.7980  0.3640
  182SOPE   O3220783   1.585   3.824   6.676  0.1542 -0.6396  0.0187
  182SOPE   C3220784   1.656   3.749   6.893  0.6451  0.3897  0.3853
  182SOPE   H2X20785   1.713   3.818   6.960  0.6376 -1.3826  2.3247
  182SOPE   H2Y20786   1.686   3.644   6.916 -0.1583  0.4293  1.7518
  182SOPE   C2320787   1.546   3.421   6.571  0.5331 -0.2328  0.2821
  182SOPE   H3R20788   1.458   3.446   6.507 -0.1873  0.1949  1.4148
  182SOPE   H3S20789   1.583   3.512   6.623  3.5401  0.1036 -2.1502
  182SOPE   C2420790   1.480   3.331   6.671  0.0021  0.3706 -0.4002
  182SOPE   H4R20791   1.419   3.245   6.635 -0.4458 -0.8071  2.8252
  182SOPE   H4S20792   1.548   3.293   6.750  0.3021 -0.2550 -0.9507
  182SOPE   C2520793   1.384   3.415   6.759 -0.3094  0.0076 -0.0980
  182SOPE   H5R20794   1.442   3.508   6.776  0.2425  0.0432 -1.8857
  182SOPE   H5S20795   1.293   3.445   6.704 -0.4577  0.8175  0.5697
  182SOPE   C2620796   1.344   3.342   6.891  0.5147 -0.9652  0.1964
  182SOPE   H6R20797   1.431   3.295   6.942 -0.3740  0.6442  3.4487
  182SOPE   H6S20798   1.303   3.423   6.955  2.0847  0.6164 -0.7212
  182SOPE   C2720799   1.244   3.225   6.867  0.4473 -1.1592  0.1442
  182SOPE   H7R20800   1.159   3.260   6.803 -0.5184  0.0970  2.0189
  182SOPE   H7S20801   1.301   3.144   6.817  1.6682 -1.0144  1.2670
  182SOPE   C2820802   1.195   3.162   7.002  0.2204  0.2031 -0.4720
  182SOPE   H8R20803   1.164   3.060   6.970 -1.1210 -0.5348  2.7438
  182SOPE   H8S20804   1.287   3.154   7.064  0.4026 -1.0831 -0.8674
  182SOPE   C2920805   1.080   3.230   7.075  0.5687 -1.0319 -0.1618
  182SOPE   H9120806   0.985   3.219   7.021 -0.0394  3.0018 -0.2351
  182SOPE  C21020807   1.082   3.321   7.174  0.3694 -0.0669  0.7709
  182SOPE  H10120808   0.989   3.376   7.196  1.2018  0.7627  2.3305
  182SOPE  C21120809   1.201   3.371   7.248 -0.0159 -0.1023 -0.2650
  182SOPE  H11R20810   1.200   3.480   7.270 -4.3991 -0.1112  0.5855
  182SOPE  H11S20811   1.292   3.360   7.185 -0.9067  1.1144 -1.8650
  182SOPE  C21220812   1.221   3.292   7.375  0.5165 -0.0028 -0.1708
  182SOPE  H12R20813   1.232   3.191   7.330 -0.2049 -0.6995  1.1502
  182SOPE  H12S20814   1.131   3.291   7.440  0.2659  0.0698 -0.5143
  182SOPE  C21320815   1.343   3.332   7.458 -0.2658  0.2122  0.1461
  182SOPE  H13R20816   1.343   3.442   7.476 -0.4226  0.4750 -1.3679
  182SOPE  H13S20817   1.433   3.286   7.411 -0.6314 -0.0621 -0.2885
  182SOPE  C21420818   1.339   3.274   7.599 -0.5343  0.0405 -0.4038
  182SOPE  H14R20819   1.369   3.167   7.605  1.7622  0.7015  1.2273
  182SOPE  H14S20820   1.234   3.284   7.635  0.1565  1.2235  1.3754
  182SOPE  C21520821   1.428   3.349   7.704 -0.3697  0.0458  0.2169
  182SOPE  H15R20822   1.413   3.459   7.698  0.6700  0.1389 -2.4347
  182SOPE  H15S20823   1.531   3.322   7.671 -0.8971 -1.3240 -0.3965
  182SOPE  C21620824   1.403   3.298   7.844 -0.5300 -0.1641 -0.1452
  182SOPE  H16R20825   1.441   3.196   7.863  2.9091  0.8145 -1.1688
  182SOPE  H16S20826   1.294   3.299   7.868  0.0992  0.2382  3.1982
  182SOPE  C21720827   1.460   3.384   7.963  0.0626 -0.2024  0.4629
  182SOPE  H17R20828   1.457   3.491   7.932 -1.6114 -0.6749 -1.2401
  182SOPE  H17S20829   1.568   3.359   7.969  0.5059  1.2226 -0.7723
  182SOPE  C21820830   1.392   3.384   8.101  0.0695 -0.0065  0.6053
  182SOPE  H18R20831   1.293   3.433   8.094 -0.6486 -1.2243  1.8445
  182SOPE  H18S20832   1.456   3.430   8.179  0.4745  0.3776  0.0583
  182SOPE  H18T20833   1.373   3.277   8.121 -0.5914 -0.3193 -1.4230
  182SOPE   C3320834   1.506   3.763   6.932 -0.4408  0.6852  0.1532
  182SOPE   H3X20835   1.437   3.718   6.859 -0.0853 -3.5091  2.0690
  182SOPE   H3Y20836   1.478   3.870   6.941 -0.1736  0.7659  0.0410
  182SOPE   C3420837   1.476   3.692   7.067  0.1096 -0.1132 -0.3956
  182SOPE   H4X20838   1.520   3.591   7.078  0.1426  0.0305  0.9079
  182SOPE   H4Y20839   1.368   3.698   7.091 -0.0841 -0.0514 -1.2571
  182SOPE   C3520840   1.537   3.761   7.195 -0.0099  1.1690  0.3943
  182SOPE   H5X20841   1.481   3.857   7.200 -1.4853  0.2979  1.5268
  182SOPE   H5Y20842   1.644   3.783   7.174 -0.4456  4.3955  1.0811
  182SOPE   C3620843   1.527   3.680   7.325 -0.2845  0.0825 -0.2800
  182SOPE   H6X20844   1.612   3.609   7.329  2.7018  3.4382  1.4217
  182SOPE   H6Y20845   1.430   3.625   7.322 -0.1685 -0.2206  0.8723
  182SOPE   C3720846   1.541   3.776   7.430  0.4849 -0.1567  0.0543
  182SOPE   H7X20847   1.444   3.829   7.441  0.9099  0.6347  0.0775
  182SOPE   H7Y20848   1.626   3.842   7.402  0.0752  0.3164 -0.1052
  182SOPE   C3820849   1.563   3.701   7.564  0.6007 -0.2822  0.1144
  182SOPE   H8X20850   1.668   3.664   7.561  0.4891 -0.5881 -0.1483
  182SOPE   H8Y20851   1.495   3.617   7.591 -1.1665  0.8805 -0.6161
  182SOPE   C3920852   1.557   3.808   7.680 -0.0464 -0.0731 -0.2347
  182SOPE   H9X20853   1.450   3.797   7.705 -0.0379 -0.2831 -0.2899
  182SOPE   H9Y20854   1.591   3.910   7.654  3.5658 -0.8342  0.8923
  182SOPE  C31020855   1.617   3.754   7.808  1.0481 -0.4407  0.2530
  182SOPE  H10X20856   1.724   3.725   7.801  1.4868  1.4175 -2.3248
  182SOPE  H10Y20857   1.558   3.662   7.827 -1.7201  1.4819  1.5565
  182SOPE  C31120858   1.591   3.849   7.929 -0.5854  0.1880 -0.9209
  182SOPE  H11X20859   1.485   3.880   7.936 -0.0194  2.1193 -0.2575
  182SOPE  H11Y20860   1.639   3.946   7.906 -2.7763  1.3842 -0.7358
  182SOPE  C31220861   1.643   3.782   8.061  0.5564 -0.2792 -0.2487
  182SOPE  H12X20862   1.742   3.740   8.035  0.8914 -1.5376  2.6325
  182SOPE  H12Y20863   1.578   3.702   8.103  0.4966  0.1414  0.4823
  182SOPE  C31320864   1.669   3.881   8.175  0.3444  0.3830  0.0658
  182SOPE  H13X20865   1.577   3.940   8.190  0.5072  0.6887 -0.1247
  182SOPE  H13Y20866   1.752   3.945   8.138  1.9301 -1.1799  0.7752
  182SOPE  C31420867   1.719   3.819   8.307 -0.7954  0.0732  0.0208
  182SOPE  H14X20868   1.815   3.771   8.279 -1.2411 -0.2555 -1.0006
  182SOPE  H14Y20869   1.642   3.741   8.324 -0.2522 -0.2009  1.2746
  182SOPE  C31520870   1.719   3.918   8.423  0.5027 -0.1357 -0.0932
  182SOPE  H15X20871   1.689   3.854   8.508  0.4257  2.3224  1.8456
  182SOPE  H15Y20872   1.645   4.000   8.435 -0.2714 -1.0309  1.5162
  182SOPE  C31620873   1.859   3.969   8.453 -0.4942 -0.3476 -0.1001
  182SOPE  H16X20874   1.940   3.897   8.431 -0.5473 -0.3149 -0.4116
  182SOPE  H16Y20875   1.865   4.003   8.559 -1.5885  0.6918 -0.3507
  182SOPE  C31720876   1.898   4.099   8.378  0.2500 -0.9386 -0.2319
  182SOPE  H17X20877   1.917   4.084   8.269  1.4315 -0.4816 -0.1039
  182SOPE  H17Y20878   1.995   4.132   8.422  0.9945 -0.9457 -1.7790
  182SOPE  C31820879   1.804   4.210   8.387  0.3710  0.5515 -0.3352
  182SOPE  H18X20880   1.719   4.188   8.320 -0.5734 -2.2068  1.5584
  182SOPE  H18Y20881   1.850   4.305   8.352  3.2002 -0.1416  1.1718
  182SOPE  H18Z20882   1.761   4.215   8.490  0.0471 -3.3937 -0.0983
  183SOPE     N20883   6.328   0.644   6.026  0.1971  0.1233  0.0344
  183SOPE   HN120884   6.382   0.557   6.009 -0.5578 -0.6886  1.5534
  183SOPE   HN220885   6.289   0.642   6.122 -1.5925 -0.4925 -0.6540
  183SOPE   HN320886   6.245   0.662   5.965  1.1496  3.3992 -0.4841
  183SOPE   C1220887   6.425   0.760   6.021  0.2909 -0.1815 -0.1000
  183SOPE  H12A20888   6.368   0.854   6.004  1.9547  0.6505 -1.2410
  183SOPE  H12B20889   6.490   0.745   5.933  0.4939  2.0767 -0.3930
  183SOPE   C1120890   6.516   0.767   6.146  0.3540  0.5721  0.4879
  183SOPE  H11A20891   6.449   0.808   6.224 -1.3286  2.0224 -1.6080
  183SOPE  H11B20892   6.598   0.842   6.137  1.4219 -0.5398  0.6521
  183SOPE     P20893   6.722   0.617   6.217 -0.3854 -0.2058 -0.4203
  183SOPE   O1320894   6.814   0.670   6.112 -0.3071  0.1583  0.4898
  183SOPE   O1420895   6.755   0.475   6.253  0.0014  0.1663 -0.1309
  183SOPE   O1220896   6.570   0.635   6.181  0.4753 -0.6321 -0.9587
  183SOPE   O1120897   6.729   0.703   6.351  0.2454  0.3510 -0.4196
  183SOPE    C120898   6.679   0.662   6.474  0.6376 -0.0125 -0.9903
  183SOPE    HA20899   6.569   0.643   6.476  0.6574 -0.2426  1.6784
  183SOPE    HB20900   6.681   0.757   6.532 -2.3772 -0.0842 -0.5804
  183SOPE    C220901   6.763   0.549   6.550 -0.1023 -0.3030 -0.4504
  183SOPE    HS20902   6.753   0.457   6.489  4.3575 -2.1522  1.1138
  183SOPE   O2120903   6.705   0.528   6.681 -0.4006 -0.3521  0.5155
  183SOPE   C2120904   6.737   0.404   6.730  0.1427 -0.3472 -0.1596
  183SOPE   O2220905   6.778   0.310   6.664 -0.2452  0.3015 -0.3259
  183SOPE   C2220906   6.690   0.405   6.877 -0.3568  0.4911  0.0179
  183SOPE   H2R20907   6.579   0.399   6.871 -0.4294 -0.9333  1.8303
  183SOPE   H2S20908   6.727   0.502   6.916  1.1928 -0.0263 -0.0853
  183SOPE    C320909   6.916   0.579   6.552 -0.0406  0.1541  0.2716
  183SOPE    HX20910   6.943   0.576   6.445  2.2924 -0.8564  0.8318
  183SOPE    HY20911   6.976   0.502   6.606 -2.5414 -2.4784 -0.4177
  183SOPE   O3120912   6.954   0.715   6.594 -0.0123 -0.7547 -0.5076
  183SOPE   C3120913   6.970   0.724   6.731 -0.4073 -0.4791 -0.0597
  183SOPE   O3220914   6.950   0.627   6.801 -0.1628  0.4898  0.5065
  183SOPE   C3220915   7.026   0.860   6.780  0.6239  0.1466 -0.2888
  183SOPE   H2X20916   6.944   0.933   6.762 -1.3010 -2.1386 -1.2669
  183SOPE   H2Y20917   7.119   0.872   6.721  0.0555 -1.0001 -1.4621
  183SOPE   C2320918   6.756   0.284   6.958 -0.2429 -0.2534  0.4937
  183SOPE   H3R20919   6.861   0.316   6.974 -1.7277  4.9390  1.7149
  183SOPE   H3S20920   6.757   0.185   6.908  0.1554 -0.5559  1.1014
  183SOPE   C2420921   6.696   0.265   7.101 -0.2884  0.4133 -0.2031
  183SOPE   H4R20922   6.697   0.362   7.155 -0.8570 -1.2550  3.0869
  183SOPE   H4S20923   6.595   0.220   7.103 -0.6449  1.2298  1.5630
  183SOPE   C2520924   6.797   0.180   7.187  0.1651  0.0742 -0.2312
  183SOPE   H5R20925   6.836   0.088   7.137 -2.2008 -0.0853 -1.9614
  183SOPE   H5S20926   6.888   0.244   7.192  0.6638 -0.5622 -0.8838
  183SOPE   C2620927   6.739   0.161   7.331 -0.0023  0.0121 -0.1824
  183SOPE   H6R20928   6.704   0.260   7.365 -1.7139 -0.5820 -0.1133
  183SOPE   H6S20929   6.653   0.091   7.330 -0.9618  1.0742  1.9283
  183SOPE   C2720930   6.844   0.102   7.435  0.1189  0.1279  0.2919
  183SOPE   H7R20931   6.877  -0.001   7.407 -2.6593 -1.3976  2.1280
  183SOPE   H7S20932   6.931   0.171   7.435  0.9749 -0.8255 -2.2976
  183SOPE   C2820933   6.773   0.115   7.574  0.1821  0.0498 -0.3903
  183SOPE   H8R20934   6.668   0.080   7.567  0.3664 -0.2151 -2.1015
  183SOPE   H8S20935   6.827   0.047   7.643 -0.6460 -1.4667 -1.1905
  183SOPE   C2920936   6.768   0.256   7.621 -0.1637 -0.0685  0.4264
  183SOPE   H9120937   6.732   0.326   7.545 -0.0142  0.9467  1.2699
  183SOPE  C21020938   6.809   0.311   7.739 -0.2350  0.2490 -0.0736
  183SOPE  H10120939   6.793   0.418   7.762  1.9004  0.5667  0.2001
  183SOPE  C21120940   6.871   0.229   7.849  0.1154 -0.0792  0.9662
  183SOPE  H11R20941   6.982   0.234   7.851  0.1194  1.6715 -0.7038
  183SOPE  H11S20942   6.848   0.122   7.830 -0.2086  0.1955 -0.2606
  183SOPE  C21220943   6.837   0.266   7.997 -0.0100 -0.1892  0.3968
  183SOPE  H12R20944   6.728   0.286   8.005 -1.1009 -2.9294 -3.7805
  183SOPE  H12S20945   6.890   0.361   8.020 -1.7700  1.4820 -1.9008
  183SOPE  C21320946   6.877   0.155   8.091  0.5014  0.0035  0.3356
  183SOPE  H13R20947   6.987   0.136   8.097  0.7322  1.1142 -0.1397
  183SOPE  H13S20948   6.830   0.058   8.063 -0.3839  0.7564 -0.8953
  183SOPE  C21420949   6.829   0.162   8.240  0.0977 -0.0879 -0.2969
  183SOPE  H14R20950   6.892   0.090   8.295  2.4402  0.3598 -2.2553
  183SOPE  H14S20951   6.723   0.127   8.237  0.5291 -1.3423 -1.5011
  183SOPE  C21520952   6.831   0.299   8.308 -0.6353 -0.1244  0.3087
  183SOPE  H15R20953   6.756   0.354   8.247 -1.5298 -0.4746  1.0664
  183SOPE  H15S20954   6.933   0.340   8.293  0.1087 -2.1388 -0.5305
  183SOPE  C21620955   6.794   0.302   8.456 -0.2422  0.1155 -0.2050
  183SOPE  H16R20956   6.803   0.406   8.495 -1.1117  0.1815 -0.1604
  183SOPE  H16S20957   6.860   0.241   8.521 -1.9333  0.2304  1.7384
  183SOPE  C21720958   6.653   0.252   8.477 -0.3962 -0.1751 -0.5069
  183SOPE  H17R20959   6.639   0.148   8.438  0.4774 -0.0172 -1.2783
  183SOPE  H17S20960   6.584   0.317   8.419  0.8937 -0.4861 -2.5050
  183SOPE  C21820961   6.607   0.257   8.618  0.4550  0.2849  0.9479
  183SOPE  H18R20962   6.500   0.230   8.632  0.6105 -0.6049  0.5102
  183SOPE  H18S20963   6.630   0.359   8.656  1.3960  0.7297 -0.6800
  183SOPE  H18T20964   6.651   0.179   8.683 -2.1114 -0.9362  1.3276
  183SOPE   C3320965   7.071   0.870   6.931 -0.3657 -0.6339  0.0115
  183SOPE   H3X20966   7.170   0.821   6.944 -0.5422 -0.8339  0.6614
  183SOPE   H3Y20967   7.010   0.819   7.009  1.1103  0.8180  2.2688
  183SOPE   C3420968   7.068   1.016   6.983 -0.5690 -0.5396  0.2150
  183SOPE   H4X20969   6.969   1.059   7.006  0.3887  0.5880  2.5988
  183SOPE   H4Y20970   7.137   1.076   6.918 -1.5271  3.5913  2.6470
  183SOPE   C3520971   7.136   1.039   7.114 -0.7132 -0.3110 -0.9741
  183SOPE   H5X20972   7.170   1.145   7.125 -0.4741 -0.3162 -1.5953
  183SOPE   H5Y20973   7.220   0.968   7.126 -0.5209 -0.7852 -4.1769
  183SOPE   C3620974   7.050   1.019   7.240  0.6782 -0.1207  0.4296
  183SOPE   H6X20975   6.973   0.940   7.224  1.0656 -0.2136 -1.1053
  183SOPE   H6Y20976   7.005   1.121   7.237 -1.2366 -0.9302 -1.0512
  183SOPE   C3720977   7.137   0.986   7.358 -0.0852  0.2502 -0.3569
  183SOPE   H7X20978   7.233   1.038   7.342 -1.0192  1.7507 -1.3142
  183SOPE   H7Y20979   7.152   0.876   7.351  0.2172  0.3027 -0.5365
  183SOPE   C3820980   7.079   1.024   7.492 -0.1683 -0.0990 -0.8586
  183SOPE   H8X20981   6.968   1.016   7.484 -0.2335  0.1261 -0.2286
  183SOPE   H8Y20982   7.110   1.129   7.507 -1.9839  0.4688 -0.7928
  183SOPE   C3920983   7.130   0.924   7.607  0.1987  0.2680  0.3514
  183SOPE   H9X20984   7.239   0.910   7.621  0.1194 -2.0680 -0.8208
  183SOPE   H9Y20985   7.096   0.820   7.584  0.4777  0.1946  0.2705
  183SOPE  C31020986   7.060   0.951   7.743 -0.2615  0.1282 -1.0513
  183SOPE  H10X20987   6.952   0.965   7.717 -0.4268  0.8810 -0.0296
  183SOPE  H10Y20988   7.100   1.049   7.778  1.0943 -0.2422 -1.5088
  183SOPE  C31120989   7.075   0.843   7.859  0.5080 -0.2126  0.2973
  183SOPE  H11X20990   7.183   0.833   7.884  0.3483 -0.0899  1.0668
  183SOPE  H11Y20991   7.042   0.740   7.835 -1.3260  0.5609 -0.7301
  183SOPE  C31220992   7.002   0.890   7.988 -0.3747 -0.5820  0.0279
  183SOPE  H12X20993   6.895   0.889   7.959 -0.5298  1.5161  0.4435
  183SOPE  H12Y20994   7.020   0.997   8.010  1.4136 -0.9436  0.5021
  183SOPE  C31320995   7.043   0.796   8.099 -0.3254  0.2369  0.0853
  183SOPE  H13X20996   7.154   0.790   8.109 -0.3242 -2.4717 -0.8477
  183SOPE  H13Y20997   7.017   0.692   8.071  0.5831  0.8382 -3.4684
  183SOPE  C31420998   6.977   0.812   8.241  1.2931 -0.5349 -0.1173
  183SOPE  H14X20999   6.867   0.797   8.231  0.9969 -0.1228  1.9689
  183SOPE  H14Y21000   6.999   0.911   8.286 -0.3793 -1.2171  2.4358
  183SOPE  C31521001   7.030   0.710   8.347  0.0297 -0.5548  0.0766
  183SOPE  H15X21002   7.139   0.695   8.328 -0.4968 -1.6371 -2.6299
  183SOPE  H15Y21003   6.983   0.610   8.329 -2.4414  0.5530  0.0651
  183SOPE  C31621004   6.985   0.760   8.487 -0.2999 -0.3602  0.3696
  183SOPE  H16X21005   6.875   0.774   8.488 -0.1859  0.9811 -1.3718
  183SOPE  H16Y21006   7.043   0.850   8.514  1.5348 -1.6465  0.9245
  183SOPE  C31721007   7.016   0.652   8.589  0.0415  0.3191 -0.0785
  183SOPE  H17X21008   7.126   0.651   8.602 -0.2179  1.8613  3.3426
  183SOPE  H17Y21009   6.986   0.554   8.548  1.7001  0.3731 -1.5283
  183SOPE  C31821010   6.954   0.678   8.724  0.3104 -0.4185 -0.9669
  183SOPE  H18X21011   6.846   0.652   8.728  0.5150 -1.1546  2.5594
  183SOPE  H18Y21012   6.961   0.788   8.738 -0.3676 -0.3675 -1.0065
  183SOPE  H18Z21013   7.008   0.627   8.806  0.9952  0.4980 -0.8207
  184SOPE     N21014   5.316   3.895   6.304  0.4263  0.0890 -0.5746
  184SOPE   HN121015   5.227   3.904   6.359  1.6650 -3.2497  2.4461
  184SOPE   HN221016   5.357   3.807   6.343 -1.1460 -0.6485 -0.4649
  184SOPE   HN321017   5.381   3.969   6.335 -1.1027  1.0755  0.4295
  184SOPE   C1221018   5.291   3.878   6.158  0.1975  0.0222  0.4656
  184SOPE  H12A21019   5.249   3.972   6.118  1.2455  1.3752  2.3608
  184SOPE  H12B21020   5.225   3.790   6.140  2.0126 -1.4069  0.4210
  184SOPE   C1121021   5.429   3.851   6.085 -0.0172 -0.3738  0.0421
  184SOPE  H11A21022   5.491   3.942   6.067  1.9684 -1.8188 -0.7742
  184SOPE  H11B21023   5.403   3.830   5.979  0.2289  1.4649 -0.4227
  184SOPE     P21024   5.625   3.740   6.206 -0.1723  0.3317 -0.3478
  184SOPE   O1321025   5.702   3.851   6.147 -0.3291  0.0470  0.2370
  184SOPE   O1421026   5.692   3.607   6.200 -0.3840  0.2635  0.1532
  184SOPE   O1221027   5.490   3.733   6.131 -0.1706 -0.3354 -0.4859
  184SOPE   O1121028   5.580   3.772   6.355 -0.3666 -0.3658  0.3726
  184SOPE    C121029   5.525   3.678   6.444  0.5054  0.6019  0.4308
  184SOPE    HA21030   5.586   3.586   6.450 -0.6615 -0.1454  0.9350
  184SOPE    HB21031   5.427   3.644   6.405  0.3029 -0.7349  2.0265
  184SOPE    C221032   5.526   3.736   6.588 -0.1648 -0.4969  0.8665
  184SOPE    HS21033   5.515   3.652   6.661 -2.5050 -0.1191  1.0418
  184SOPE   O2121034   5.425   3.842   6.612 -0.1254  0.1007  0.2864
  184SOPE   C2121035   5.392   3.872   6.738  0.3834  0.5819 -0.7309
  184SOPE   O2221036   5.404   3.796   6.832  0.1040  0.0208 -0.8486
  184SOPE   C2221037   5.322   4.009   6.749 -0.0553 -0.0215  0.5758
  184SOPE   H2R21038   5.214   3.988   6.740  0.0505  0.1720 -2.2169
  184SOPE   H2S21039   5.352   4.070   6.661 -0.8622  3.5976  2.5931
  184SOPE    C321040   5.663   3.802   6.605 -0.0057 -0.5874 -0.0308
  184SOPE    HX21041   5.666   3.887   6.533  2.0295  0.8741  1.6498
  184SOPE    HY21042   5.747   3.736   6.575 -0.3726 -1.0316 -0.0862
  184SOPE   O3121043   5.675   3.869   6.731 -0.1822  0.2069 -0.7281
  184SOPE   C3121044   5.752   3.804   6.814 -0.2870 -0.0005  0.1399
  184SOPE   O3221045   5.804   3.695   6.796 -0.0997  0.3748  0.1776
  184SOPE   C3221046   5.747   3.881   6.949  0.2193 -0.1047  0.5775
  184SOPE   H2X21047   5.693   3.977   6.938  0.5142  0.0682  0.6094
  184SOPE   H2Y21048   5.852   3.893   6.984  0.1776 -1.2932  1.1858
  184SOPE   C2321049   5.369   4.093   6.864 -0.0229  0.2420 -0.5433
  184SOPE   H3R21050   5.334   4.198   6.857  0.5229  0.5931  1.4430
  184SOPE   H3S21051   5.480   4.098   6.866  0.0288 -0.7673 -0.6174
  184SOPE   C2421052   5.316   4.051   7.009  0.5163 -0.5795  0.7866
  184SOPE   H4R21053   5.206   4.051   7.000  0.3324 -3.5678  1.8750
  184SOPE   H4S21054   5.353   3.948   7.028  1.3379 -0.1444  1.6671
  184SOPE   C2521055   5.358   4.140   7.129 -0.7482 -0.0046 -0.1163
  184SOPE   H5R21056   5.468   4.146   7.116 -0.7435 -1.8417 -1.3139
  184SOPE   H5S21057   5.301   4.234   7.112 -2.7600 -1.2189 -0.5103
  184SOPE   C2621058   5.333   4.078   7.267 -1.0294  0.4802  0.6100
  184SOPE   H6R21059   5.227   4.046   7.278 -1.3158  0.3755 -1.8752
  184SOPE   H6S21060   5.401   3.992   7.282  0.7060  1.7718  0.3827
  184SOPE   C2721061   5.372   4.174   7.390 -0.5589  0.6791 -0.0215
  184SOPE   H7R21062   5.287   4.243   7.407 -1.0992 -0.3323  1.6163
  184SOPE   H7S21063   5.376   4.104   7.476 -1.9749 -0.1912 -0.6178
  184SOPE   C2821064   5.506   4.262   7.377  1.1220  0.1377  0.1378
  184SOPE   H8R21065   5.496   4.316   7.280 -4.1960 -1.2378 -0.4327
  184SOPE   H8S21066   5.501   4.338   7.458 -1.4631  2.2285 -1.7948
  184SOPE   C2921067   5.621   4.171   7.401  0.3973 -0.4480 -0.0778
  184SOPE   H9121068   5.607   4.083   7.337  1.0631  0.7739 -2.0089
  184SOPE  C21021069   5.716   4.181   7.490 -0.1031 -0.3430 -0.6512
  184SOPE  H10121070   5.788   4.098   7.496 -1.1001 -1.1661  0.2912
  184SOPE  C21121071   5.742   4.293   7.593  0.1378 -0.2214  0.1188
  184SOPE  H11R21072   5.702   4.389   7.553 -2.3631 -0.4984  1.7246
  184SOPE  H11S21073   5.852   4.290   7.604  0.1603  0.8200  0.2464
  184SOPE  C21221074   5.672   4.276   7.726 -0.4488  0.2022  0.1483
  184SOPE  H12R21075   5.567   4.242   7.714 -0.4287 -0.7915  2.3262
  184SOPE  H12S21076   5.661   4.378   7.768 -0.7152  1.6742 -3.1542
  184SOPE  C21321077   5.748   4.180   7.817  0.6810 -0.4027  0.9793
  184SOPE  H13R21078   5.854   4.177   7.783 -0.4863 -2.2995 -3.2428
  184SOPE  H13S21079   5.712   4.075   7.817  0.4303 -0.3170  0.8380
  184SOPE  C21421080   5.744   4.219   7.965  0.6059 -0.2354 -0.5850
  184SOPE  H14R21081   5.650   4.273   7.986  0.0478 -0.5268 -2.2238
  184SOPE  H14S21082   5.821   4.299   7.963  1.3411 -0.8280 -5.0609
  184SOPE  C21521083   5.785   4.114   8.068 -0.5532 -0.3514 -0.6228
  184SOPE  H15R21084   5.886   4.067   8.059 -0.9729 -1.5495  0.5705
  184SOPE  H15S21085   5.706   4.037   8.078 -1.3735  0.6564  1.0120
  184SOPE  C21621086   5.790   4.195   8.203 -0.0723  0.0194  0.3761
  184SOPE  H16R21087   5.706   4.267   8.203  0.8834  1.1607  0.2680
  184SOPE  H16S21088   5.890   4.244   8.206 -1.1192  2.2824  0.4047
  184SOPE  C21721089   5.785   4.104   8.326  0.2278  0.0778  0.6373
  184SOPE  H17R21090   5.855   4.019   8.314  1.5068  0.8667  2.1476
  184SOPE  H17S21091   5.686   4.053   8.334  0.8342 -1.2651 -0.0834
  184SOPE  C21821092   5.808   4.177   8.457  0.4549  0.2351 -0.1391
  184SOPE  H18R21093   5.895   4.244   8.470  0.4163  0.2037  0.2796
  184SOPE  H18S21094   5.804   4.100   8.537  1.8040 -0.0551 -0.3321
  184SOPE  H18T21095   5.712   4.231   8.475  0.0433 -0.2227 -0.8951
  184SOPE   C3321096   5.682   3.791   7.052 -0.6499  0.3286 -0.0100
  184SOPE   H3X21097   5.734   3.693   7.052 -1.2402  0.0088 -0.4715
  184SOPE   H3Y21098   5.576   3.780   7.019 -0.6683 -0.4253  0.2668
  184SOPE   C3421099   5.681   3.852   7.191  0.1799  0.4172 -0.4803
  184SOPE   H4X21100   5.630   3.950   7.179  0.7704  0.6736 -0.9526
  184SOPE   H4Y21101   5.785   3.879   7.220  0.3041 -2.1527  1.9819
  184SOPE   C3521102   5.620   3.753   7.293  0.3217 -0.8025  0.5246
  184SOPE   H5X21103   5.683   3.664   7.311  1.4194  0.0643  1.0848
  184SOPE   H5Y21104   5.523   3.717   7.253 -1.4605  3.0697  0.9434
  184SOPE   C3621105   5.594   3.820   7.434 -0.4735  0.2699 -0.5922
  184SOPE   H6X21106   5.501   3.875   7.409 -1.4409 -1.4057 -0.8206
  184SOPE   H6Y21107   5.682   3.885   7.454  1.1188 -0.9125 -3.1681
  184SOPE   C3721108   5.555   3.712   7.536 -0.2662 -0.0507  0.8452
  184SOPE   H7X21109   5.630   3.631   7.523  0.4038  0.8731 -1.7677
  184SOPE   H7Y21110   5.460   3.676   7.493  0.6462 -0.8897 -0.5510
  184SOPE   C3821111   5.541   3.759   7.681 -0.6382 -0.3408  0.3846
  184SOPE   H8X21112   5.499   3.861   7.690  0.8055  0.1477  2.0998
  184SOPE   H8Y21113   5.644   3.777   7.719 -0.3138  0.3585 -0.7705
  184SOPE   C3921114   5.476   3.651   7.764 -0.6612  0.6136 -0.6081
  184SOPE   H9X21115   5.555   3.583   7.804  0.8829  1.6376 -1.8088
  184SOPE   H9Y21116   5.405   3.595   7.700 -2.8219 -0.4805  2.4884
  184SOPE  C31021117   5.408   3.714   7.885 -0.1933  0.2207  0.0099
  184SOPE  H10X21118   5.490   3.771   7.933  0.6016 -1.1853  0.3817
  184SOPE  H10Y21119   5.376   3.632   7.952  3.3249 -1.4287 -0.1260
  184SOPE  C31121120   5.282   3.803   7.865 -0.4220 -0.1248  0.2443
  184SOPE  H11X21121   5.215   3.759   7.788 -0.8619  1.9011 -0.6135
  184SOPE  H11Y21122   5.309   3.898   7.814  1.2607 -0.3946  0.5815
  184SOPE  C31221123   5.207   3.849   7.991 -0.8269 -0.2926  0.0744
  184SOPE  H12X21124   5.263   3.935   8.035  0.5645 -0.7706 -0.6742
  184SOPE  H12Y21125   5.193   3.766   8.063  0.0263 -0.6751 -0.1845
  184SOPE  C31321126   5.070   3.902   7.961 -0.0725  0.0992  0.0936
  184SOPE  H13X21127   5.000   3.819   7.935 -1.1515  0.0245  2.8348
  184SOPE  H13Y21128   5.091   3.967   7.873  1.2989  0.7181  0.8520
  184SOPE  C31421129   5.009   3.982   8.071  0.4037 -0.7002 -0.5319
  184SOPE  H14X21130   5.094   4.042   8.110  0.1426 -0.7833  0.1691
  184SOPE  H14Y21131   4.981   3.907   8.148 -2.2118 -1.6118 -2.2649
  184SOPE  C31521132   4.883   4.066   8.027 -0.2826  0.8943 -0.2725
  184SOPE  H15X21133   4.817   3.991   7.977 -1.4842  0.9263  1.1971
  184SOPE  H15Y21134   4.912   4.148   7.958 -0.4922  0.8172 -0.4559
  184SOPE  C31621135   4.807   4.106   8.151  0.3716  0.7896  0.0280
  184SOPE  H16X21136   4.808   4.025   8.228  0.8858  0.2458 -0.5313
  184SOPE  H16Y21137   4.703   4.130   8.121  0.8771  1.1735 -1.5257
  184SOPE  C31721138   4.869   4.226   8.219 -0.0369  0.0210 -0.1816
  184SOPE  H17X21139   4.883   4.316   8.155 -1.6053  0.7947  0.5027
  184SOPE  H17Y21140   4.965   4.204   8.272  0.6981  0.3943 -1.3235
  184SOPE  C31821141   4.770   4.263   8.330 -0.1126  0.3986  0.7807
  184SOPE  H18X21142   4.766   4.171   8.393  2.0447 -0.0178  0.3725
  184SOPE  H18Y21143   4.673   4.284   8.281  0.5560  2.1127  0.1376
  184SOPE  H18Z21144   4.797   4.353   8.388 -1.6641  1.2315  0.2547
  185SAPI   C1221145   0.712   6.236  11.155 -0.3457 -0.7509 -0.7030
  185SAPI    H221146   0.713   6.143  11.215 -2.3533 -0.1451  0.3229
  185SAPI    O221147   0.605   6.321  11.203  0.2676  0.2741 -0.0855
  185SAPI   HO221148   0.524   6.301  11.157  0.0376 -1.6242  1.0476
  185SAPI   C1321149   0.850   6.294  11.165 -0.0619  0.1286  0.2953
  185SAPI    H321150   0.918   6.223  11.113 -1.1680 -1.6046  1.1209
  185SAPI    O321151   0.902   6.305  11.302  0.2768  0.1038  0.1619
  185SAPI   HO321152   0.898   6.398  11.322  2.1032  0.6794 -1.8154
  185SAPI   C1421153   0.856   6.425  11.087 -0.6586 -0.6114 -0.8112
  185SAPI    H421154   0.771   6.489  11.118  0.0022 -0.8200  1.6987
  185SAPI    O421155   0.989   6.490  11.120  0.2965  0.6490  0.1568
  185SAPI   HO421156   0.986   6.583  11.098 -0.6743  0.3363 -1.2146
  185SAPI   C1521157   0.840   6.398  10.939  0.1124  0.2567  0.0708
  185SAPI    H521158   0.925   6.343  10.895 -0.3547  1.3850 -2.3985
  185SAPI    O521159   0.832   6.522  10.865 -0.8968 -0.1881  0.1914
  185SAPI   HO521160   0.890   6.496  10.793  0.1687 -3.4064  2.0096
  185SAPI   C1621161   0.702   6.327  10.928  0.0168 -0.3047 -0.5475
  185SAPI    H621162   0.622   6.394  10.967  0.1653 -0.7960  0.6452
  185SAPI    O621163   0.673   6.296  10.792  0.6372  0.3332  0.8510
  185SAPI   HO621164   0.584   6.330  10.779  0.5376  0.2851  1.3838
  185SAPI   C1121165   0.693   6.202  11.010  0.0313 -0.3661 -0.2192
  185SAPI    H121166   0.780   6.140  10.979  1.9230  1.1991  1.6336
  185SAPI     P21167   0.562   5.980  10.985 -0.3758  0.2847  0.1739
  185SAPI   O1321168   0.422   5.946  11.016 -0.1632 -0.0840 -0.0207
  185SAPI   O1421169   0.669   5.912  11.058  0.4372  0.2836 -0.1659
  185SAPI   O1221170   0.564   6.146  10.997 -0.4949  0.4373 -0.6306
  185SAPI   O1121171   0.587   5.972  10.837 -0.1034  0.3248 -0.1364
  185SAPI    C121172   0.566   5.850  10.759 -0.4245 -0.0045 -0.5359
  185SAPI    HA21173   0.623   5.764  10.801 -0.6844 -1.0560 -2.2458
  185SAPI    HB21174   0.460   5.819  10.763 -0.4424  0.1176  0.3273
  185SAPI    C221175   0.607   5.871  10.613 -0.2468  0.4447  0.4700
  185SAPI    HS21176   0.704   5.926  10.614  0.6276 -1.0105 -0.2855
  185SAPI   O2121177   0.496   5.943  10.556  0.1673 -0.0426 -0.2715
  185SAPI   C2121178   0.518   6.026  10.461 -0.5723  0.4597 -0.0037
  185SAPI   O2221179   0.625   6.064  10.424 -0.3735 -0.3448  0.2510
  185SAPI   C2221180   0.388   6.054  10.397 -0.0937 -0.1790 -0.2406
  185SAPI   H2R21181   0.340   5.958  10.366 -2.6134  0.6293  0.8662
  185SAPI   H2S21182   0.329   6.098  10.481 -1.9830  0.4723 -1.8220
  185SAPI    C321183   0.647   5.735  10.544  0.6644 -0.0721  0.4418
  185SAPI    HX21184   0.576   5.656  10.574 -1.4819  1.1666 -1.0414
  185SAPI    HY21185   0.744   5.697  10.582  0.5648 -0.7665  0.0180
  185SAPI   O3121186   0.643   5.738  10.398  0.2734  0.3435  0.1011
  185SAPI   C3121187   0.765   5.782  10.350 -0.0313  0.7976  0.3929
  185SAPI   O3221188   0.858   5.814  10.419  0.0837 -0.5484 -0.7944
  185SAPI   C3221189   0.766   5.789  10.196 -0.5420 -0.5275  0.5266
  185SAPI   H2X21190   0.689   5.861  10.161  0.8125  0.8060  0.2229
  185SAPI   H2Y21191   0.740   5.686  10.162 -0.0118 -0.8497  1.0726
  185SAPI   C2321192   0.399   6.158  10.285 -0.5285 -0.2906  0.4528
  185SAPI   H3R21193   0.468   6.139  10.200  2.0947  3.7772  1.3778
  185SAPI   H3S21194   0.443   6.255  10.316 -0.9976 -0.3624  1.3918
  185SAPI   C2421195   0.255   6.193  10.229  0.7793 -0.3396  1.0171
  185SAPI   H4R21196   0.255   6.291  10.176  1.4256 -1.1108 -0.4782
  185SAPI   H4S21197   0.192   6.197  10.320 -1.4291 -0.7687 -0.4220
  185SAPI   C2521198   0.184   6.088  10.146  0.0234  0.6215  0.1533
  185SAPI   H5R21199   0.137   6.008  10.204  0.4795  1.4487  1.7122
  185SAPI   C2621200   0.164   6.094  10.013 -0.5087  0.1191  0.6738
  185SAPI   H6R21201   0.123   6.010   9.955 -0.3327 -0.0972  0.8605
  185SAPI   C2721202   0.219   6.203   9.922 -0.0704 -1.0540  0.7241
  185SAPI   H7R21203   0.276   6.177   9.830 -0.1685  1.7452 -0.2401
  185SAPI   H7S21204   0.308   6.251   9.968  1.1070 -1.9382 -0.5497
  185SAPI   C2821205   0.105   6.294   9.891 -0.1273  0.5670 -0.6951
  185SAPI   H8R21206   0.041   6.319   9.976 -0.2652 -0.3609 -0.5120
  185SAPI   C2921207   0.061   6.331   9.768 -0.1787 -0.1254  0.1727
  185SAPI   H9R21208  -0.017   6.408   9.771  1.4968  1.6186  1.2816
  185SAPI  C21021209   0.123   6.295   9.636  0.1244 -0.9077 -0.5561
  185SAPI  H10R21210   0.171   6.195   9.644 -1.0428 -1.4619 -0.2905
  185SAPI  H10S21211   0.200   6.372   9.617  0.0440 -0.4288  0.8789
  185SAPI  C21121212   0.010   6.291   9.536 -0.0088 -0.4842 -1.2066
  185SAPI  H11R21213  -0.086   6.276   9.588  0.2958  0.3001 -0.3924
  185SAPI  C21221214   0.025   6.294   9.407  0.3900 -0.8098  0.2751
  185SAPI  H12R21215  -0.068   6.301   9.349  0.0105  0.4628  0.9783
  185SAPI  C21321216   0.158   6.321   9.338  0.0074  0.3656 -0.6052
  185SAPI  H13R21217   0.239   6.263   9.388  0.4468  1.2999 -0.2096
  185SAPI  H13S21218   0.178   6.429   9.349  0.8710  0.1113  0.5467
  185SAPI  C21421219   0.157   6.270   9.196  0.3100 -0.0927  0.5662
  185SAPI  H14R21220   0.194   6.166   9.188 -0.9241 -0.4033 -2.5123
  185SAPI  C21521221   0.128   6.346   9.091  0.8850  0.1557  0.4195
  185SAPI  H15R21222   0.132   6.289   8.997  1.7986  0.7399  0.0884
  185SAPI  C21621223   0.098   6.494   9.077 -0.6861  1.1748  0.7238
  185SAPI  H16R21224   0.061   6.542   9.170  1.0382 -0.0241  2.0996
  185SAPI  H16S21225   0.017   6.510   9.004 -1.1455 -0.2521  0.8851
  185SAPI  C21721226   0.213   6.576   9.009  0.1184  0.2779  0.0413
  185SAPI  H17R21227   0.240   6.527   8.913  1.1354  2.5090 -0.9107
  185SAPI  H17S21228   0.304   6.567   9.073  0.4819  1.7088 -0.2330
  185SAPI  C21821229   0.168   6.720   8.973 -0.5586  0.7249  0.0494
  185SAPI  H18R21230   0.256   6.765   8.921 -0.5834  0.3681 -0.3086
  185SAPI  H18S21231   0.144   6.779   9.063 -0.5900  0.3978  0.2567
  185SAPI  C21921232   0.065   6.732   8.861 -0.5999 -0.3460 -0.2397
  185SAPI  H19R21233  -0.038   6.729   8.903 -1.1998 -4.2406 -1.6493
  185SAPI  H19S21234   0.074   6.648   8.789  0.9725  0.7870 -1.4314
  185SAPI  C22021235   0.084   6.852   8.771 -0.8244 -0.1957 -0.1764
  185SAPI  H20R21236   0.177   6.851   8.710 -1.0882 -1.1023 -0.5777
  185SAPI  H20S21237   0.089   6.945   8.832  1.9895 -0.1120 -0.4230
  185SAPI  H20T21238  -0.003   6.849   8.703 -1.5148 -0.9003  0.7060
  185SAPI   C3321239   0.916   5.828  10.160  0.0036  1.2539 -0.3442
  185SAPI   H3X21240   0.988   5.785  10.232  0.0520  1.6401 -0.1594
  185SAPI   H3Y21241   0.938   5.932  10.194 -0.2480  1.8478 -1.8970
  185SAPI   C3421242   0.952   5.805  10.012 -0.2453 -0.5469 -1.0617
  185SAPI   H4X21243   0.971   5.699   9.985  1.1744 -0.7879  0.6437
  185SAPI   H4Y21244   1.047   5.862  10.001 -0.3163 -0.4580 -1.2031
  185SAPI   C3521245   0.854   5.852   9.904 -0.4990 -0.5641 -0.6237
  185SAPI   H5X21246   0.829   5.954   9.939  0.8483 -1.5019  3.8172
  185SAPI   H5Y21247   0.777   5.772   9.913  1.5636 -2.6504 -0.5355
  185SAPI   C3621248   0.931   5.854   9.769  0.8391  1.0577  0.4350
  185SAPI   H6X21249   0.971   5.751   9.753 -1.6281 -0.2618  2.0551
  185SAPI   H6Y21250   1.019   5.919   9.782  2.8783 -1.5204  0.3915
  185SAPI   C3721251   0.841   5.886   9.648 -0.2741 -0.2961  0.4526
  185SAPI   H7X21252   0.826   5.995   9.638 -1.1466 -0.3710  0.7866
  185SAPI   H7Y21253   0.741   5.838   9.662 -0.3949 -0.2278 -0.1481
  185SAPI   C3821254   0.913   5.841   9.522  0.1752 -0.0012 -0.5732
  185SAPI   H8X21255   0.964   5.744   9.539  0.6721  0.5713  1.5132
  185SAPI   H8Y21256   1.002   5.905   9.500  1.0592 -1.5073 -1.6180
  185SAPI   C3921257   0.822   5.825   9.407  0.7835 -0.9722 -0.2174
  185SAPI   H9X21258   0.777   5.927   9.396  1.1875 -0.9778 -2.1714
  185SAPI   H9Y21259   0.730   5.763   9.420  0.3346 -0.0268  1.4598
  185SAPI  C31021260   0.900   5.787   9.282  0.2229  0.0975 -0.7454
  185SAPI  H10X21261   0.936   5.682   9.283 -0.5385 -0.1702 -0.6940
  185SAPI  H10Y21262   0.989   5.853   9.278 -1.0063  1.7984 -1.8596
  185SAPI  C31121263   0.829   5.818   9.151  0.3059 -0.1949  0.3178
  185SAPI  H11X21264   0.795   5.923   9.138  1.5906  0.0253 -1.7297
  185SAPI  H11Y21265   0.737   5.756   9.147 -1.1894  1.9722 -1.5219
  185SAPI  C31221266   0.901   5.768   9.019 -0.5751 -0.5992 -0.3440
  185SAPI  H12X21267   0.900   5.657   9.026  1.0012 -0.6814 -1.0180
  185SAPI  H12Y21268   1.000   5.818   9.032  0.3538 -2.5895  0.7598
  185SAPI  C31321269   0.828   5.821   8.890 -0.6302  0.0438  0.1524
  185SAPI  H13X21270   0.853   5.928   8.875  1.5483 -0.4327  0.1309
  185SAPI  H13Y21271   0.717   5.821   8.900 -0.5208  1.0130  1.7734
  185SAPI  C31421272   0.869   5.751   8.761 -0.0091 -0.1388 -0.4865
  185SAPI  H14X21273   0.832   5.647   8.767  2.0496 -0.8826  0.1281
  185SAPI  H14Y21274   0.979   5.741   8.749 -0.2123 -2.6569 -0.7646
  185SAPI  C31521275   0.812   5.804   8.630  0.2721  0.2995 -0.1109
  185SAPI  H15X21276   0.702   5.819   8.629  0.3098  1.5019 -3.9146
  185SAPI  H15Y21277   0.831   5.740   8.541 -2.1021  0.2887 -0.6765
  185SAPI  C31621278   0.867   5.948   8.596 -0.3262 -0.1164  0.2817
  185SAPI  H16X21279   0.977   5.934   8.606 -0.1286  1.6226  0.9156
  185SAPI  H16Y21280   0.832   6.020   8.674  1.0560  0.0672  0.7699
  185SAPI  C31721281   0.841   6.007   8.454 -0.1514  0.4404  0.2909
  185SAPI  H17X21282   0.894   6.105   8.448  2.9425 -1.0651  0.8291
  185SAPI  H17Y21283   0.731   6.022   8.451 -0.3407 -0.9296 -0.3068
  185SAPI  C31821284   0.889   5.924   8.338  0.1078 -0.6776  0.1348
  185SAPI  H18X21285   0.991   5.888   8.363  0.1065 -0.8387 -0.0875
  185SAPI  H18Y21286   0.897   5.974   8.239  0.9364 -1.3033 -0.1270
  185SAPI  H18Z21287   0.827   5.831   8.334  0.2600 -0.8003  0.5544
  186SAPI   C1221288   1.197   3.428  10.782  0.4563  0.4541 -0.6164
  186SAPI    H221289   1.233   3.533  10.789  0.5855  0.3621  0.1913
  186SAPI    O221290   1.238   3.367  10.907  0.2664  0.0667 -0.2489
  186SAPI   HO221291   1.321   3.321  10.900 -0.0878 -0.4018 -1.8139
  186SAPI   C1321292   1.044   3.444  10.769  0.4867  0.0888  0.2982
  186SAPI    H321293   1.017   3.512  10.686 -2.6265 -1.1045  0.1712
  186SAPI    O321294   0.991   3.508  10.889  0.0443 -0.2702 -0.9222
  186SAPI   HO321295   1.038   3.482  10.969 -3.1767 -1.7428  0.6953
  186SAPI   C1421296   0.974   3.309  10.761 -0.6125  0.1019  0.0889
  186SAPI    H421297   1.003   3.259  10.856  3.0115  0.3935 -0.6954
  186SAPI    O421298   0.831   3.311  10.749 -0.4731  0.2216  0.7941
  186SAPI   HO421299   0.798   3.243  10.808 -1.4759  1.4196  1.6928
  186SAPI   C1521300   1.035   3.225  10.656 -0.2666 -0.6641  0.0299
  186SAPI    H521301   1.013   3.271  10.557 -0.1838  0.8760  0.7032
  186SAPI    O521302   0.973   3.091  10.655  0.0580  0.2783 -0.6950
  186SAPI   HO521303   0.906   3.099  10.587 -2.2149  1.6002  1.5393
  186SAPI   C1621304   1.190   3.212  10.660 -0.1773  0.2395 -0.6323
  186SAPI    H621305   1.219   3.160  10.753 -1.3467  0.7741  0.0516
  186SAPI    O621306   1.249   3.149  10.543  0.3046  0.0924 -1.2248
  186SAPI   HO621307   1.342   3.175  10.541 -0.1457  1.8960 -0.4492
  186SAPI   C1121308   1.254   3.344  10.664 -0.5671  0.4998 -0.3775
  186SAPI    H121309   1.222   3.402  10.575 -2.4145  3.7026  2.1219
  186SAPI     P21310   1.503   3.446  10.638 -0.3365  0.2831 -0.5691
  186SAPI   O1321311   1.635   3.397  10.702  0.5117 -0.5052  0.4009
  186SAPI   O1421312   1.447   3.570  10.691  0.4216 -0.1887  0.2965
  186SAPI   O1221313   1.397   3.331  10.681 -0.0106 -0.1967 -0.0418
  186SAPI   O1121314   1.511   3.441  10.477 -0.1042  0.7329  0.2021
  186SAPI    C121315   1.558   3.317  10.416 -0.1089 -0.1663  0.2330
  186SAPI    HA21316   1.659   3.285  10.450 -0.2141  0.1870  0.9052
  186SAPI    HB21317   1.487   3.234  10.433  0.2172 -0.9443 -1.9801
  186SAPI    C221318   1.560   3.329  10.266 -0.2025  0.3519  0.1470
  186SAPI    HS21319   1.583   3.433  10.238  1.4604  0.4800  1.8491
  186SAPI   O2121320   1.441   3.273  10.212 -0.3825  0.1107  0.6994
  186SAPI   C2121321   1.340   3.366  10.198  0.4604  0.5844  0.5629
  186SAPI   O2221322   1.360   3.482  10.184  0.2876  0.6388  0.0506
  186SAPI   C2221323   1.203   3.297  10.198 -0.4394 -0.0587 -0.1333
  186SAPI   H2R21324   1.204   3.200  10.143 -1.7952  0.9137 -1.9904
  186SAPI   H2S21325   1.169   3.281  10.303 -0.4277 -1.2230 -0.2964
  186SAPI    C321326   1.676   3.245  10.203  0.0623 -0.2842  0.1317
  186SAPI    HX21327   1.681   3.139  10.237  1.2329 -0.4035 -0.3848
  186SAPI    HY21328   1.771   3.294  10.233 -1.4461  3.5187 -0.6781
  186SAPI   O3121329   1.664   3.249  10.063  0.5753 -0.2235  0.3378
  186SAPI   C3121330   1.708   3.353   9.998 -0.6870  0.2684 -0.0653
  186SAPI   O3221331   1.779   3.445  10.037  0.1547  0.3385 -0.3502
  186SAPI   C3221332   1.668   3.333   9.848 -0.2496 -0.0481 -0.0721
  186SAPI   H2X21333   1.563   3.298   9.849 -0.5942  0.9799 -0.0536
  186SAPI   H2Y21334   1.729   3.246   9.815 -0.6076 -1.2158  2.1095
  186SAPI   C2321335   1.090   3.384  10.133 -0.5113 -0.7662  0.4672
  186SAPI   H3R21336   1.127   3.431  10.039  1.3262 -0.4579  1.3017
  186SAPI   H3S21337   1.058   3.459  10.209  1.0331 -0.5470  0.9322
  186SAPI   C2421338   0.965   3.300  10.094  0.0581 -0.4195 -0.3060
  186SAPI   H4R21339   0.998   3.239  10.006  0.1958 -1.4017  0.4084
  186SAPI   H4S21340   0.897   3.378  10.054  2.0935  1.1094 -0.9458
  186SAPI   C2521341   0.899   3.219  10.215 -0.3884  0.0369 -0.1281
  186SAPI   H5R21342   0.860   3.292  10.288 -1.0663 -2.0883  1.7381
  186SAPI   C2621343   0.899   3.087  10.241 -0.0802 -0.1863 -0.0865
  186SAPI   H6R21344   0.859   3.054  10.338  1.1417  2.4923  1.4692
  186SAPI   C2721345   0.938   2.992  10.130  0.5543  0.6083  0.0707
  186SAPI   H7R21346   1.025   2.930  10.159  2.4819  2.0213 -2.2849
  186SAPI   H7S21347   0.995   3.044  10.050 -0.7130  0.5853 -0.8799
  186SAPI   C2821348   0.825   2.908  10.076  0.1146 -0.0766  0.4444
  186SAPI   H8R21349   0.801   2.813  10.125 -1.3326 -1.0212 -1.9293
  186SAPI   C2921350   0.743   2.952   9.973  0.5782  0.3785 -0.3066
  186SAPI   H9R21351   0.666   2.876   9.952  0.4336  0.9053 -1.7997
  186SAPI  C21021352   0.740   3.077   9.893 -0.8619 -0.0338 -1.0349
  186SAPI  H10R21353   0.826   3.145   9.912 -0.5282 -0.7503  0.0882
  186SAPI  H10S21354   0.659   3.140   9.935 -1.6929 -0.9158 -1.3032
  186SAPI  C21121355   0.708   3.052   9.753  0.2838 -0.4418  1.4647
  186SAPI  H11R21356   0.603   3.025   9.736  0.8476 -2.3142  0.6948
  186SAPI  C21221357   0.790   3.032   9.644 -0.3744  0.6591  0.1908
  186SAPI  H12R21358   0.749   3.006   9.545  0.1921  1.8055 -0.3724
  186SAPI  C21321359   0.938   3.035   9.637 -0.4293  0.0175  0.4114
  186SAPI  H13R21360   0.971   2.958   9.563 -1.8572  1.9008 -2.3370
  186SAPI  H13S21361   0.973   3.001   9.737  0.2076 -1.0026 -0.1306
  186SAPI  C21421362   0.996   3.162   9.592 -0.7354  0.0285 -0.1601
  186SAPI  H14R21363   1.020   3.236   9.669 -0.2716 -0.8150  0.5255
  186SAPI  C21521364   1.023   3.190   9.464  0.3306  0.0902 -0.0324
  186SAPI  H15R21365   1.077   3.284   9.443 -2.2294  1.6540 -0.0255
  186SAPI  C21621366   0.993   3.110   9.341 -0.1264  0.0816 -0.5054
  186SAPI  H16R21367   0.894   3.135   9.298 -1.5501 -0.1141  2.3518
  186SAPI  H16S21368   0.989   3.000   9.358  2.0447  0.0123 -0.0819
  186SAPI  C21721369   1.099   3.138   9.234  0.1556 -0.5772 -0.1216
  186SAPI  H17R21370   1.196   3.105   9.275 -0.6584 -1.3379  1.2500
  186SAPI  H17S21371   1.109   3.247   9.217 -1.7384 -0.1840  0.9787
  186SAPI  C21821372   1.077   3.067   9.106  0.7445  0.6693  0.1366
  186SAPI  H18R21373   1.057   2.960   9.129  1.4786  0.0476 -1.8887
  186SAPI  H18S21374   1.170   3.058   9.046 -0.1237 -1.7068 -0.9856
  186SAPI  C21921375   0.962   3.123   9.023  0.6626  0.3917  0.3379
  186SAPI  H19R21376   0.960   3.232   9.041 -0.3118  0.3722  0.4140
  186SAPI  H19S21377   0.859   3.096   9.055  0.4596  0.6243 -0.1114
  186SAPI  C22021378   0.978   3.086   8.877 -0.4780 -1.3756  0.5983
  186SAPI  H20R21379   0.982   2.976   8.862 -0.2619 -1.1154 -1.4948
  186SAPI  H20S21380   1.073   3.128   8.836 -1.6827  0.8281 -0.0862
  186SAPI  H20T21381   0.909   3.143   8.812  1.8972  2.3347  1.0336
  186SAPI   C3321382   1.692   3.453   9.762  0.1579  0.4297 -0.3107
  186SAPI   H3X21383   1.790   3.503   9.776 -0.4783  2.2161 -1.9143
  186SAPI   H3Y21384   1.625   3.539   9.784 -2.5014 -1.6793  0.3322
  186SAPI   C3421385   1.688   3.398   9.619  0.2200 -0.4638 -0.1780
  186SAPI   H4X21386   1.594   3.344   9.595 -0.6306  0.4038  1.0593
  186SAPI   H4Y21387   1.771   3.326   9.599  0.1533 -0.3629 -0.8061
  186SAPI   C3521388   1.698   3.519   9.519  0.2741  0.0350  0.0532
  186SAPI   H5X21389   1.800   3.564   9.525  0.6918 -0.8955  0.1290
  186SAPI   H5Y21390   1.642   3.602   9.568  2.3614  1.2435  0.5195
  186SAPI   C3621391   1.650   3.499   9.371  1.2050 -0.0575 -0.1254
  186SAPI   H6X21392   1.635   3.596   9.318 -2.2448 -0.3899 -0.0219
  186SAPI   H6Y21393   1.551   3.450   9.382 -0.0395  2.2900 -0.0892
  186SAPI   C3721394   1.750   3.419   9.289  0.4872 -0.0920  0.2268
  186SAPI   H7X21395   1.771   3.317   9.330 -2.4482 -1.4850 -1.4098
  186SAPI   H7Y21396   1.847   3.471   9.273  0.4310 -0.1182 -0.1880
  186SAPI   C3821397   1.703   3.382   9.155 -0.3321  0.1639  0.0947
  186SAPI   H8X21398   1.655   3.467   9.102 -1.7690 -0.6079  0.1181
  186SAPI   H8Y21399   1.628   3.303   9.172 -0.8536  0.7171  0.3821
  186SAPI   C3921400   1.818   3.321   9.065  0.0537  0.0241 -0.3817
  186SAPI   H9X21401   1.873   3.249   9.129  0.8290 -0.5810 -1.6886
  186SAPI   H9Y21402   1.895   3.393   9.029  0.7587  0.2282  1.4178
  186SAPI  C31021403   1.765   3.223   8.953  0.4440 -0.7599 -0.4602
  186SAPI  H10X21404   1.706   3.286   8.882 -2.5951 -2.4793  0.3277
  186SAPI  H10Y21405   1.687   3.155   8.995  1.2183 -0.9353  0.7403
  186SAPI  C31121406   1.869   3.150   8.868  0.2757 -0.8737 -0.4945
  186SAPI  H11X21407   1.934   3.083   8.928  0.6428 -1.2832 -1.3359
  186SAPI  H11Y21408   1.930   3.221   8.809 -1.6269  0.6479 -0.7344
  186SAPI  C31221409   1.797   3.053   8.770  0.5120 -0.3148 -0.1759
  186SAPI  H12X21410   1.727   3.117   8.712  0.2443 -0.7364 -0.3240
  186SAPI  H12Y21411   1.727   2.981   8.818 -0.2054  0.0759 -0.6198
  186SAPI  C31321412   1.900   2.978   8.691  0.2556 -0.1619  0.0195
  186SAPI  H13X21413   1.951   2.904   8.755  0.6889  0.7928  0.8087
  186SAPI  H13Y21414   1.984   3.043   8.660  0.2943  0.5953  1.6333
  186SAPI  C31421415   1.829   2.917   8.568 -0.2898  0.2524 -0.3229
  186SAPI  H14X21416   1.833   2.999   8.492 -0.8798  0.1484 -0.4674
  186SAPI  H14Y21417   1.726   2.891   8.598  0.7270 -1.1537  2.2837
  186SAPI  C31521418   1.903   2.792   8.520  0.0735  0.1706  0.3583
  186SAPI  H15X21419   1.877   2.696   8.571  3.7058 -1.5569 -0.7194
  186SAPI  H15Y21420   2.011   2.783   8.542 -0.0790 -0.1255  0.9945
  186SAPI  C31621421   1.882   2.761   8.370 -0.2713  0.2917 -0.0893
  186SAPI  H16X21422   1.953   2.826   8.314 -0.0329 -1.6306 -2.1579
  186SAPI  H16Y21423   1.776   2.779   8.340 -0.3479  0.6306  0.3745
  186SAPI  C31721424   1.917   2.619   8.336  0.2267 -0.0429  0.3956
  186SAPI  H17X21425   1.845   2.550   8.387 -0.4300 -0.6668 -1.2975
  186SAPI  H17Y21426   2.016   2.587   8.375 -0.3559 -1.5907  0.6858
  186SAPI  C31821427   1.901   2.611   8.182  0.0336 -0.1837  0.1633
  186SAPI  H18X21428   1.913   2.505   8.152  1.7440  0.6050 -2.1768
  186SAPI  H18Y21429   1.965   2.679   8.122 -0.2806  0.0737  0.1182
  186SAPI  H18Z21430   1.799   2.633   8.144  0.1962 -1.1241 -0.8428
  187SAPI   C1221431   3.867   5.170   6.084  0.6470  0.3548 -0.1235
  187SAPI    H221432   3.813   5.254   6.134 -1.8744 -0.5566 -1.1262
  187SAPI    O221433   3.767   5.085   6.026  0.9609 -0.2277 -0.1676
  187SAPI   HO221434   3.705   5.054   6.092 -0.0939 -2.0681 -1.9110
  187SAPI   C1321435   3.961   5.228   5.984  0.0995  1.0426 -0.2906
  187SAPI    H321436   4.031   5.281   6.052  0.3879 -0.3887  0.5878
  187SAPI    O321437   3.903   5.322   5.895 -0.1755  0.2918 -0.1011
  187SAPI   HO321438   3.818   5.289   5.865 -0.6416  0.9260  0.4935
  187SAPI   C1421439   4.041   5.116   5.909 -0.1455 -0.4914 -0.5072
  187SAPI    H421440   3.976   5.038   5.863  1.5459 -1.0099 -2.1414
  187SAPI    O421441   4.129   5.163   5.811 -0.3344  0.1484 -0.0669
  187SAPI   HO421442   4.093   5.126   5.730 -0.6110 -1.2822  0.6794
  187SAPI   C1521443   4.118   5.024   6.008 -0.2025 -0.9959 -0.5767
  187SAPI    H521444   4.189   5.096   6.055 -2.8463  1.6761 -0.3722
  187SAPI    O521445   4.197   4.921   5.946 -0.1430 -0.2063 -0.3907
  187SAPI   HO521446   4.264   4.882   6.003 -2.0915 -0.7029  1.7130
  187SAPI   C1621447   4.031   4.981   6.124 -0.1454 -0.1628 -0.4543
  187SAPI    H621448   3.952   4.916   6.079 -1.5657  0.8807  0.4512
  187SAPI    O621449   4.114   4.907   6.213 -0.2378 -0.3935  0.5195
  187SAPI   HO621450   4.054   4.860   6.272 -0.8241  1.9665  1.9523
  187SAPI   C1121451   3.948   5.093   6.190 -0.1671 -0.0117 -0.0535
  187SAPI    H121452   4.035   5.149   6.231 -0.4991  0.6764 -0.2734
  187SAPI     P21453   3.820   5.151   6.413 -0.3953  0.1783 -0.1958
  187SAPI   O1321454   3.671   5.130   6.438  0.0324  0.2459 -0.0294
  187SAPI   O1421455   3.852   5.288   6.374  0.0900  0.0342 -0.2713
  187SAPI   O1221456   3.862   5.044   6.292  0.4175 -0.0808  0.1230
  187SAPI   O1121457   3.917   5.101   6.534 -0.5172 -0.3101  0.4791
  187SAPI    C121458   4.062   5.117   6.529 -0.0930  0.3941  0.3637
  187SAPI    HA21459   4.109   5.026   6.486 -0.8282 -1.0293  2.4147
  187SAPI    HB21460   4.089   5.191   6.452  0.8078  0.6185  0.8836
  187SAPI    C221461   4.134   5.183   6.656 -0.0201  0.3828  0.1004
  187SAPI    HS21462   4.243   5.173   6.640  0.2669  4.2678 -1.3200
  187SAPI   O2121463   4.095   5.122   6.780 -0.1386  0.0813  0.1368
  187SAPI   C2121464   4.117   4.996   6.801  0.0808  0.1270 -0.2082
  187SAPI   O2221465   4.169   4.918   6.727  0.4363 -0.5391 -0.1760
  187SAPI   C2221466   4.067   4.959   6.935 -0.5262  0.5742 -0.2057
  187SAPI   H2R21467   4.091   5.041   7.006  1.3121 -1.2379  1.3943
  187SAPI   H2S21468   3.959   4.933   6.927 -1.0330  2.3508  0.4830
  187SAPI    C321469   4.100   5.330   6.669 -0.0415 -0.7280 -0.1777
  187SAPI    HX21470   3.989   5.335   6.660 -0.0657 -0.7745  0.1026
  187SAPI    HY21471   4.152   5.374   6.581  2.7758  0.6844  2.0397
  187SAPI   O3121472   4.171   5.390   6.778 -0.2125  0.2644 -0.2736
  187SAPI   C3121473   4.099   5.473   6.854  0.0390 -0.1506 -0.3314
  187SAPI   O3221474   3.978   5.502   6.843 -0.1365 -0.3406 -0.3554
  187SAPI   C3221475   4.203   5.539   6.952  0.6772  1.0196  0.7410
  187SAPI   H2X21476   4.266   5.602   6.886  1.2868 -0.3155  0.0044
  187SAPI   H2Y21477   4.256   5.454   7.001 -0.9291 -0.9335 -0.7171
  187SAPI   C2321478   4.145   4.839   6.998 -0.3697 -0.5462  0.2752
  187SAPI   H3R21479   4.250   4.874   6.985 -0.0783 -1.5721 -0.2367
  187SAPI   H3S21480   4.144   4.742   6.943 -0.8997 -0.0312 -0.6458
  187SAPI   C2421481   4.120   4.816   7.142  0.0328  0.4201 -0.3112
  187SAPI   H4R21482   4.191   4.732   7.159  0.3531  0.1304 -2.7593
  187SAPI   H4S21483   4.016   4.780   7.157 -0.2782  1.6852  0.7659
  187SAPI   C2521484   4.144   4.934   7.235 -0.5154  0.2112  0.4206
  187SAPI   H5R21485   4.119   5.038   7.207 -1.9835  0.3628  2.0611
  187SAPI   C2621486   4.175   4.911   7.368  0.5311 -0.1329  0.2281
  187SAPI   H6R21487   4.185   4.994   7.440 -0.2460 -0.0906  0.2950
  187SAPI   C2721488   4.189   4.768   7.430 -0.3724  0.1494 -0.0641
  187SAPI   H7R21489   4.267   4.760   7.509 -0.1467 -1.9352 -0.4341
  187SAPI   H7S21490   4.243   4.700   7.360  1.1251  1.5525 -0.3530
  187SAPI   C2821491   4.061   4.700   7.461  0.4164 -0.0782 -0.1469
  187SAPI   H8R21492   3.987   4.708   7.380 -2.4611 -0.9260  2.2411
  187SAPI   C2921493   4.015   4.632   7.570 -0.2565  0.3759  0.0447
  187SAPI   H9R21494   3.920   4.576   7.559 -0.1095  0.1523 -0.1093
  187SAPI  C21021495   4.103   4.607   7.689  0.5624 -0.1439  0.3835
  187SAPI  H10R21496   4.036   4.636   7.773 -2.8591 -0.6918 -1.9623
  187SAPI  H10S21497   4.195   4.670   7.692  1.6189 -1.6786  1.6246
  187SAPI  C21121498   4.137   4.460   7.713  0.1245  0.5206 -0.3319
  187SAPI  H11R21499   4.057   4.389   7.686  0.8470 -1.8304  3.0250
  187SAPI  C21221500   4.250   4.403   7.759 -0.2702 -0.2765  0.3352
  187SAPI  H12R21501   4.258   4.296   7.784 -0.6303 -0.3740  0.0338
  187SAPI  C21321502   4.374   4.477   7.803  0.0348 -0.6059 -0.1261
  187SAPI  H13R21503   4.378   4.468   7.913  2.6700  2.0498  0.1211
  187SAPI  H13S21504   4.365   4.587   7.784  1.5273 -0.3652  0.4018
  187SAPI  C21421505   4.500   4.421   7.742 -0.1158 -0.2061  0.3972
  187SAPI  H14R21506   4.496   4.351   7.657  0.4292 -0.5139  0.6224
  187SAPI  C21521507   4.628   4.456   7.769 -0.4097 -0.4481  0.2074
  187SAPI  H15R21508   4.702   4.406   7.706  0.0071 -1.0628  1.1690
  187SAPI  C21621509   4.679   4.558   7.866 -0.8186  0.2588 -0.4539
  187SAPI  H16R21510   4.779   4.523   7.900  0.2770  1.3583 -2.3138
  187SAPI  H16S21511   4.603   4.571   7.945 -0.8944  1.6741 -0.7276
  187SAPI  C21721512   4.691   4.687   7.779  0.0938  0.4801 -0.5973
  187SAPI  H17R21513   4.593   4.710   7.732  0.0395  2.5991  0.3944
  187SAPI  H17S21514   4.760   4.665   7.695  1.3110 -0.2551  0.5544
  187SAPI  C21821515   4.735   4.810   7.862  0.7679  0.4050  0.5980
  187SAPI  H18R21516   4.750   4.891   7.787 -1.7125  0.3622 -0.0340
  187SAPI  H18S21517   4.836   4.797   7.906  0.9678 -0.3910 -0.0813
  187SAPI  C21921518   4.635   4.858   7.963  0.5519 -0.0433 -0.0397
  187SAPI  H19R21519   4.609   4.767   8.022 -1.4971  1.4017  1.4233
  187SAPI  H19S21520   4.544   4.878   7.903  1.1489  1.8673 -0.3825
  187SAPI  C22021521   4.683   4.969   8.048  0.0756 -0.9125 -0.4078
  187SAPI  H20R21522   4.780   4.942   8.094  1.0359  0.8262 -1.3281
  187SAPI  H20S21523   4.610   5.017   8.117 -0.1140 -1.5026 -0.1862
  187SAPI  H20T21524   4.712   5.053   7.981  1.2268  0.8815  2.1678
  187SAPI   C3321525   4.134   5.618   7.072  1.2355 -0.2832  0.4337
  187SAPI   H3X21526   4.054   5.556   7.118 -1.0749  2.4316  0.3974
  187SAPI   H3Y21527   4.091   5.717   7.044  1.2404 -0.1971  0.7239
  187SAPI   C3421528   4.228   5.652   7.189 -0.6025 -0.5207  0.6452
  187SAPI   H4X21529   4.320   5.699   7.147 -0.8966  0.5771  1.1815
  187SAPI   H4Y21530   4.251   5.551   7.228  0.0437 -0.3999  0.5986
  187SAPI   C3521531   4.186   5.737   7.304  0.2519 -0.8376  0.2216
  187SAPI   H5X21532   4.090   5.701   7.345 -0.3870  0.4000 -0.1592
  187SAPI   H5Y21533   4.162   5.836   7.261 -0.6371 -0.1623  2.1909
  187SAPI   C3621534   4.286   5.784   7.413 -0.0284  0.0405 -0.2979
  187SAPI   H6X21535   4.232   5.832   7.497  1.6749  0.4487  0.6149
  187SAPI   H6Y21536   4.366   5.848   7.369 -0.1942  0.0001 -0.6637
  187SAPI   C3721537   4.356   5.664   7.482 -0.2716  0.4764 -0.1443
  187SAPI   H7X21538   4.432   5.636   7.407 -2.3790  0.5253 -2.4109
  187SAPI   H7Y21539   4.277   5.590   7.506 -1.4972  2.5380  2.8993
  187SAPI   C3821540   4.432   5.709   7.612  0.3482  0.0299  0.6734
  187SAPI   H8X21541   4.353   5.713   7.690  1.2861  2.7187  1.5955
  187SAPI   H8Y21542   4.474   5.811   7.596 -1.3327  1.0010  2.0952
  187SAPI   C3921543   4.528   5.606   7.650 -0.2088 -0.3059 -0.1003
  187SAPI   H9X21544   4.614   5.636   7.714 -2.2917  1.0909  2.2569
  187SAPI   H9Y21545   4.544   5.561   7.550 -1.3073  2.6326 -1.7332
  187SAPI  C31021546   4.461   5.493   7.739  0.4237 -1.3684 -0.0362
  187SAPI  H10X21547   4.396   5.429   7.677  1.6561 -1.4937 -1.2455
  187SAPI  H10Y21548   4.399   5.544   7.816  1.8303  0.1290  0.1869
  187SAPI  C31121549   4.560   5.397   7.802 -0.3233  0.6965  0.5954
  187SAPI  H11X21550   4.643   5.454   7.848  0.2641  0.2316  0.1177
  187SAPI  H11Y21551   4.587   5.324   7.723 -2.0180 -0.0732  0.6693
  187SAPI  C31221552   4.495   5.309   7.909 -0.1494 -0.3794  0.3339
  187SAPI  H12X21553   4.455   5.360   8.000 -2.1631  0.6868 -1.0380
  187SAPI  H12Y21554   4.564   5.233   7.950  0.1380  0.0040  0.5658
  187SAPI  C31321555   4.378   5.221   7.853  0.4418  1.5198  0.0294
  187SAPI  H13X21556   4.423   5.139   7.794 -0.9595  1.9863 -1.8284
  187SAPI  H13Y21557   4.303   5.272   7.787 -0.8839 -1.9118 -1.3721
  187SAPI  C31421558   4.314   5.149   7.976  0.8753  0.0681 -0.4025
  187SAPI  H14X21559   4.293   5.222   8.057 -1.0328 -1.9967  1.0800
  187SAPI  H14Y21560   4.396   5.089   8.018  1.0492  0.4998 -0.1148
  187SAPI  C31521561   4.193   5.058   7.947 -0.0003 -0.2066  0.4486
  187SAPI  H15X21562   4.166   5.021   8.048  2.1890 -0.4227  1.0028
  187SAPI  H15Y21563   4.228   4.974   7.884  1.7418  2.5296 -2.5672
  187SAPI  C31621564   4.076   5.141   7.894 -0.0603 -0.4705 -0.1940
  187SAPI  H16X21565   4.084   5.159   7.785 -1.4763  0.6690 -0.1324
  187SAPI  H16Y21566   4.081   5.244   7.935 -0.4361  0.0586 -1.4599
  187SAPI  C31721567   3.939   5.068   7.911 -0.4992  0.5862 -0.1678
  187SAPI  H17X21568   3.866   5.139   7.869  0.6102  0.6095 -2.1476
  187SAPI  H17Y21569   3.927   5.042   8.019 -0.0578  0.5417 -0.1281
  187SAPI  C31821570   3.922   4.950   7.816 -0.4749 -0.1225  0.0244
  187SAPI  H18X21571   3.815   4.926   7.797 -0.1846  0.0932 -2.1169
  187SAPI  H18Y21572   3.968   4.857   7.857  0.1807  0.6225  1.0295
  187SAPI  H18Z21573   3.952   4.983   7.714 -0.5368 -0.5530 -0.1377
  188SAPI   C1221574   6.527   1.964   5.912  0.2800  0.8830  0.1817
  188SAPI    H221575   6.493   1.869   5.866  0.1368  0.0458  1.9260
  188SAPI    O221576   6.648   1.944   5.981  0.6096  0.2228  0.0742
  188SAPI   HO221577   6.628   1.908   6.068 -0.5545 -2.8676 -1.3255
  188SAPI   C1321578   6.548   2.072   5.796  0.5678 -0.3796  0.5496
  188SAPI    H321579   6.451   2.079   5.743  0.7591 -2.5610 -0.2236
  188SAPI    O321580   6.639   2.029   5.698 -0.0409  0.0047  0.3408
  188SAPI   HO321581   6.727   2.037   5.734  0.3304 -1.0539 -0.2882
  188SAPI   C1421582   6.597   2.202   5.856  0.3241  1.3460 -0.2395
  188SAPI    H421583   6.695   2.176   5.903  0.5362  0.2322 -1.2382
  188SAPI    O421584   6.621   2.305   5.754  0.4233  0.0621 -0.1368
  188SAPI   HO421585   6.700   2.355   5.775  0.5336  0.2447 -0.9600
  188SAPI   C1521586   6.491   2.246   5.956  0.1941 -0.9878  0.1291
  188SAPI    H521587   6.395   2.248   5.899  0.5018  0.7028 -0.3741
  188SAPI    O521588   6.528   2.374   6.009 -0.0859  0.1241  0.2570
  188SAPI   HO521589   6.614   2.367   6.051 -0.9777 -2.1852  1.9176
  188SAPI   C1621590   6.463   2.150   6.067 -0.2137 -0.1203  0.7044
  188SAPI    H621591   6.555   2.134   6.127  0.5165  0.5321 -0.2059
  188SAPI    O621592   6.357   2.203   6.156 -0.7270  0.0083  0.1952
  188SAPI   HO621593   6.329   2.134   6.217 -0.6433 -0.6729 -0.5157
  188SAPI   C1121594   6.415   2.013   6.003 -0.0769  0.6459  0.4499
  188SAPI    H121595   6.325   2.033   5.942 -1.0380 -1.3135  1.1480
  188SAPI     P21596   6.432   1.876   6.238  0.1090 -0.2521 -0.1603
  188SAPI   O1321597   6.581   1.894   6.234  0.2610  0.4028 -0.1498
  188SAPI   O1421598   6.386   1.736   6.257  0.4354 -0.4072  0.2483
  188SAPI   O1221599   6.366   1.916   6.093  0.1236 -0.3967 -0.6588
  188SAPI   O1121600   6.364   1.978   6.332  0.7313 -0.3115  1.1093
  188SAPI    C121601   6.406   2.000   6.462  0.4198 -0.2075 -0.0767
  188SAPI    HA21602   6.507   1.958   6.483  0.1854 -0.7729 -0.0457
  188SAPI    HB21603   6.410   2.109   6.478 -2.5890  0.1801 -1.3216
  188SAPI    C221604   6.297   1.948   6.561  0.5338 -0.4231  0.3514
  188SAPI    HS21605   6.285   1.844   6.522 -1.0276 -0.4793  0.9006
  188SAPI   O2121606   6.174   2.027   6.548  0.4068 -0.3991 -0.6029
  188SAPI   C2121607   6.065   1.963   6.604  0.4959 -0.8084 -0.7430
  188SAPI   O2221608   6.069   1.860   6.662  0.2340 -0.2044  0.1303
  188SAPI   C2221609   5.950   2.054   6.584 -0.0526  0.4465 -0.2141
  188SAPI   H2R21610   5.960   2.132   6.662 -0.5069 -0.3069  0.6159
  188SAPI   H2S21611   5.960   2.111   6.489  0.0412  1.5476  0.4424
  188SAPI    C321612   6.342   1.943   6.715  0.5407 -0.1162  0.0342
  188SAPI    HX21613   6.278   1.892   6.790 -0.9642  0.2984 -0.9015
  188SAPI    HY21614   6.341   2.051   6.741 -0.4769  0.5901 -2.6054
  188SAPI   O3121615   6.467   1.889   6.729  0.2197  0.5354 -0.2536
  188SAPI   C3121616   6.534   1.923   6.841  0.0176  0.4391  0.5182
  188SAPI   O3221617   6.494   1.990   6.931 -0.0918 -0.3023 -0.5936
  188SAPI   C3221618   6.669   1.868   6.826  0.0825 -0.6021 -0.4419
  188SAPI   H2X21619   6.738   1.941   6.779 -0.1137 -0.6513 -0.8085
  188SAPI   H2Y21620   6.670   1.776   6.764  0.1781  0.8595 -2.7068
  188SAPI   C2321621   5.811   1.986   6.593 -0.3811 -0.1924  0.3861
  188SAPI   H3R21622   5.815   1.896   6.528  1.2609  0.3590 -0.3346
  188SAPI   H3S21623   5.733   2.047   6.543  1.6058  0.0569 -2.7662
  188SAPI   C2421624   5.782   1.961   6.739  0.0970 -0.6729  0.1967
  188SAPI   H4R21625   5.857   1.889   6.778  0.0290 -2.6640 -2.9722
  188SAPI   H4S21626   5.689   1.901   6.732 -1.6888  2.1309 -3.0042
  188SAPI   C2521627   5.756   2.078   6.826  0.2990 -0.4577  0.0661
  188SAPI   H5R21628   5.673   2.140   6.789  2.3778  1.8057 -1.1398
  188SAPI   C2621629   5.819   2.110   6.936 -0.1541 -0.4317  0.2899
  188SAPI   H6R21630   5.795   2.210   6.974 -1.7848 -1.4833  2.2140
  188SAPI   C2721631   5.930   2.028   7.000 -0.4147  0.2498 -0.2677
  188SAPI   H7R21632   5.900   1.924   6.977 -1.6392  0.5213  0.0473
  188SAPI   H7S21633   5.916   2.034   7.110  2.9885 -2.4412  0.4993
  188SAPI   C2821634   6.070   2.044   6.966 -0.3368 -0.0397  0.4275
  188SAPI   H8R21635   6.085   2.115   6.883  0.8468  0.9203  1.4248
  188SAPI   C2921636   6.176   1.985   7.022  0.6039  0.4772  0.0325
  188SAPI   H9R21637   6.278   2.005   6.988  0.7107 -1.5877 -1.0231
  188SAPI  C21021638   6.167   1.892   7.140 -1.0083 -0.0242  0.6827
  188SAPI  H10R21639   6.099   1.811   7.105 -0.3468 -1.1736  1.9431
  188SAPI  H10S21640   6.117   1.946   7.223  1.1575  0.9753  1.4228
  188SAPI  C21121641   6.296   1.835   7.194  0.1739  0.0487  0.4838
  188SAPI  H11R21642   6.383   1.903   7.190 -1.3884  2.2854  1.8220
  188SAPI  C21221643   6.316   1.719   7.259 -0.3067 -0.2098  0.6882
  188SAPI  H12R21644   6.413   1.716   7.312  0.7142 -1.8401 -1.1108
  188SAPI  C21321645   6.214   1.618   7.291  0.5748 -0.1217  0.4506
  188SAPI  H13R21646   6.135   1.614   7.213 -0.2093  0.8424  1.1678
  188SAPI  H13S21647   6.158   1.659   7.378  3.2436  2.1679  1.2173
  188SAPI  C21421648   6.270   1.486   7.338  0.2437 -0.0004 -0.2817
  188SAPI  H14R21649   6.286   1.412   7.258 -0.9483 -1.7408  0.9970
  188SAPI  C21521650   6.322   1.461   7.458  0.1030  0.3373 -0.2618
  188SAPI  H15R21651   6.372   1.364   7.475  3.1578  1.5667 -1.5552
  188SAPI  C21621652   6.338   1.558   7.573  0.0462  0.7248 -0.4925
  188SAPI  H16R21653   6.256   1.634   7.574  1.2619  2.0677  0.4998
  188SAPI  H16S21654   6.436   1.607   7.559  0.2871  0.6807  0.9596
  188SAPI  C21721655   6.330   1.478   7.711 -0.9623  0.0670  0.0381
  188SAPI  H17R21656   6.351   1.543   7.799 -0.3119  0.4633 -0.3995
  188SAPI  H17S21657   6.406   1.397   7.716 -0.9970  0.0883  2.2118
  188SAPI  C21821658   6.193   1.413   7.728  0.3997  0.6358  0.6048
  188SAPI  H18R21659   6.171   1.344   7.645  1.1284 -0.6123  1.4169
  188SAPI  H18S21660   6.115   1.492   7.724 -0.4173 -0.1584  0.6017
  188SAPI  C21921661   6.170   1.332   7.860 -0.9401  1.0097  0.2284
  188SAPI  H19R21662   6.256   1.263   7.862  0.5897  2.7765 -1.0932
  188SAPI  H19S21663   6.080   1.269   7.843  0.0699 -0.2100 -0.7778
  188SAPI  C22021664   6.163   1.417   7.986 -0.4742 -0.6578 -0.0209
  188SAPI  H20R21665   6.110   1.363   8.067 -1.1356 -1.4460 -0.9504
  188SAPI  H20S21666   6.106   1.510   7.963  0.6603 -0.0915 -0.6459
  188SAPI  H20T21667   6.255   1.459   8.031 -0.2398  0.0754 -1.1396
  188SAPI   C3321668   6.730   1.857   6.969  0.8543  1.0503 -0.3848
  188SAPI   H3X21669   6.710   1.951   7.026 -0.1683  3.0207 -3.7029
  188SAPI   H3Y21670   6.840   1.855   6.960  1.4552  0.9503  4.3460
  188SAPI   C3421671   6.692   1.740   7.065  0.2566 -0.7463  0.0947
  188SAPI   H4X21672   6.701   1.639   7.021 -0.3378 -1.1645  0.8926
  188SAPI   H4Y21673   6.586   1.746   7.098  0.8451  0.1209  1.9641
  188SAPI   C3521674   6.782   1.759   7.190  0.2401 -1.0728  0.6673
  188SAPI   H5X21675   6.758   1.860   7.229  1.1426  1.3969 -4.3283
  188SAPI   H5Y21676   6.890   1.757   7.164 -0.1794 -2.5363 -1.1785
  188SAPI   C3621677   6.747   1.651   7.299 -0.0655  0.0111  0.4652
  188SAPI   H6X21678   6.776   1.549   7.266  0.8891  0.4639 -0.1271
  188SAPI   H6Y21679   6.638   1.647   7.321 -0.4835  0.9397 -1.2333
  188SAPI   C3721680   6.818   1.692   7.429  0.1405  0.6819 -0.0674
  188SAPI   H7X21681   6.804   1.794   7.471  0.6122  0.5357  0.4637
  188SAPI   H7Y21682   6.924   1.677   7.397 -0.7628 -2.7125 -1.9501
  188SAPI   C3821683   6.771   1.589   7.539 -0.1712 -0.1163 -0.6428
  188SAPI   H8X21684   6.790   1.483   7.511 -2.0853  0.0783 -3.0425
  188SAPI   H8Y21685   6.661   1.592   7.552 -0.1933 -1.3084 -0.4525
  188SAPI   C3921686   6.837   1.629   7.678 -0.4708 -0.1880  1.0896
  188SAPI   H9X21687   6.808   1.732   7.706 -0.9356 -0.4258  1.5038
  188SAPI   H9Y21688   6.945   1.627   7.656 -0.2593  2.7607  1.4704
  188SAPI  C31021689   6.809   1.540   7.791  0.5172 -0.4336  0.9116
  188SAPI  H10X21690   6.843   1.443   7.749 -1.6740  0.2260 -2.7810
  188SAPI  H10Y21691   6.701   1.539   7.818 -0.4027  2.4057 -2.0698
  188SAPI  C31121692   6.891   1.584   7.910  0.3187 -0.7728  0.2215
  188SAPI  H11X21693   6.860   1.687   7.938  1.8210 -0.2333 -0.0017
  188SAPI  H11Y21694   6.998   1.596   7.884 -0.1492  1.7134 -0.8533
  188SAPI  C31221695   6.866   1.488   8.030 -0.1063  0.3428  1.0740
  188SAPI  H12X21696   6.954   1.502   8.096  0.2154 -1.3986  1.0682
  188SAPI  H12Y21697   6.861   1.386   7.988  0.7737  0.1026  1.5246
  188SAPI  C31321698   6.740   1.508   8.115 -0.4142  0.2563  0.2756
  188SAPI  H13X21699   6.640   1.511   8.067 -0.1345 -1.2387 -0.4776
  188SAPI  H13Y21700   6.759   1.600   8.174  1.2460  1.3227 -1.8043
  188SAPI  C31421701   6.726   1.388   8.213 -0.2472  0.5515 -1.2922
  188SAPI  H14X21702   6.821   1.377   8.270 -0.6451 -0.8848 -0.8772
  188SAPI  H14Y21703   6.699   1.294   8.160 -0.0750 -0.4857  0.3672
  188SAPI  C31521704   6.618   1.407   8.316 -0.0859 -0.1858 -0.4410
  188SAPI  H15X21705   6.518   1.424   8.271 -0.1092 -3.6407 -1.9893
  188SAPI  H15Y21706   6.632   1.489   8.390 -2.7566  0.9336 -1.0498
  188SAPI  C31621707   6.593   1.282   8.404  0.4013 -0.0667 -1.3087
  188SAPI  H16X21708   6.688   1.245   8.449  0.5477  1.9829  0.2099
  188SAPI  H16Y21709   6.529   1.202   8.362 -1.8709  0.0810  1.5418
  188SAPI  C31721710   6.533   1.327   8.544 -0.1752  0.2030  0.3031
  188SAPI  H17X21711   6.479   1.234   8.571  0.3303 -0.6262 -1.3589
  188SAPI  H17Y21712   6.460   1.407   8.520  0.0213  0.5223  0.7547
  188SAPI  C31821713   6.633   1.371   8.640  0.3986  0.1184 -0.5984
  188SAPI  H18X21714   6.684   1.466   8.611  0.7373 -0.3050 -1.4350
  188SAPI  H18Y21715   6.711   1.293   8.658  0.7352  0.7038  0.6189
  188SAPI  H18Z21716   6.585   1.387   8.739 -0.6558 -0.7229 -0.9565
  189POPC     N21717   6.056   3.976  11.247 -0.2821 -0.7010  0.1913
  189POPC   C1221718   6.093   4.120  11.195  0.0506 -0.5209  0.0625
  189POPC  H12A21719   6.201   4.128  11.192  0.1683 -1.4752  1.0219
  189POPC  H12B21720   6.057   4.198  11.261  0.9451  1.2658 -1.4478
  189POPC   C1321721   5.908   3.970  11.257 -0.2411  0.6836 -0.5950
  189POPC  H13A21722   5.877   4.029  11.342 -1.7472 -0.9547  0.0745
  189POPC  H13B21723   5.868   4.025  11.174 -0.2516  0.9922 -0.3884
  189POPC  H13C21724   5.861   3.873  11.269  0.8054  0.1724 -0.5030
  189POPC   C1421725   6.106   3.868  11.165 -0.3795  0.0245  0.3107
  189POPC  H14A21726   6.213   3.868  11.155 -0.4997  0.1305 -1.3082
  189POPC  H14B21727   6.085   3.773  11.212  1.2520 -0.1955  0.6617
  189POPC  H14C21728   6.065   3.876  11.065 -1.4501  0.7816  0.7806
  189POPC   C1521729   6.115   3.961  11.386  0.0136  0.3049 -0.5019
  189POPC  H15A21730   6.060   3.884  11.440  1.0049  1.5251  2.4812
  189POPC  H15B21731   6.102   4.047  11.451 -1.4686  1.5107 -2.2972
  189POPC  H15C21732   6.222   3.951  11.389 -0.0343 -0.4253 -1.0103
  189POPC   C1121733   6.038   4.173  11.060  0.2501 -0.1152  0.3549
  189POPC  H11A21734   6.080   4.268  11.022 -0.6994 -0.4138 -1.5802
  189POPC  H11B21735   5.931   4.197  11.079  0.0465  0.5659 -1.4564
  189POPC     P21736   5.940   4.030  10.855 -0.1476  0.2656 -0.2386
  189POPC   O1321737   5.811   4.046  10.928 -0.0658 -0.2187 -0.4537
  189POPC   O1421738   5.965   3.904  10.787 -0.3723  0.3285 -0.3582
  189POPC   O1221739   6.061   4.077  10.957 -0.5740  0.0181  0.0419
  189POPC   O1121740   5.942   4.146  10.741  1.0868 -0.1597  0.1700
  189POPC    C121741   6.040   4.239  10.716 -0.1926  0.0046  0.6962
  189POPC    HA21742   6.124   4.218  10.786 -0.2287 -2.7146 -0.0020
  189POPC    HB21743   5.994   4.340  10.724 -0.0515  0.4331 -2.5666
  189POPC    C221744   6.106   4.237  10.572  0.6179  0.0088  0.1637
  189POPC    HS21745   6.143   4.341  10.560  0.4761 -0.0341 -0.7513
  189POPC   O2121746   6.008   4.201  10.467 -0.6884 -0.1308 -0.1376
  189POPC   C2121747   5.936   4.287  10.405  0.5577  0.0516 -0.2158
  189POPC   O2221748   5.938   4.411  10.413  0.0777 -0.1638  0.6776
  189POPC   C2221749   5.858   4.213  10.307  0.3850  0.8827  1.3737
  189POPC   H2R21750   5.753   4.251  10.304  0.6465  1.5675 -1.9125
  189POPC   H2S21751   5.853   4.106  10.338 -0.1593  0.4281 -0.2040
  189POPC    C321752   6.215   4.142  10.558 -0.2787  0.1326 -0.1201
  189POPC    HX21753   6.181   4.040  10.586  0.2000  0.0339  0.1119
  189POPC    HY21754   6.297   4.166  10.630  2.6877 -1.8505 -2.5849
  189POPC   O3121755   6.275   4.149  10.431 -0.1108  0.6274 -0.1306
  189POPC   C3121756   6.235   4.052  10.341  0.5265 -1.3542 -0.7753
  189POPC   O3221757   6.154   3.965  10.368  0.0790  0.0492  0.2386
  189POPC   C3221758   6.304   4.084  10.207  0.1779 -1.0717 -0.2359
  189POPC   H2X21759   6.408   4.046  10.200  0.6992 -0.0019  1.1040
  189POPC   H2Y21760   6.311   4.195  10.207  0.5530 -1.0403  2.1894
  189POPC   C2321761   5.921   4.217  10.165 -0.4334  0.1229 -0.9067
  189POPC   H3R21762   6.017   4.160  10.167 -0.5542 -0.0741  0.4576
  189POPC   H3S21763   5.953   4.322  10.153  2.1996 -0.4142  0.5784
  189POPC   C2421764   5.821   4.164  10.061 -0.9090  0.6522  0.3108
  189POPC   H4R21765   5.728   4.224  10.058 -2.2950 -1.4359 -1.1374
  189POPC   H4S21766   5.795   4.062  10.097 -0.3327 -0.4267 -2.1357
  189POPC   C2521767   5.888   4.143   9.924 -0.8390 -0.7627 -0.9610
  189POPC   H5R21768   5.965   4.063   9.934 -0.5194 -0.5435 -1.6219
  189POPC   H5S21769   5.942   4.235   9.892  1.3617 -1.6250  0.0567
  189POPC   C2621770   5.782   4.103   9.820 -0.2212 -0.9844 -0.1683
  189POPC   H6R21771   5.683   4.151   9.836  0.4284  0.7605 -1.1034
  189POPC   H6S21772   5.765   3.996   9.843 -0.2825 -0.9234  0.0728
  189POPC   C2721773   5.825   4.131   9.685 -0.8947 -0.1005  0.4676
  189POPC   H7R21774   5.935   4.137   9.675 -1.0176  5.5064 -1.3331
  189POPC   H7S21775   5.797   4.235   9.656  1.4316  0.0944 -1.3873
  189POPC   C2821776   5.784   4.040   9.570  0.4458 -0.4484  1.1138
  189POPC   H8R21777   5.803   3.934   9.595  1.0961 -0.3039  1.2547
  189POPC   H8S21778   5.848   4.077   9.486 -0.7865 -0.7182  0.0213
  189POPC   C2921779   5.635   4.069   9.531 -1.0636  0.4970 -0.6243
  189POPC   H9121780   5.565   4.047   9.612  2.4137  1.5378  3.0055
  189POPC  C21021781   5.592   4.128   9.417 -0.3175  0.2082  0.4162
  189POPC  H10121782   5.486   4.144   9.393 -0.6433  1.5953  2.5082
  189POPC  C21121783   5.688   4.168   9.306  0.9657 -0.1055  0.8455
  189POPC  H11R21784   5.780   4.210   9.351  1.5920 -1.3732  0.7909
  189POPC  H11S21785   5.636   4.250   9.251 -0.9445 -0.4117  2.1299
  189POPC  C21221786   5.723   4.046   9.218  0.0104  0.0137 -0.3772
  189POPC  H12R21787   5.626   4.001   9.190  0.1982 -1.6674  1.4666
  189POPC  H12S21788   5.779   3.966   9.270 -1.7792 -0.9070  0.2177
  189POPC  C21321789   5.791   4.091   9.090  0.2529 -0.8022  0.3843
  189POPC  H13R21790   5.709   4.128   9.024 -0.6573 -1.7164  0.9769
  189POPC  H13S21791   5.824   3.998   9.040  1.9242  0.5866 -1.2575
  189POPC  C21421792   5.905   4.194   9.104  0.2063  0.5036  0.3653
  189POPC  H14R21793   5.980   4.151   9.173 -0.5450 -2.2560 -0.4085
  189POPC  H14S21794   5.862   4.284   9.155 -0.7569  0.5326 -0.4569
  189POPC  C21521795   5.974   4.250   8.981  0.1360  0.3119 -0.2323
  189POPC  H15R21796   5.905   4.296   8.906  1.1902  1.4692 -0.5356
  189POPC  H15S21797   6.013   4.160   8.929  0.3737  0.0702  0.3584
  189POPC  C21621798   6.082   4.356   9.015  0.0979  0.2889  0.3450
  189POPC  H16R21799   6.155   4.323   9.092 -0.6273 -0.2522  0.8044
  189POPC  H16S21800   6.028   4.442   9.059 -0.3071  0.1998  0.0228
  189POPC  C21721801   6.158   4.388   8.888 -0.3105 -0.0486  0.3401
  189POPC  H17R21802   6.088   4.391   8.802  1.0668 -1.2541 -0.8678
  189POPC  H17S21803   6.234   4.308   8.874  1.6068  2.0629 -2.7870
  189POPC  C21821804   6.241   4.520   8.895 -0.0654 -1.0263  0.8613
  189POPC  H18R21805   6.308   4.523   8.984  3.2082  0.8583 -1.4776
  189POPC  H18S21806   6.172   4.607   8.892  1.5098  0.2375 -2.0737
  189POPC  H18T21807   6.303   4.529   8.804  2.1039  0.5084  2.3994
  189POPC   C3321808   6.237   4.013  10.087 -0.7125  0.4123 -0.1736
  189POPC   H3X21809   6.145   4.069  10.058 -0.1213  0.6913 -1.5939
  189POPC   H3Y21810   6.205   3.910  10.114  1.6957 -0.4422 -0.3658
  189POPC   C3421811   6.328   4.020   9.969  0.2093  0.3111  0.3821
  189POPC   H4X21812   6.415   3.952   9.983 -0.5488 -1.4575 -2.6146
  189POPC   H4Y21813   6.369   4.120   9.946 -0.1135  0.2353 -0.5302
  189POPC   C3521814   6.259   3.971   9.840 -0.4424 -0.4732 -0.9664
  189POPC   H5X21815   6.177   4.042   9.819  0.7002  1.7481  1.5245
  189POPC   H5Y21816   6.216   3.872   9.864 -0.9925  0.6220  3.3590
  189POPC   C3621817   6.364   3.955   9.738  0.3556 -0.7964 -0.4366
  189POPC   H6X21818   6.438   3.875   9.758  1.0339 -0.8365 -2.8069
  189POPC   H6Y21819   6.414   4.052   9.719 -0.6226 -0.3563 -0.8316
  189POPC   C3721820   6.302   3.887   9.614  0.9815  0.4034 -0.3462
  189POPC   H7X21821   6.241   3.798   9.638  1.2535  0.2402 -0.2517
  189POPC   H7Y21822   6.393   3.851   9.560  1.3976 -0.6791  1.0386
  189POPC   C3821823   6.218   3.988   9.528  0.6422  0.4371  0.3633
  189POPC   H8X21824   6.280   4.076   9.500 -0.9205  1.1598 -1.0407
  189POPC   H8Y21825   6.132   4.016   9.592 -1.0990 -0.5468 -1.4117
  189POPC   C3921826   6.157   3.930   9.396  0.5436 -0.5149 -0.9653
  189POPC   H9X21827   6.073   4.001   9.383 -0.5087 -1.5466 -0.0572
  189POPC   H9Y21828   6.121   3.825   9.393 -0.4818 -0.1570 -2.2169
  189POPC  C31021829   6.255   3.945   9.271  0.4878  0.3067 -0.8722
  189POPC  H10X21830   6.337   3.875   9.299  1.7336  2.4465  1.3154
  189POPC  H10Y21831   6.303   4.044   9.289 -0.2352  0.4591  0.3074
  189POPC  C31121832   6.176   3.926   9.143 -0.0206 -0.0949  0.3880
  189POPC  H11X21833   6.116   4.016   9.118 -1.7931 -1.8661 -2.2425
  189POPC  H11Y21834   6.113   3.838   9.167  0.8139 -0.9925 -0.6400
  189POPC  C31221835   6.265   3.907   9.017  0.1293 -0.0408  0.4367
  189POPC  H12X21836   6.312   3.806   9.029  2.0845  0.9755  1.9491
  189POPC  H12Y21837   6.353   3.973   9.001  0.1533 -0.1593  0.0696
  189POPC  C31321838   6.182   3.921   8.886  0.0578 -0.4731  0.5222
  189POPC  H13X21839   6.246   3.904   8.798  4.2066  1.8313  2.7961
  189POPC  H13Y21840   6.156   4.029   8.896  0.3597 -0.4754  1.4430
  189POPC  C31421841   6.052   3.842   8.874 -0.5345 -0.3588  0.1799
  189POPC  H14X21842   5.991   3.882   8.959 -2.7602  1.5732 -2.1493
  189POPC  H14Y21843   6.074   3.734   8.881 -0.0457 -0.3439 -0.9373
  189POPC  C31521844   5.969   3.868   8.746 -0.0771  0.7241 -0.9930
  189POPC  H15X21845   6.031   3.837   8.658 -1.6010 -1.2880 -1.4156
  189POPC  H15Y21846   5.937   3.974   8.738 -1.9035  0.0780 -3.3004
  189POPC  C31621847   5.834   3.793   8.749  0.0968 -0.3188  0.8249
  189POPC  H16X21848   5.848   3.683   8.746  0.4499 -0.2762  0.9330
  189POPC  H16Y21849   5.778   3.830   8.660 -3.2546 -0.9344  2.5079
  189POPC  H16Z21850   5.775   3.828   8.836  2.6000  4.8340  0.8080
  190POPC     N21851   0.217   6.279  11.259 -0.1444 -0.4822  0.1467
  190POPC   C1221852   0.189   6.334  11.119 -0.0770 -0.4505 -0.6968
  190POPC  H12A21853   0.129   6.423  11.123 -0.6292 -0.8084 -0.9446
  190POPC  H12B21854   0.130   6.254  11.077 -2.5265  0.3481  0.9978
  190POPC   C1321855   0.287   6.382  11.342  0.0962  0.3651  0.2701
  190POPC  H13A21856   0.219   6.466  11.352  1.1758  1.3942 -0.6781
  190POPC  H13B21857   0.313   6.348  11.442 -0.0245  1.9064  0.8578
  190POPC  H13C21858   0.375   6.415  11.289 -0.7960  0.9829 -0.8659
  190POPC   C1421859   0.084   6.253  11.315  0.7048  0.2001  0.2768
  190POPC  H14A21860   0.013   6.224  11.239 -1.3562  0.7360  1.9233
  190POPC  H14B21861   0.081   6.174  11.389  1.1702  0.4209  0.5361
  190POPC  H14C21862   0.030   6.335  11.358  0.9949 -0.1757  1.3925
  190POPC   C1521863   0.290   6.149  11.257  0.0696  0.2801  0.5093
  190POPC  H15A21864   0.304   6.109  11.356  0.4716 -0.4911  0.1554
  190POPC  H15B21865   0.388   6.172  11.216 -0.0720  0.8911  0.5106
  190POPC  H15C21866   0.238   6.086  11.186 -0.9736 -0.3248  1.7656
  190POPC   C1121867   0.305   6.361  11.029 -0.7302 -0.3939 -0.0279
  190POPC  H11A21868   0.272   6.391  10.928 -1.9035  2.1568  1.0249
  190POPC  H11B21869   0.362   6.266  11.018 -1.1577 -0.5650 -0.8552
  190POPC     P21870   0.386   6.611  11.077 -0.5446  0.1858 -0.1801
  190POPC   O1321871   0.521   6.669  11.106 -0.3939 -0.0534 -0.0005
  190POPC   O1421872   0.280   6.659  11.165  0.7895 -0.0719  0.7371
  190POPC   O1221873   0.388   6.460  11.086 -0.0693  0.0149 -0.1739
  190POPC   O1121874   0.352   6.630  10.924  0.1941  0.1933 -0.1312
  190POPC    C121875   0.257   6.735  10.885  0.5212  0.1368  0.0656
  190POPC    HA21876   0.299   6.837  10.873  1.7739 -0.1691  1.4824
  190POPC    HB21877   0.181   6.744  10.966 -1.1828 -0.8068 -1.3467
  190POPC    C221878   0.184   6.690  10.752 -0.1956 -0.0390 -0.4762
  190POPC    HS21879   0.169   6.580  10.755  1.3377 -0.2830 -0.9971
  190POPC   O2121880   0.265   6.725  10.639 -0.3514  0.1395  0.0816
  190POPC   C2121881   0.268   6.623  10.548 -0.5557 -0.5944 -0.0562
  190POPC   O2221882   0.246   6.503  10.569  0.0501 -0.2677  0.1434
  190POPC   C2221883   0.338   6.681  10.422 -0.0891 -0.7613 -0.5377
  190POPC   H2R21884   0.446   6.661  10.434 -0.1981 -0.9002  0.2571
  190POPC   H2S21885   0.307   6.786  10.406 -0.5225 -0.9000 -0.6181
  190POPC    C321886   0.049   6.764  10.733  0.4098  0.2839 -0.2186
  190POPC    HX21887   0.069   6.871  10.757 -1.4436  0.3670  1.2188
  190POPC    HY21888  -0.030   6.731  10.805  1.6988 -1.8664  0.3024
  190POPC   O3121889  -0.001   6.750  10.602  0.6797  0.3260 -0.5270
  190POPC   C3121890  -0.081   6.858  10.571 -0.6537 -0.0326  0.2708
  190POPC   O3221891  -0.109   6.949  10.650  0.5444 -0.1287  0.0979
  190POPC   C3221892  -0.126   6.858  10.424  0.1250  0.4612  0.0255
  190POPC   H2X21893  -0.220   6.916  10.413 -0.2080 -0.2306 -0.9131
  190POPC   H2Y21894  -0.145   6.750  10.406  2.4126  0.1280 -0.7875
  190POPC   C2321895   0.290   6.599  10.301  0.0932  0.8345 -0.5805
  190POPC   H3R21896   0.181   6.581  10.303  0.3964 -1.5240 -1.9905
  190POPC   H3S21897   0.341   6.500  10.305 -1.0716  0.2191 -0.7205
  190POPC   C2421898   0.310   6.671  10.164  0.0474  0.3170  0.4674
  190POPC   H4R21899   0.420   6.667  10.145  0.1987  1.2638  1.1057
  190POPC   H4S21900   0.281   6.778  10.162 -0.8392  0.1456 -3.0025
  190POPC   C2521901   0.244   6.596  10.051 -0.0041  0.2374 -0.6932
  190POPC   H5R21902   0.139   6.581  10.083  0.2066  0.8803  0.3298
  190POPC   H5S21903   0.290   6.495  10.041 -2.0546 -0.5431 -3.6023
  190POPC   C2621904   0.249   6.649   9.915  0.0518  0.1928 -0.2786
  190POPC   H6R21905   0.189   6.584   9.848  0.1892  1.4205 -1.6115
  190POPC   H6S21906   0.355   6.654   9.882 -0.2222  0.6063 -1.1125
  190POPC   C2721907   0.180   6.790   9.904 -0.6898 -1.2365 -0.4036
  190POPC   H7R21908   0.219   6.869   9.971 -1.7460 -1.0208 -0.0156
  190POPC   H7S21909   0.074   6.782   9.937 -0.9585  0.2211 -0.7951
  190POPC   C2821910   0.181   6.846   9.756 -1.0195  0.0197 -0.2064
  190POPC   H8R21911   0.289   6.858   9.732 -0.5202  1.1568  2.2932
  190POPC   H8S21912   0.131   6.945   9.749 -0.4330  0.2442 -1.5390
  190POPC   C2921913   0.111   6.742   9.669 -0.0850  0.0766 -0.0768
  190POPC   H9121914   0.032   6.683   9.718  0.8732 -0.4851  0.8283
  190POPC  C21021915   0.143   6.720   9.539 -0.6799  0.2341 -0.3663
  190POPC  H10121916   0.099   6.639   9.480 -0.2887  0.0731 -0.4331
  190POPC  C21121917   0.254   6.784   9.471  0.0587  0.1690 -0.5003
  190POPC  H11R21918   0.289   6.881   9.512  0.4273 -0.1948  0.0546
  190POPC  H11S21919   0.224   6.802   9.365  1.0214  1.2125 -0.6076
  190POPC  C21221920   0.380   6.697   9.480 -0.2771  0.2132  0.2599
  190POPC  H12R21921   0.360   6.592   9.448 -1.8038  0.5024  0.1668
  190POPC  H12S21922   0.417   6.688   9.584  0.1028  2.8361  0.4087
  190POPC  C21321923   0.498   6.735   9.390 -0.3472  0.1633  0.4278
  190POPC  H13R21924   0.593   6.689   9.427  0.2848  0.3344 -0.9385
  190POPC  H13S21925   0.511   6.846   9.395 -0.8719  0.2393  0.0931
  190POPC  C21421926   0.486   6.699   9.241  0.2626  0.1650  0.5149
  190POPC  H14R21927   0.404   6.751   9.188  1.9417  1.5231 -0.8557
  190POPC  H14S21928   0.480   6.589   9.227 -3.5501  0.6257 -3.8225
  190POPC  C21521929   0.608   6.744   9.151 -0.5457 -0.2659  0.6436
  190POPC  H15R21930   0.703   6.698   9.188  0.6273  1.2758 -0.3646
  190POPC  H15S21931   0.622   6.854   9.153  0.2146 -0.2913 -1.3814
  190POPC  C21621932   0.581   6.707   9.010  0.1378  0.5194 -0.1023
  190POPC  H16R21933   0.485   6.754   8.982  0.8846  2.8561  0.9826
  190POPC  H16S21934   0.566   6.597   9.006  2.2784  0.1760  0.0126
  190POPC  C21721935   0.692   6.736   8.902  0.7696 -0.1052  0.0466
  190POPC  H17R21936   0.793   6.694   8.922  1.2508  1.0713  0.1782
  190POPC  H17S21937   0.707   6.846   8.903 -0.9299  0.1695 -0.7075
  190POPC  C21821938   0.665   6.697   8.753  0.3347 -0.0145 -0.9310
  190POPC  H18R21939   0.648   6.588   8.749 -0.5324  0.1167 -1.0284
  190POPC  H18S21940   0.749   6.735   8.691  1.1269  0.4901  0.3960
  190POPC  H18T21941   0.569   6.746   8.727  0.7447  0.9706 -0.6522
  190POPC   C3321942  -0.030   6.927  10.326  0.1883  0.5200  0.2738
  190POPC   H3X21943   0.076   6.906  10.348  0.2137 -0.0165 -0.3457
  190POPC   H3Y21944  -0.040   7.037  10.342 -1.2411  0.4098  0.2572
  190POPC   C3421945  -0.075   6.889  10.184 -0.2317  0.7129  0.0433
  190POPC   H4X21946  -0.041   6.785  10.161 -1.0053 -0.1816  2.6041
  190POPC   H4Y21947  -0.017   6.954  10.115  1.4473 -2.0666 -1.3212
  190POPC   C3521948  -0.220   6.899  10.154  0.0633 -0.2649 -0.6035
  190POPC   H5X21949  -0.263   7.000  10.174  2.4340  1.1282 -2.0632
  190POPC   H5Y21950  -0.277   6.823  10.212 -0.0836  0.0368 -0.3470
  190POPC   C3621951  -0.248   6.873  10.004 -0.8601 -0.5767 -0.6316
  190POPC   H6X21952  -0.200   6.775   9.981  3.0993  0.8135  0.8990
  190POPC   H6Y21953  -0.194   6.951   9.947  1.0188  0.2634  2.0717
  190POPC   C3721954  -0.397   6.874   9.974 -0.6307  0.7930 -0.0647
  190POPC   H7X21955  -0.459   6.957  10.014  0.6127  1.4409  0.6021
  190POPC   H7Y21956  -0.434   6.782  10.024  1.9368 -0.5578 -0.4568
  190POPC   C3821957  -0.422   6.871   9.828  0.3643 -1.3032 -0.3713
  190POPC   H8X21958  -0.370   6.787   9.778  0.6381 -0.6765 -1.1726
  190POPC   H8Y21959  -0.394   6.967   9.780  1.0991 -0.8476  0.9398
  190POPC   C3921960  -0.566   6.853   9.778  0.2051 -0.2135  0.4334
  190POPC   H9X21961  -0.635   6.925   9.826 -1.1941 -0.1588 -1.5340
  190POPC   H9Y21962  -0.599   6.752   9.812  0.7738 -0.4901  0.1783
  190POPC  C31021963  -0.577   6.857   9.618  1.0208  0.5231 -0.8067
  190POPC  H10X21964  -0.519   6.778   9.567  0.0804  0.5371 -1.9632
  190POPC  H10Y21965  -0.552   6.961   9.588 -2.6159  2.1048  0.9786
  190POPC  C31121966  -0.720   6.824   9.571 -0.3067 -0.1637  0.2152
  190POPC  H11X21967  -0.728   6.842   9.461  0.3507 -1.4646 -0.0627
  190POPC  H11Y21968  -0.792   6.900   9.609 -4.1521 -1.5557 -3.4348
  190POPC  C31221969  -0.762   6.682   9.620  0.1205 -0.0393 -0.0773
  190POPC  H12X21970  -0.804   6.693   9.723 -3.0203 -0.3266 -1.1949
  190POPC  H12Y21971  -0.665   6.629   9.627  0.5602  0.9398  2.1616
  190POPC  C31321972  -0.855   6.608   9.520 -0.3388 -0.3553 -0.7167
  190POPC  H13X21973  -0.864   6.504   9.558  2.0343 -0.8721 -1.4165
  190POPC  H13Y21974  -0.795   6.600   9.427 -1.6600  0.5507 -1.6759
  190POPC  C31421975  -0.982   6.686   9.482 -0.0524 -0.1375 -0.8846
  190POPC  H14X21976  -0.949   6.778   9.429  0.9799 -0.4540 -0.8093
  190POPC  H14Y21977  -1.039   6.714   9.573 -1.1231 -2.8807 -0.6198
  190POPC  C31521978  -1.071   6.607   9.382 -0.5072  0.5341  0.0590
  190POPC  H15X21979  -1.024   6.587   9.284  1.3184 -1.8424  1.2990
  190POPC  H15Y21980  -1.162   6.669   9.366 -2.9163 -2.5997  0.5869
  190POPC  C31621981  -1.123   6.468   9.433  0.1579 -0.3988 -0.4544
  190POPC  H16X21982  -1.038   6.409   9.474  0.4473  0.2314 -0.1190
  190POPC  H16Y21983  -1.157   6.411   9.345 -0.5560 -1.1157  0.2693
  190POPC  H16Z21984  -1.196   6.491   9.514  1.0029 -1.6887  0.7064
  191POPC     N21985   2.992   6.196   6.040 -0.0385  0.3449  0.1053
  191POPC   C1221986   3.011   6.300   6.149 -0.5794 -0.8081 -0.0526
  191POPC  H12A21987   3.013   6.396   6.100 -0.1621 -1.2742 -0.9574
  191POPC  H12B21988   3.108   6.285   6.194  1.1222 -0.8428 -3.4142
  191POPC   C1321989   3.078   6.224   5.927 -0.6078  0.3292 -0.9831
  191POPC  H13A21990   3.061   6.157   5.844  0.2497 -0.6526 -0.3880
  191POPC  H13B21991   3.045   6.321   5.894  1.7038  1.3248 -0.5099
  191POPC  H13C21992   3.184   6.226   5.945 -0.8531  0.5221  0.5889
  191POPC   C1421993   3.025   6.060   6.097  1.0750 -0.5544  0.6392
  191POPC  H14A21994   2.960   6.044   6.181 -0.5054  1.1232 -0.1891
  191POPC  H14B21995   3.010   5.979   6.028  0.8024  0.1976 -0.1995
  191POPC  H14C21996   3.126   6.059   6.137  1.0701  0.5872  0.7128
  191POPC   C1521997   2.855   6.188   5.980  0.0592 -0.0551 -0.3400
  191POPC  H15A21998   2.827   6.286   5.943 -0.9088 -0.5538 -0.9880
  191POPC  H15B21999   2.791   6.168   6.064 -1.4610 -0.1725 -1.4778
  191POPC  H15C22000   2.861   6.107   5.909  2.0452 -0.0894 -0.1852
  191POPC   C1122001   2.897   6.312   6.257  0.2135  0.0856  0.3925
  191POPC  H11A22002   2.811   6.353   6.200  0.0433 -1.0851 -0.2141
  191POPC  H11B22003   2.921   6.401   6.320 -1.2779  1.4596 -0.9002
  191POPC     P22004   2.953   6.168   6.462  0.3764  0.3013  0.0408
  191POPC   O1322005   3.043   6.287   6.479 -0.3997  0.8268  0.2682
  191POPC   O1422006   3.002   6.029   6.471 -0.1230 -0.0219 -0.2574
  191POPC   O1222007   2.875   6.191   6.321 -0.2181 -0.1465  0.2025
  191POPC   O1122008   2.821   6.195   6.554 -0.4284  0.2630  0.0638
  191POPC    C122009   2.745   6.072   6.573 -0.5050 -0.1853 -0.0202
  191POPC    HA22010   2.798   6.025   6.659  0.7562  0.7520 -0.2617
  191POPC    HB22011   2.749   5.998   6.490 -1.3631 -1.6435  1.1732
  191POPC    C222012   2.601   6.104   6.620  0.4932 -0.3579  0.6831
  191POPC    HS22013   2.567   6.192   6.562  3.0098  0.3148  0.1046
  191POPC   O2122014   2.620   6.136   6.761  0.3726  0.3629 -0.4413
  191POPC   C2122015   2.512   6.201   6.809  0.0736 -0.4744 -0.7238
  191POPC   O2222016   2.408   6.222   6.756 -0.2883 -0.0070  0.0421
  191POPC   C2222017   2.547   6.235   6.959  0.0188  0.2708  0.5799
  191POPC   H2R22018   2.588   6.139   6.997  0.3065 -0.3436 -1.2145
  191POPC   H2S22019   2.449   6.259   7.005 -0.7683 -1.6253 -0.0362
  191POPC    C322020   2.513   5.985   6.598  0.6848  0.3025  0.1307
  191POPC    HX22021   2.520   5.972   6.487 -0.9333  0.6979 -0.0416
  191POPC    HY22022   2.405   5.999   6.619  0.4847 -0.6044 -0.2161
  191POPC   O3122023   2.570   5.869   6.653  0.1688 -0.1742  0.0861
  191POPC   C3122024   2.524   5.829   6.770  0.5628  0.0390  0.2868
  191POPC   O3222025   2.456   5.893   6.849 -0.0342 -0.3542 -0.0625
  191POPC   C3222026   2.569   5.683   6.789  0.1178 -0.0759 -0.6091
  191POPC   H2X22027   2.598   5.635   6.693 -0.6841 -3.0690  0.5209
  191POPC   H2Y22028   2.488   5.618   6.829  0.0736 -0.2189 -0.9322
  191POPC   C2322029   2.631   6.362   6.976  1.0380  0.3072  0.1384
  191POPC   H3R22030   2.572   6.443   6.929 -0.9388 -1.2067 -0.1139
  191POPC   H3S22031   2.734   6.364   6.936  0.8537 -0.0159 -0.3547
  191POPC   C2422032   2.636   6.409   7.132 -0.3447  0.4603  0.9362
  191POPC   H4R22033   2.672   6.327   7.198 -0.7937  0.0952  0.7284
  191POPC   H4S22034   2.532   6.438   7.158 -0.6625  0.1061  0.0580
  191POPC   C2522035   2.725   6.528   7.144  0.1695  0.0883 -0.0976
  191POPC   H5R22036   2.684   6.624   7.106 -0.2266  0.0690  0.2784
  191POPC   H5S22037   2.820   6.507   7.091  1.4969 -0.7525  2.4375
  191POPC   C2622038   2.769   6.562   7.287 -0.4739 -0.2699  0.3532
  191POPC   H6R22039   2.844   6.643   7.276 -0.1320 -0.9331 -3.9063
  191POPC   H6S22040   2.813   6.469   7.330  1.3386  0.5478  0.3733
  191POPC   C2722041   2.649   6.603   7.378 -0.2885  0.0216  0.5510
  191POPC   H7R22042   2.557   6.542   7.369 -0.1229 -0.1141 -0.4156
  191POPC   H7S22043   2.624   6.697   7.325  0.6129  0.2282  0.4743
  191POPC   C2822044   2.699   6.608   7.524 -0.0248 -1.2064  0.7303
  191POPC   H8R22045   2.614   6.664   7.569  0.8853  3.7342 -2.8875
  191POPC   H8S22046   2.797   6.658   7.542 -0.2889 -0.3413 -0.2003
  191POPC   C2922047   2.701   6.473   7.580  0.1532  0.3761  0.4871
  191POPC   H9122048   2.685   6.389   7.511 -1.3424 -0.1408  1.4102
  191POPC  C21022049   2.721   6.448   7.706  0.5572 -0.0642  0.2993
  191POPC  H10122050   2.707   6.347   7.747 -1.5526 -0.0598 -0.2896
  191POPC  C21122051   2.744   6.550   7.811 -0.7168 -0.0682 -0.5966
  191POPC  H11R22052   2.651   6.597   7.850  0.1813 -0.0664  1.7304
  191POPC  H11S22053   2.819   6.627   7.783  0.5882 -0.9251  0.4046
  191POPC  C21222054   2.812   6.489   7.937  0.1845 -0.4346  0.2223
  191POPC  H12R22055   2.906   6.436   7.912 -1.3509 -3.6802  0.7395
  191POPC  H12S22056   2.744   6.407   7.970  0.4848 -0.8214 -0.0974
  191POPC  C21322057   2.840   6.581   8.054  0.0486  0.6140 -1.0831
  191POPC  H13R22058   2.755   6.596   8.123  0.1023  0.0300 -0.8737
  191POPC  H13S22059   2.854   6.680   8.007 -2.8987  1.2378 -0.8299
  191POPC  C21422060   2.963   6.539   8.136 -0.3655 -0.5278 -0.1835
  191POPC  H14R22061   3.059   6.558   8.084 -1.9196 -1.7460 -3.8268
  191POPC  H14S22062   2.951   6.429   8.149 -1.9420 -0.3982 -0.3827
  191POPC  C21522063   2.969   6.594   8.284 -0.4131 -0.0416 -0.3148
  191POPC  H15R22064   2.957   6.704   8.296  2.2210  0.4451 -1.3553
  191POPC  H15S22065   3.071   6.579   8.326 -0.5794 -0.0181  0.0994
  191POPC  C21622066   2.868   6.524   8.376  0.6181 -0.0489  0.3314
  191POPC  H16R22067   2.889   6.417   8.355 -2.4450 -0.7617  0.3971
  191POPC  H16S22068   2.766   6.532   8.332 -0.1546 -2.4013  1.5006
  191POPC  C21722069   2.869   6.552   8.527 -0.0943 -0.3871  0.2075
  191POPC  H17R22070   2.793   6.491   8.581  0.4238 -1.7765 -0.5918
  191POPC  H17S22071   2.843   6.659   8.538 -0.8359 -0.7420  2.5083
  191POPC  C21822072   3.000   6.510   8.600  0.3657 -0.5408 -0.3290
  191POPC  H18R22073   2.985   6.519   8.710  0.3064  0.2344 -0.3980
  191POPC  H18S22074   3.078   6.580   8.566 -0.1722  1.0248  1.4948
  191POPC  H18T22075   3.035   6.408   8.574  0.7914 -0.1349 -1.3874
  191POPC   C3322076   2.693   5.676   6.875 -0.9636 -0.1067 -0.6803
  191POPC   H3X22077   2.768   5.753   6.847 -1.9915  1.6583  1.2134
  191POPC   H3Y22078   2.750   5.582   6.860  0.6043  0.5532  0.8085
  191POPC   C3422079   2.661   5.677   7.024  0.0565 -0.0255 -0.2156
  191POPC   H4X22080   2.591   5.593   7.044 -0.1311  0.0055 -0.7340
  191POPC   H4Y22081   2.607   5.772   7.042  2.6451  2.0612 -2.5651
  191POPC   C3522082   2.785   5.657   7.113  0.3965 -0.3723  0.3760
  191POPC   H5X22083   2.840   5.754   7.115  1.7692 -1.0580 -1.2252
  191POPC   H5Y22084   2.857   5.586   7.067 -0.5600 -1.1323  0.0356
  191POPC   C3622085   2.748   5.608   7.255 -0.4194  0.5149  0.5409
  191POPC   H6X22086   2.705   5.506   7.257  0.5258 -0.4938 -6.0220
  191POPC   H6Y22087   2.666   5.673   7.292 -0.9121  1.4516 -1.9684
  191POPC   C3722088   2.869   5.605   7.353 -0.0628 -0.2910 -0.4959
  191POPC   H7X22089   2.914   5.706   7.365 -0.6599  0.0293 -0.8841
  191POPC   H7Y22090   2.954   5.546   7.314 -0.9105 -1.4080 -0.7270
  191POPC   C3822091   2.830   5.553   7.492  0.0465 -0.1150 -0.0731
  191POPC   H8X22092   2.783   5.454   7.471 -2.2716  0.7761  0.5246
  191POPC   H8Y22093   2.742   5.611   7.529  0.8891 -0.0289  1.9276
  191POPC   C3922094   2.939   5.560   7.597 -0.0437  0.6934  0.4877
  191POPC   H9X22095   2.967   5.667   7.609 -0.1109  0.6658  0.9045
  191POPC   H9Y22096   3.013   5.491   7.552 -0.4154 -0.6543  1.8597
  191POPC  C31022097   2.893   5.494   7.728 -0.0951 -0.3756 -0.2157
  191POPC  H10X22098   2.984   5.469   7.786  0.6832 -0.7008 -1.5389
  191POPC  H10Y22099   2.854   5.394   7.699 -0.1366 -0.6818  0.8225
  191POPC  C31122100   2.805   5.580   7.812  0.0008 -0.4882  0.1906
  191POPC  H11X22101   2.713   5.603   7.754 -0.0778 -0.3175  0.3781
  191POPC  H11Y22102   2.851   5.679   7.831  1.2981 -0.8769 -0.8145
  191POPC  C31222103   2.749   5.513   7.940  0.4947 -0.3856 -0.2195
  191POPC  H12X22104   2.689   5.596   7.984  1.3874  0.4527 -0.5632
  191POPC  H12Y22105   2.835   5.480   8.003  0.7452  1.1597  0.3034
  191POPC  C31322106   2.656   5.390   7.927 -0.9513  0.1681 -0.9329
  191POPC  H13X22107   2.721   5.324   7.866  0.5338 -0.7169  1.4472
  191POPC  H13Y22108   2.559   5.415   7.878 -0.2698 -0.0849 -2.4697
  191POPC  C31422109   2.651   5.316   8.063  0.2564  0.1900  0.4605
  191POPC  H14X22110   2.616   5.379   8.148 -0.4211 -0.2595  0.5182
  191POPC  H14Y22111   2.752   5.276   8.086 -0.0191 -1.3795 -0.8783
  191POPC  C31522112   2.556   5.195   8.062 -0.0121 -0.2370  0.3558
  191POPC  H15X22113   2.603   5.123   7.992 -0.3778 -0.4981  0.3719
  191POPC  H15Y22114   2.454   5.220   8.025  0.0284 -0.2678  0.2246
  191POPC  C31622115   2.548   5.127   8.196 -0.2412  0.2153  0.4222
  191POPC  H16X22116   2.647   5.141   8.245  0.2897 -0.8970 -0.2862
  191POPC  H16Y22117   2.525   5.019   8.188  0.7167 -0.0612  1.2263
  191POPC  H16Z22118   2.477   5.187   8.256 -1.3747 -1.5757  0.9299
  192POPC     N22119   0.049   2.847   6.241 -0.4358 -0.2356  0.0262
  192POPC   C1222120   0.160   2.806   6.154  0.1924  0.1101 -0.2351
  192POPC  H12A22121   0.241   2.757   6.206 -1.4397 -0.9723  1.4187
  192POPC  H12B22122   0.208   2.895   6.116  0.6289  0.4925  1.1478
  192POPC   C1322123  -0.044   2.933   6.160  0.3202 -0.8144  0.1293
  192POPC  H13A22124   0.014   3.017   6.123  0.3249 -1.2582 -0.9105
  192POPC  H13B22125  -0.070   2.886   6.066  0.6203 -0.4457 -0.1457
  192POPC  H13C22126  -0.133   2.962   6.215 -1.0490  0.2994 -2.4716
  192POPC   C1422127  -0.013   2.736   6.314 -0.3057  0.9896 -0.4093
  192POPC  H14A22128   0.057   2.686   6.379 -2.3494 -0.9013  0.4313
  192POPC  H14B22129  -0.095   2.767   6.376 -0.0959 -0.1511  0.4804
  192POPC  H14C22130  -0.059   2.663   6.250  2.5523 -1.9524  0.5910
  192POPC   C1522131   0.104   2.933   6.351  0.3628 -0.1774 -0.4483
  192POPC  H15A22132   0.028   2.977   6.414 -0.9911  1.5038 -3.0716
  192POPC  H15B22133   0.153   3.021   6.312 -3.0934  2.2131  0.0577
  192POPC  H15C22134   0.158   2.874   6.424 -1.5802 -0.7905  0.5866
  192POPC   C1122135   0.135   2.711   6.033  0.4881 -0.3669  0.4052
  192POPC  H11A22136   0.229   2.694   5.976 -0.1525 -0.8215 -0.5351
  192POPC  H11B22137   0.072   2.774   5.967  0.0509  0.1708  1.3068
  192POPC     P22138   0.077   2.453   5.982  0.0036  0.1458 -0.2177
  192POPC   O1322139   0.221   2.415   5.981  0.0226  0.2463  0.3188
  192POPC   O1422140   0.009   2.462   5.849  0.8967  0.3161  0.1130
  192POPC   O1222141   0.057   2.591   6.060 -0.5377  0.3335 -0.0478
  192POPC   O1122142  -0.008   2.367   6.089 -0.4069  0.3691 -0.2019
  192POPC    C122143   0.062   2.283   6.185  0.2609 -0.3511  0.5986
  192POPC    HA22144   0.166   2.256   6.157  0.3267  1.2633 -0.8737
  192POPC    HB22145  -0.004   2.195   6.199  1.6038 -1.1620  2.1659
  192POPC    C222146   0.054   2.352   6.327  0.2700  0.1150  1.1186
  192POPC    HS22147   0.098   2.453   6.318  1.0777 -0.1511  1.9763
  192POPC   O2122148   0.111   2.276   6.434  0.0912 -0.6342 -0.4463
  192POPC   C2122149   0.235   2.229   6.428  1.2998 -0.1909  0.0479
  192POPC   O2222150   0.317   2.247   6.338 -0.3676  0.5046 -0.1799
  192POPC   C2222151   0.267   2.148   6.555 -0.1301  0.3193  0.3698
  192POPC   H2R22152   0.321   2.211   6.629 -0.6329 -1.1694  2.0896
  192POPC   H2S22153   0.345   2.071   6.536  0.6361  0.5395  2.3421
  192POPC    C322154  -0.089   2.382   6.364  0.0484  0.2020 -0.1844
  192POPC    HX22155  -0.155   2.293   6.363 -0.8796  0.8724 -0.6474
  192POPC    HY22156  -0.131   2.460   6.297  0.9957  0.7444 -0.1639
  192POPC   O3122157  -0.097   2.425   6.505 -0.1560  0.3791 -0.1610
  192POPC   C3122158  -0.128   2.336   6.598 -1.0845  0.4730  0.1090
  192POPC   O3222159  -0.167   2.221   6.575  0.3128  0.5738 -0.2149
  192POPC   C3222160  -0.111   2.395   6.735  0.1099  0.3232 -0.5503
  192POPC   H2X22161  -0.172   2.487   6.750 -1.3555 -0.3157 -2.3031
  192POPC   H2Y22162  -0.002   2.419   6.734  0.2036 -0.0079  0.2667
  192POPC   C2322163   0.164   2.075   6.628  0.0147 -0.0861  0.5733
  192POPC   H3R22164   0.122   1.995   6.563 -1.7971  0.2938  1.2224
  192POPC   H3S22165   0.083   2.146   6.653 -0.5389 -0.6385  0.3897
  192POPC   C2422166   0.227   2.007   6.744  0.3477 -0.7242  0.3379
  192POPC   H4R22167   0.331   1.971   6.730 -0.2493 -2.1329 -0.6350
  192POPC   H4S22168   0.157   1.922   6.758  0.8555 -0.8085  2.9621
  192POPC   C2522169   0.233   2.078   6.880  0.4454  0.4451 -0.7443
  192POPC   H5R22170   0.140   2.135   6.898 -0.7723 -1.8534  0.6209
  192POPC   H5S22171   0.319   2.149   6.870  0.9008 -0.1305 -0.9297
  192POPC   C2622172   0.248   1.989   7.005 -0.4384  0.2329  0.5122
  192POPC   H6R22173   0.260   1.884   6.971 -0.1031  0.4690 -0.1333
  192POPC   H6S22174   0.160   2.009   7.070  1.4259  0.1396  3.1827
  192POPC   C2722175   0.361   2.033   7.096  0.4353 -0.5000  0.2438
  192POPC   H7R22176   0.343   2.142   7.104  1.9998 -0.1902 -0.2131
  192POPC   H7S22177   0.462   2.016   7.053 -0.3794 -2.3875 -1.0719
  192POPC   C2822178   0.350   1.968   7.243  0.1026  0.0808 -0.5982
  192POPC   H8R22179   0.404   1.871   7.233  3.5856  1.7196  0.4397
  192POPC   H8S22180   0.241   1.959   7.260  0.2336  1.1854  1.0639
  192POPC   C2922181   0.418   2.041   7.355 -0.4090  0.0040  0.0565
  192POPC   H9122182   0.473   2.130   7.319  2.1502 -2.0250 -1.4264
  192POPC  C21022183   0.424   2.000   7.481  0.4646  0.4846  0.5832
  192POPC  H10122184   0.478   2.061   7.555 -0.9959  1.7969  0.6458
  192POPC  C21122185   0.356   1.873   7.533  0.5498  0.5264  0.9399
  192POPC  H11R22186   0.423   1.795   7.575  0.7377  1.1282  1.7859
  192POPC  H11S22187   0.307   1.829   7.443 -1.1740 -0.0830  2.1074
  192POPC  C21222188   0.248   1.906   7.628  0.5016  0.3024 -0.1792
  192POPC  H12R22189   0.169   1.827   7.623  0.7867  0.0769 -1.2350
  192POPC  H12S22190   0.187   1.992   7.593 -1.4383 -0.6309  0.7367
  192POPC  C21322191   0.282   1.929   7.782  0.9029 -0.4921 -0.8841
  192POPC  H13R22192   0.187   1.928   7.839  1.6686  0.5507  0.4450
  192POPC  H13S22193   0.334   2.026   7.794 -1.9681  0.9480  0.9936
  192POPC  C21422194   0.364   1.812   7.840 -0.3553 -0.1024  0.4503
  192POPC  H14R22195   0.468   1.836   7.811 -1.1731  1.5392 -1.3284
  192POPC  H14S22196   0.334   1.713   7.799  1.0114 -0.0329 -0.7833
  192POPC  C21522197   0.364   1.821   7.991  0.9947  0.0522 -0.4646
  192POPC  H15R22198   0.262   1.828   8.033  1.0198  1.7661 -0.6218
  192POPC  H15S22199   0.424   1.915   8.002  2.9887 -1.1560 -0.5076
  192POPC  C21622200   0.442   1.703   8.061  0.0355  0.1446 -0.3862
  192POPC  H16R22201   0.552   1.711   8.049  0.0254  1.6862  0.2701
  192POPC  H16S22202   0.400   1.605   8.032  0.5125 -1.0472  2.5935
  192POPC  C21722203   0.411   1.700   8.214  0.2883 -0.0376 -0.0901
  192POPC  H17R22204   0.302   1.698   8.234  0.5733 -0.3041  1.5855
  192POPC  H17S22205   0.446   1.800   8.246  3.1602 -0.4912 -1.4657
  192POPC  C21822206   0.491   1.595   8.295 -0.2429  0.2272  0.4547
  192POPC  H18R22207   0.595   1.632   8.294 -0.0718 -0.2557  0.1730
  192POPC  H18S22208   0.489   1.494   8.248  1.3545 -0.8243  2.5056
  192POPC  H18T22209   0.446   1.595   8.397 -0.3254  0.0601  0.4190
  192POPC   C3322210  -0.131   2.288   6.847  0.3400 -0.2775 -0.2068
  192POPC   H3X22211  -0.053   2.209   6.834 -0.8586 -1.7846  1.3649
  192POPC   H3Y22212  -0.220   2.223   6.836 -1.1077  1.3892  1.1955
  192POPC   C3422213  -0.128   2.343   6.992 -0.5071 -0.0578  0.2457
  192POPC   H4X22214  -0.215   2.412   6.993 -1.4220 -1.1751 -0.4462
  192POPC   H4Y22215  -0.035   2.400   7.011 -0.6066  0.1719  0.0504
  192POPC   C3522216  -0.142   2.238   7.103  0.4197 -0.5207  0.1688
  192POPC   H5X22217  -0.050   2.176   7.112  0.2732 -1.2476 -2.3684
  192POPC   H5Y22218  -0.227   2.170   7.080  1.1971 -1.2832 -0.5681
  192POPC   C3622219  -0.175   2.315   7.232  0.0537  0.1346 -0.1997
  192POPC   H6X22220  -0.275   2.362   7.228  0.1221  0.1950 -1.9706
  192POPC   H6Y22221  -0.094   2.391   7.240 -0.1927  0.5096 -1.1387
  192POPC   C3722222  -0.154   2.222   7.344  0.4490 -0.1604 -0.1372
  192POPC   H7X22223  -0.102   2.269   7.430  0.6155 -1.1833  0.3296
  192POPC   H7Y22224  -0.087   2.138   7.317  0.1739 -0.7077  0.8283
  192POPC   C3822225  -0.292   2.173   7.387 -0.0643  0.3954 -1.2471
  192POPC   H8X22226  -0.354   2.134   7.304  2.1710  0.1686 -2.9005
  192POPC   H8Y22227  -0.342   2.263   7.429 -0.8924 -0.8066  0.4543
  192POPC   C3922228  -0.288   2.061   7.496  0.0482  0.9783  0.0740
  192POPC   H9X22229  -0.225   1.975   7.465  1.2121  1.2684  1.5391
  192POPC   H9Y22230  -0.390   2.023   7.520  1.3993 -1.0126  3.4064
  192POPC  C31022231  -0.223   2.106   7.633  0.0289 -0.3531 -0.0481
  192POPC  H10X22232  -0.275   2.198   7.667  0.2058 -1.1671  2.6758
  192POPC  H10Y22233  -0.119   2.137   7.611 -0.6076  1.8774 -0.2225
  192POPC  C31122234  -0.243   1.994   7.738  0.0338  0.7274  0.2554
  192POPC  H11X22235  -0.214   1.891   7.709 -1.4594 -0.5467  2.8464
  192POPC  H11Y22236  -0.352   1.979   7.752  0.2698 -0.2280  1.3271
  192POPC  C31222237  -0.164   2.016   7.868  0.0448  0.3196 -0.5948
  192POPC  H12X22238  -0.189   2.110   7.922  1.5022  0.6224 -0.4243
  192POPC  H12Y22239  -0.060   2.029   7.831 -0.3962  0.5788 -1.8063
  192POPC  C31322240  -0.157   1.899   7.965  0.1684  0.1538  0.3691
  192POPC  H13X22241  -0.139   1.805   7.909  1.0647  1.2089 -1.1946
  192POPC  H13Y22242  -0.248   1.891   8.028 -2.3455 -0.2138 -3.0458
  192POPC  C31422243  -0.034   1.924   8.050  0.8688  0.2352 -0.0437
  192POPC  H14X22244   0.047   1.969   7.988  0.2106 -0.8594 -1.7502
  192POPC  H14Y22245   0.008   1.829   8.088 -0.0012  0.2263  0.9190
  192POPC  C31522246  -0.045   2.021   8.171 -0.7870 -0.1525 -0.2473
  192POPC  H15X22247  -0.123   1.974   8.235 -1.1631 -1.6727 -1.7371
  192POPC  H15Y22248  -0.070   2.120   8.128 -0.4299  0.8480  1.7633
  192POPC  C31622249   0.088   2.039   8.252  0.1653  0.4568 -0.4181
  192POPC  H16X22250   0.156   1.952   8.260 -0.1082  0.2342 -0.4811
  192POPC  H16Y22251   0.068   2.079   8.354  1.7375 -0.6252  0.3495
  192POPC  H16Z22252   0.154   2.108   8.195  1.3219  0.7496  1.2081
  193SOD    SOD22253   1.972   0.804   5.857  0.5554 -0.2849  0.3101
  194SOD    SOD22254   1.755   1.379   4.907  0.4505  0.1530 -0.9257
  195SOD    SOD22255   1.434   5.292   1.277  0.2191 -0.3119  0.0034
  196SOD    SOD22256   1.934   1.009   4.579 -0.2106  0.2321  0.6318
  197SOD    SOD22257   4.091   1.865   0.278  0.0332  0.0922  0.2643
  198SOD    SOD22258   6.570   6.369   3.780 -0.0669  0.0252 -0.2685
  199SOD    SOD22259   4.353   5.701   1.846 -0.1331 -0.3783  0.2234
  200SOD    SOD22260   5.183   3.079   2.160  0.2509 -0.1088  0.2465
  201SOD    SOD22261   6.806   0.669   1.976 -0.2421  0.0579 -0.3520
  202SOD    SOD22262   6.219   2.952  10.374  0.2664  0.2047 -0.1668
  203SOD    SOD22263   2.257   1.926  16.768  0.4587  0.2156  0.0456
  204SOD    SOD22264   4.865   1.929  10.419 -0.1251  0.1709  0.0829
  205SOD    SOD22265   5.754   1.389  10.556  0.3223  0.6318 -0.0211
  206SOD    SOD22266   2.206   0.780   5.394  0.2093  0.0187 -0.2036
  207SOD    SOD22267   5.767   1.826  16.741 -0.2312 -0.2835  0.3783
  208SOD    SOD22268   3.602   4.536  15.925  0.2897 -0.0682  0.1629
  209SOD    SOD22269   0.385   2.320   2.955  0.2407  0.4247  0.1136
  210SOD    SOD22270   0.089   4.489   5.564  0.5010 -0.5019 -0.1955
  211SOD    SOD22271   5.707   0.583   4.899  0.0913  0.0911 -0.1912
  212SOD    SOD22272   4.891   2.462  10.710  0.3710 -0.1886  0.4227
  213SOD    SOD22273   5.012   2.502   0.306 -0.1799 -0.0901  0.4366
  214SOD    SOD22274   2.397   1.479   5.401 -0.4954  0.3407 -0.4205
  215SOD    SOD22275   2.803   4.633   4.996 -0.8879  0.1679  0.2081
  216SOD    SOD22276   3.965   1.922  12.730  0.1748 -0.1605  0.0055
  217SOD    SOD22277   6.357   2.986  11.368  0.3255  0.1210  0.1645
  218SOD    SOD22278   1.787   1.720  15.107 -0.1577 -0.8302 -0.1415
  219SOD    SOD22279   4.114   0.052   2.330 -0.0612  0.3192  0.0445
  220SOD    SOD22280   0.081   3.727  11.306 -0.4008 -0.3722 -0.0962
  221SOD    SOD22281   0.031   2.688  14.322  0.6457  0.1937 -0.1314
  222SOD    SOD22282   0.826   1.694  15.719  0.3341  0.6262  0.5416
  223SOD    SOD22283   2.566   1.209  11.885 -0.1811  0.3072 -0.4466
  224SOD    SOD22284   6.090   3.035  15.577  0.4251  0.3958  0.2374
  225SOD    SOD22285   5.184   3.937  16.540 -0.2724  0.1122 -0.5503
  226SOD    SOD22286   6.615   0.543  12.140 -0.4840 -1.3583 -0.3492
  227SOD    SOD22287   1.128   0.840   5.811 -0.4555 -0.1773 -0.7867
  228SOD    SOD22288   6.412   1.497   6.306  0.0524 -0.2681  0.0769
  229SOD    SOD22289   0.566   2.129   5.829 -0.3180 -0.0993  0.6508
  230SOD    SOD22290   0.960   1.533  12.201  0.2821  0.1191  0.1768
  231SOD    SOD22291   2.593   1.972  15.362  0.0814  0.6914  0.1487
  232SOD    SOD22292   2.764   5.618   6.275  0.0586 -0.1724  0.5533
  233SOD    SOD22293   3.479   3.352  14.370  0.4574 -0.4845 -0.0198
  234SOD    SOD22294   1.292   0.959   0.059  0.0659 -0.0746  0.3377
  235SOD    SOD22295   2.141   1.443  15.385 -0.5580 -0.0428 -0.2636
  236SOD    SOD22296   5.607   1.817   2.623 -0.1341 -0.3292 -0.3336
  237SOD    SOD22297   0.388   1.973   0.318 -0.1602  0.4048  0.2120
  238SOD    SOD22298   3.025   6.402  13.308  0.0044  0.6486  0.0450
  239SOD    SOD22299   0.111   0.636  11.643 -0.3526 -0.2522  0.0563
  240SOD    SOD22300   1.848   1.234   3.481  0.0845 -0.0344 -0.0433
  241SOD    SOD22301   0.724   2.938  11.515 -0.2153 -0.0988 -0.5062
  242SOD    SOD22302   5.981   5.375  14.975  0.3708 -0.1427 -0.2374
  243SOD    SOD22303   1.626   1.508   5.968  0.1159 -0.5256 -0.0851
  244SOD    SOD22304   2.162   0.307   1.928  0.4026  0.0468 -0.3170
  245SOD    SOD22305   3.408   0.033   0.760  0.1052 -0.0270 -0.4768
  246SOD    SOD22306   2.546   1.859  12.590 -0.1249 -0.1387 -0.1299
  247SOD    SOD22307   5.045   0.486   3.864  0.0955 -0.0402 -0.2874
  248SOD    SOD22308   0.598   4.371   3.769 -0.5204  0.3608  0.1201
  249SOD    SOD22309   4.076   0.807  12.518 -0.3557  0.0527  0.2049
  250SOD    SOD22310   3.458   5.522   6.337  0.5890  0.1008  0.6400
  251SOD    SOD22311   1.887   2.260  13.368 -0.3808  0.1322 -0.1137
  252SOD    SOD22312   1.502   2.696   5.169  0.5752 -0.0437  0.0330
  253SOD    SOD22313   6.308   4.219   4.212 -0.3900 -0.0071 -0.1819
  254SOD    SOD22314   1.393   6.509  10.670 -0.8372 -0.0644  0.4555
  255SOD    SOD22315   0.940   4.540  13.431  0.1264  0.0784  0.1746
  256SOD    SOD22316   3.112   2.821   0.799 -0.1640  0.3907 -0.0491
  257SOD    SOD22317   1.986   5.393   0.549  0.3589  0.2519  0.0279
  258SOD    SOD22318   3.707   0.675   0.225 -0.4317 -0.2142 -0.0876
  259SOD    SOD22319   3.483   2.053   0.257  0.2745 -0.0624  0.2517
  260SOD    SOD22320   2.022   5.878   5.886 -0.1493 -0.1642  0.1153
  261SOD    SOD22321   4.373   3.615   6.391  0.0640  0.4281  0.4611
  262SOD    SOD22322   6.191   1.973  13.497  0.1260  0.5134  0.2165
  263SOD    SOD22323   0.191   5.414   0.774  0.3060  0.2006  0.5592
  264SOD    SOD22324   4.906   5.989  11.251 -0.0041  0.1821 -0.1744
  265SOD    SOD22325   4.503   5.215   5.309  0.0082 -0.4649 -0.1625
  266SOD    SOD22326   4.678   5.988   5.551 -0.2536  0.2214  0.0350
  267SOD    SOD22327   0.301   5.666  14.856  0.1728 -0.2419 -0.1820
  268SOD    SOD22328   4.756   2.529  14.495 -0.3548  0.0633 -0.1520
  269SOD    SOD22329   4.787   3.835  10.603 -0.3459 -0.1914  0.2337
  270CLA    CLA22330   4.087   1.229  13.366 -0.0518 -0.0652  0.2702
  271CLA    CLA22331   4.434   1.563  12.437 -0.1954 -0.1581 -0.2516
  272CLA    CLA22332   5.559   3.323  15.236  0.3165  0.3247  0.3034
  273CLA    CLA22333   1.553   1.364   5.738 -0.1029 -0.1584  0.1397
  274CLA    CLA22334   6.302   1.667  14.362 -0.1740 -0.0254 -0.1772
  275CLA    CLA22335   1.809   3.731   3.895 -0.2150 -0.2573  0.4428
  276CLA    CLA22336   5.332   2.276  12.768 -0.3031 -0.2663  0.5425
  277CLA    CLA22337   1.167   6.344   4.501 -0.0058  0.4623 -0.5620
  278CLA    CLA22338   5.860   2.692   5.569 -0.0058 -0.0624 -0.0182
  279CLA    CLA22339   4.336   2.878   1.613 -0.4758  0.2164 -0.1716
  280CLA    CLA22340   0.323   6.353   2.564 -0.4308  0.0357  0.0212
  281CLA    CLA22341   0.669   5.257  16.693  0.0973  0.0203  0.3710
  282CLA    CLA22342   2.799   5.612   3.657 -0.0576 -0.3281 -0.4632
  283CLA    CLA22343   1.749   2.144   4.126 -0.1456 -0.0116  0.2488
  284CLA    CLA22344   0.305   2.499   0.099  0.6355  0.1076 -0.2203
  285CLA    CLA22345   3.380   3.219  16.813  0.0716 -0.0383 -0.0930
  286CLA    CLA22346   1.463   4.059  14.646  0.0947  0.0555 -0.1130
  287CLA    CLA22347   6.061   1.665   3.509  0.0741  0.3818  0.1700
  288CLA    CLA22348   2.304   4.276   5.108 -0.5110 -0.0922 -0.0119
  289CLA    CLA22349   2.328   6.617  14.237  0.1692 -0.2194 -0.1220
  290CLA    CLA22350   2.963   5.059  14.441 -0.1371 -0.0370  0.2222
  291CLA    CLA22351   1.142   1.458   1.936  0.2882 -0.2466 -0.1248
  292CLA    CLA22352   3.265   1.500  15.967 -0.1234  0.3223  0.0404
  293CLA    CLA22353   1.995   5.005  12.020 -0.2688 -0.3439  0.0057
  294CLA    CLA22354   0.285   3.030   3.940 -0.0919 -0.3652  0.0094
  295CLA    CLA22355   2.890   5.181   0.729  0.2207  0.4555  0.0701
  296CLA    CLA22356   1.360   5.139   0.829  0.5256 -0.0506 -0.4119
  297CLA    CLA22357   2.563   4.489  15.281  0.2089  0.1229 -0.1903
  298CLA    CLA22358   1.365   1.345   5.282  0.3153  0.3090  0.5972
  299CLA    CLA22359   5.590   0.993   5.361 -0.2608 -0.2607  0.2417
  300CLA    CLA22360   4.161   2.232  16.260 -0.1398  0.3177 -0.2586
  301CLA    CLA22361   1.263   5.030   0.273 -0.2966 -0.3088 -0.4839
  302CLA    CLA22362   6.084   1.916  14.085  0.0526  0.2816  0.2603
  303CLA    CLA22363   6.054   2.570  15.044 -0.1813  0.4582 -0.0039
  304CLA    CLA22364   2.004   6.430  16.095 -0.2822 -0.0300  0.0515
  305CLA    CLA22365   4.554   5.336  13.255  0.0265 -0.0800 -0.2596
  306CLA    CLA22366   6.099   0.383   1.815 -0.2747 -0.0205  0.1111
  307CLA    CLA22367   4.726   4.501   1.930 -0.1339 -0.4196 -0.2139
  308CLA    CLA22368   2.254   1.224  12.690 -0.1127 -0.0672 -0.1978
  309CLA    CLA22369   2.285   1.470   4.871 -0.1510 -0.0251  0.0324
  310CLA    CLA22370   5.912   2.817  10.714 -0.2460 -0.2505  0.0470
  311CLA    CLA22371   1.236   3.846  16.635  0.2610  0.2132  0.2375
  312CLA    CLA22372   1.121   3.943   2.504 -0.0741  0.0780  0.6815
  313CLA    CLA22373   6.546   5.315  16.622 -0.1175 -0.2265  0.0374
  314CLA    CLA22374   4.032   5.637   4.084  0.1497 -0.0727 -0.0678
  315CLA    CLA22375   5.205   6.713   3.908  0.2298 -0.0700  0.3868
  316CLA    CLA22376   1.642   2.506   1.924  0.3966  0.2304 -0.3855
  317CLA    CLA22377   6.468   2.602  16.395 -0.1401  0.2093  0.1171
  318CLA    CLA22378   1.237   1.962  12.907  0.3950 -0.0068 -0.3104
  319CLA    CLA22379   0.271   3.812   4.696 -0.0867 -0.0582 -0.2943
  320CLA    CLA22380   1.963   1.899  12.809 -0.2815 -0.3828  0.2453
  321CLA    CLA22381   5.738   6.443   0.646  0.0229 -0.3822  0.1360
  322CLA    CLA22382   3.177   1.730   0.544  0.0661 -0.4436 -0.4461
  323TIP3   OH222383   2.026   2.571   2.890  0.4375  0.3405 -0.0184
  323TIP3    H122384   1.961   2.534   2.830 -0.4550  0.7679  0.6575
  323TIP3    H222385   2.073   2.635   2.837  0.6034 -0.2781 -0.6345
  324TIP3   OH222386   1.696   0.096  14.630 -0.3342 -0.4343 -0.0023
  324TIP3    H122387   1.622   0.091  14.690  1.1174 -0.9809  1.8660
  324TIP3    H222388   1.691   0.184  14.593 -0.7028  0.3674  1.7991
  325TIP3   OH222389   0.808   3.688  16.705 -0.0758  0.3054 -0.3035
  325TIP3    H122390   0.851   3.637  16.637  1.1431 -1.5435  1.7402
  325TIP3    H222391   0.751   3.626  16.749  1.6027  0.5248  2.3959
  326TIP3   OH222392   6.219   1.802   3.078  0.8109  0.1999  0.0026
  326TIP3    H122393   6.179   1.725   3.117 -1.8479  0.9164 -1.0739
  326TIP3    H222394   6.189   1.875   3.133  1.5866  0.6710 -0.1818
  327TIP3   OH222395   3.367   3.540  16.386 -0.2334  0.0975 -0.5617
  327TIP3    H122396   3.401   3.553  16.297  1.9148  0.4770  0.2349
  327TIP3    H222397   3.395   3.451  16.409  0.8007  0.6205  0.3174
  328TIP3   OH222398   4.369   5.727  16.464 -0.2951  0.0195 -0.2561
  328TIP3    H122399   4.341   5.728  16.556 -1.1785 -0.3416 -0.5094
  328TIP3    H222400   4.290   5.747  16.415  0.6438  2.6177 -0.8618
  329TIP3   OH222401   1.409   5.221   3.725  0.4023 -0.1662  0.2323
  329TIP3    H122402   1.434   5.284   3.657 -1.0481  0.3997  0.1791
  329TIP3    H222403   1.472   5.151   3.717 -1.1778 -1.4273 -3.5294
  330TIP3   OH222404   3.308   3.670  12.779 -0.5144  0.0631  0.5079
  330TIP3    H122405   3.341   3.585  12.808 -0.8789 -0.3236 -0.1862
  330TIP3    H222406   3.296   3.660  12.685 -2.3218  0.2890  0.6824
  331TIP3   OH222407   3.757   5.728   4.236  0.0829  0.0570 -1.0632
  331TIP3    H122408   3.834   5.675   4.216 -0.9447 -1.5735 -0.8519
  331TIP3    H222409   3.687   5.665   4.253 -0.6582  1.4036  1.5263
  332TIP3   OH222410   3.429   2.146  10.983 -0.0843 -0.0190  0.0145
  332TIP3    H122411   3.513   2.177  10.951  1.2574 -2.0374  1.3715
  332TIP3    H222412   3.390   2.101  10.909  1.2800 -1.3817  0.0771
  333TIP3   OH222413   4.216   0.490  14.040 -0.0867  0.0637 -0.2647
  333TIP3    H122414   4.205   0.443  14.122 -1.0282  0.4589 -0.1526
  333TIP3    H222415   4.149   0.453  13.982  0.9773 -0.6690 -1.0822
  334TIP3   OH222416   2.600   6.027  15.693  0.0962 -0.2681 -0.0203
  334TIP3    H122417   2.638   5.974  15.622 -0.0897 -0.3215 -0.0789
  334TIP3    H222418   2.506   6.021  15.680  0.0629 -0.2404  0.2069
  335TIP3   OH222419   5.171   1.194   1.713 -0.0917 -0.2099  0.1004
  335TIP3    H122420   5.155   1.230   1.801 -0.9249 -0.5171  0.0882
  335TIP3    H222421   5.258   1.155   1.718 -0.8125 -1.7683  1.3171
  336TIP3   OH222422   4.479   1.820   3.637  0.6248  0.0986 -0.7576
  336TIP3    H122423   4.552   1.810   3.576  1.4282  0.4187  0.1347
  336TIP3    H222424   4.433   1.898   3.608 -0.2610 -0.9151 -2.2128
  337TIP3   OH222425   3.773   4.506   0.513 -0.0827  0.0215 -0.0541
  337TIP3    H122426   3.807   4.527   0.600  0.5090  0.2287 -0.3359
  337TIP3    H222427   3.728   4.586   0.485  0.9197  0.4271 -0.5179
  338TIP3   OH222428   3.409   2.040  14.921 -0.5457 -0.0857  0.2668
  338TIP3    H122429   3.352   1.965  14.939 -1.0704  0.5476  1.3631
  338TIP3    H222430   3.440   2.067  15.007  0.5303  0.2717 -0.2264
  339TIP3   OH222431   4.118   5.949  14.670 -0.1884  0.8802 -0.8962
  339TIP3    H122432   4.181   5.943  14.742 -0.0748  1.3931 -0.9485
  339TIP3    H222433   4.159   5.901  14.598 -0.4001  0.1777 -0.5561
  340TIP3   OH222434   5.008   4.792   0.283 -0.2082  0.0165 -0.1821
  340TIP3    H122435   5.066   4.868   0.292  0.6990 -0.5727 -0.8705
  340TIP3    H222436   4.978   4.796   0.192 -0.9165  0.0610  0.0416
  341TIP3   OH222437   0.145   2.295  16.848  0.0365  0.3829  0.7780
  341TIP3    H122438   0.233   2.301  16.811 -0.9391 -0.4935 -1.9250
  341TIP3    H222439   0.131   2.202  16.864 -0.6975  0.4079  0.3348
  342TIP3   OH222440   4.871   1.419  11.886  0.0815  0.3595  0.5791
  342TIP3    H122441   4.896   1.487  11.948 -1.4240  0.8861  0.6346
  342TIP3    H222442   4.867   1.464  11.802 -0.4199  0.2349  0.5343
  343TIP3   OH222443   4.208   4.450  12.009 -0.3124 -0.1198  0.2997
  343TIP3    H122444   4.245   4.497  11.933 -0.7621 -0.4465 -0.1274
  343TIP3    H222445   4.161   4.518  12.058  0.4619  0.2097  0.6093
  344TIP3   OH222446   2.562   0.523   1.168  0.3281  0.3346 -0.2027
  344TIP3    H122447   2.553   0.436   1.206  0.5351 -0.4057 -1.7774
  344TIP3    H222448   2.472   0.556   1.161 -0.2508 -1.5339 -3.4656
  345TIP3   OH222449   6.456   6.476   2.911 -0.4583  0.3255 -0.3081
  345TIP3    H122450   6.376   6.454   2.960 -0.2108  1.1325  0.4959
  345TIP3    H222451   6.481   6.563   2.945 -0.4070  1.0190 -2.0400
  346TIP3   OH222452   2.948   1.407   4.090 -0.0008  0.7569 -0.0900
  346TIP3    H122453   2.909   1.495   4.086  3.5720  2.4503 -2.0590
  346TIP3    H222454   2.970   1.386   4.000  2.5444 -0.5063  0.7390
  347TIP3   OH222455   0.099   1.114  14.040  0.2403  0.1388 -0.1940
  347TIP3    H122456   0.167   1.050  14.063 -0.0462  0.3450  1.3394
  347TIP3    H222457   0.062   1.080  13.958  3.8810  1.4024 -2.6288
  348TIP3   OH222458   6.341   6.205   2.652 -0.1803  0.9922  0.0893
  348TIP3    H122459   6.377   6.139   2.593  0.8018 -0.3607  2.0788
  348TIP3    H222460   6.263   6.164   2.688  0.9508  0.4507  2.0529
  349TIP3   OH222461   0.678   3.746  13.685  0.2922  0.1366  0.1786
  349TIP3    H122462   0.761   3.701  13.704  1.7306  1.6656 -2.0989
  349TIP3    H222463   0.615   3.706  13.746  2.0583 -2.9775  0.1472
  350TIP3   OH222464   5.635   1.391   1.891 -0.5520 -0.2396 -0.0335
  350TIP3    H122465   5.712   1.385   1.948  0.5641  2.2258 -1.1011
  350TIP3    H222466   5.561   1.373   1.949  0.6361  0.3942  1.7910
  351TIP3   OH222467   6.706   1.211   1.724  0.4553  0.3046  0.2385
  351TIP3    H122468   6.635   1.154   1.752  1.5386 -1.3593 -0.2752
  351TIP3    H222469   6.746   1.241   1.806 -0.2027  0.4311  0.5179
  352TIP3   OH222470   4.585   0.525   2.587  0.5546 -0.2461  0.6768
  352TIP3    H122471   4.645   0.464   2.543 -2.0305 -0.0382 -3.7839
  352TIP3    H222472   4.512   0.471   2.615 -1.1172  0.4236 -2.0587
  353TIP3   OH222473   0.567   3.173  16.851 -0.2095 -0.6851  0.1815
  353TIP3    H122474   0.472   3.190  16.851 -0.0308  0.4144 -0.1008
  353TIP3    H222475   0.576   3.091  16.899 -1.2243 -0.2760  1.1369
  354TIP3   OH222476   0.580   2.886   4.572  0.2518  0.4380 -0.0397
  354TIP3    H122477   0.602   2.800   4.608  1.9001  0.7308 -0.2832
  354TIP3    H222478   0.526   2.927   4.640 -1.1016 -1.0002 -0.1893
  355TIP3   OH222479   3.447   5.926   0.888 -0.1843  0.6437 -0.5782
  355TIP3    H122480   3.521   5.873   0.918 -0.6004 -0.1592 -0.9144
  355TIP3    H222481   3.447   5.914   0.793  0.0619  1.7339 -0.7293
  356TIP3   OH222482   3.451   2.020   0.019 -0.5047 -0.5314 -0.6155
  356TIP3    H122483   3.453   1.925   0.005 -0.7486 -0.6057 -0.1827
  356TIP3    H222484   3.442   2.057  -0.069 -0.4177 -0.9105 -0.7864
  357TIP3   OH222485   3.946   5.966   4.344  0.2740 -0.6059 -0.0623
  357TIP3    H122486   3.862   5.934   4.309 -0.8467 -0.7130  2.5375
  357TIP3    H222487   3.982   5.891   4.391  1.1152 -0.0957  0.1185
  358TIP3   OH222488   5.688   4.301   1.442  0.4313 -0.3476  0.5370
  358TIP3    H122489   5.738   4.371   1.484  0.8475 -0.0703 -0.3797
  358TIP3    H222490   5.645   4.255   1.514  0.0577  0.9179  1.1468
  359TIP3   OH222491   1.649   1.339  11.083  0.6955  0.0487 -0.2852
  359TIP3    H122492   1.740   1.311  11.072  0.9551  1.2498 -1.5343
  359TIP3    H222493   1.598   1.259  11.074  1.6494 -0.7623  1.1887
  360TIP3   OH222494   4.445   2.625  13.619 -0.6602  0.3906  0.4098
  360TIP3    H122495   4.350   2.631  13.631 -0.6066  1.1686  0.4847
  360TIP3    H222496   4.464   2.683  13.545 -0.2996 -0.1199  0.1008
  361TIP3   OH222497   0.662   5.450   1.178  0.1221  0.0419  0.3069
  361TIP3    H122498   0.716   5.376   1.150  0.0507 -0.5481  1.6710
  361TIP3    H222499   0.699   5.478   1.261 -0.3681  1.0137  0.2167
  362TIP3   OH222500   4.625   5.132  14.171 -0.6005  1.1577  0.1161
  362TIP3    H122501   4.630   5.123  14.076 -1.6082 -3.1749  0.2851
  362TIP3    H222502   4.531   5.140  14.189 -0.4223  1.8786  0.7961
  363TIP3   OH222503   2.334   1.482   2.249 -0.4438  0.0910  0.2688
  363TIP3    H122504   2.338   1.417   2.318  1.1843 -1.5521 -1.2450
  363TIP3    H222505   2.328   1.431   2.168 -1.8409  1.9136 -0.8649
  364TIP3   OH222506   2.134   3.579   3.151  0.3027  0.0664 -0.4551
  364TIP3    H122507   2.132   3.675   3.150 -1.3852  0.2111  3.2426
  364TIP3    H222508   2.058   3.554   3.098  0.6355  0.7225 -1.2786
  365TIP3   OH222509   5.789   5.096  10.751  0.1678  0.4940 -0.0696
  365TIP3    H122510   5.814   5.015  10.707 -0.2306 -0.9609  2.1863
  365TIP3    H222511   5.693   5.093  10.756  0.2482 -0.1970  2.1642
  366TIP3   OH222512   4.781   0.665   4.851 -0.5928  0.3146  0.2944
  366TIP3    H122513   4.821   0.710   4.925  1.0016  1.2562 -1.0510
  366TIP3    H222514   4.729   0.733   4.807  1.5782  0.9201 -1.5721
  367TIP3   OH222515   6.185   3.006   4.308  0.2779  0.3701 -0.5070
  367TIP3    H122516   6.175   3.026   4.215 -0.6925 -2.4450 -1.1097
  367TIP3    H222517   6.234   2.924   4.309  0.5862  0.5281  1.5120
  368TIP3   OH222518   3.319   2.786   5.722 -0.4095  0.0419 -0.1932
  368TIP3    H122519   3.259   2.842   5.773  0.7583  0.7219  0.4820
  368TIP3    H222520   3.327   2.707   5.774 -0.5840  0.0203 -0.1979
  369TIP3   OH222521   1.280   4.684   4.515 -0.4259 -0.3269 -0.4842
  369TIP3    H122522   1.343   4.656   4.449  0.7470  1.7028 -0.3227
  369TIP3    H222523   1.239   4.603   4.545  1.3577 -1.6262 -1.3510
  370TIP3   OH222524   1.730   6.377   1.285 -0.4261  0.6415  0.1536
  370TIP3    H122525   1.756   6.460   1.325 -3.0229  0.5148  2.4261
  370TIP3    H222526   1.656   6.348   1.338 -0.1475 -2.7346 -1.1003
  371TIP3   OH222527   2.934   2.744  14.733  0.1823  0.3897 -0.0701
  371TIP3    H122528   2.968   2.822  14.690  2.2349 -0.9390 -1.0131
  371TIP3    H222529   3.009   2.709  14.782 -1.1984  0.0168  1.9356
  372TIP3   OH222530   3.780   2.928  16.712  0.0234 -0.0503  0.0583
  372TIP3    H122531   3.761   3.022  16.702  0.2365 -0.0996 -0.8584
  372TIP3    H222532   3.868   2.925  16.747  0.0877  0.0914 -0.0892
  373TIP3   OH222533   3.744   4.524   4.268 -0.2713 -0.1496 -0.1157
  373TIP3    H122534   3.757   4.614   4.238  0.8059  0.1368  1.1374
  373TIP3    H222535   3.650   4.509   4.257  0.0020 -0.0865 -3.5204
  374TIP3   OH222536   2.025   1.192  12.914  0.2628 -0.5738 -0.2073
  374TIP3    H122537   2.096   1.200  12.850 -0.6116  2.3014 -0.9789
  374TIP3    H222538   2.055   1.242  12.989 -1.2937  1.7180 -0.9920
  375TIP3   OH222539   3.140   1.494  11.070 -0.4931  0.1418  0.6424
  375TIP3    H122540   3.050   1.488  11.102  0.3201 -0.6436  2.9975
  375TIP3    H222541   3.194   1.475  11.147  1.7644  2.8029 -0.1235
  376TIP3   OH222542   0.846   5.021  14.891 -0.0324  0.2443  0.6077
  376TIP3    H122543   0.819   4.929  14.881 -0.3843  0.0791  2.7229
  376TIP3    H222544   0.912   5.020  14.960  0.2386  1.5476  0.3974
  377TIP3   OH222545   3.248   2.818  13.836 -0.4414 -0.0862  0.5217
  377TIP3    H122546   3.259   2.893  13.778  0.7686  1.4881  2.6488
  377TIP3    H222547   3.156   2.793  13.827 -0.3457  0.2370 -1.8200
  378TIP3   OH222548   3.976   3.153   3.774 -0.3302 -0.1563 -0.3765
  378TIP3    H122549   4.001   3.159   3.866 -0.0941  1.4679 -0.4997
  378TIP3    H222550   3.936   3.067   3.764 -0.5193 -0.2813  1.2798
  379TIP3   OH222551   1.672   0.846   2.890  0.4633  0.9049 -0.6070
  379TIP3    H122552   1.585   0.886   2.893 -0.9182 -1.7875 -0.8080
  379TIP3    H222553   1.695   0.845   2.797 -0.3664 -0.3499 -0.8253
  380TIP3   OH222554   5.351   5.888  16.777 -0.3771  0.0013  0.7805
  380TIP3    H122555   5.337   5.816  16.839  0.9570 -0.1840  0.8990
  380TIP3    H222556   5.406   5.850  16.708 -0.5416  0.6282  0.2931
  381TIP3   OH222557   5.011   1.110  12.259 -0.0763 -0.4062  0.3548
  381TIP3    H122558   5.092   1.103  12.311  0.2535 -1.3743 -0.2555
  381TIP3    H222559   4.958   1.035  12.287  0.6975 -1.7860 -1.6418
  382TIP3   OH222560   6.183   3.156   4.533  0.5303  0.2900  0.3160
  382TIP3    H122561   6.166   3.103   4.456  3.2000 -0.3108  0.0450
  382TIP3    H222562   6.254   3.111   4.579  0.5114  1.7891  1.9548
  383TIP3   OH222563   6.371   5.248   3.275  0.6424  0.2496 -0.2503
  383TIP3    H122564   6.297   5.294   3.236 -1.0023  0.2028  2.5732
  383TIP3    H222565   6.440   5.255   3.209 -1.1399  2.2575 -2.0812
  384TIP3   OH222566   2.142   1.148   1.364 -0.3351  0.2887 -0.3705
  384TIP3    H122567   2.147   1.174   1.272  1.5345  1.9189  0.0977
  384TIP3    H222568   2.213   1.085   1.375 -0.5824  0.0619 -0.0660
  385TIP3   OH222569   3.062   4.282  13.494  0.4875 -0.4528  0.0480
  385TIP3    H122570   3.012   4.280  13.576  0.2063 -1.1963 -0.1323
  385TIP3    H222571   3.153   4.289  13.522  0.3619 -0.2221  0.4115
  386TIP3   OH222572   0.706   1.648  15.519  0.2034  0.1863 -0.4021
  386TIP3    H122573   0.624   1.603  15.499  0.6097 -0.4803 -0.6069
  386TIP3    H222574   0.722   1.704  15.443 -0.2728  0.6381 -0.1742
  387TIP3   OH222575   2.202   2.953  12.253  0.0891  0.1679 -0.4845
  387TIP3    H122576   2.267   2.995  12.309  0.4809  1.0404 -1.5673
  387TIP3    H222577   2.252   2.891  12.200 -0.2819 -0.6634  0.1123
  388TIP3   OH222578   3.085   0.067  13.598 -0.6335  0.6179 -0.4020
  388TIP3    H122579   3.005   0.014  13.600  0.7000 -1.6158 -1.5376
  388TIP3    H222580   3.057   0.151  13.563 -2.2362 -0.6725 -2.4656
  389TIP3   OH222581   3.504   0.174   2.143 -0.0777  0.1093  1.1172
  389TIP3    H122582   3.504   0.093   2.092 -0.9116 -0.5722  2.1746
  389TIP3    H222583   3.432   0.226   2.106  1.6505  1.2642 -0.8627
  390TIP3   OH222584   3.169   2.287  12.603 -0.5043 -0.1160 -0.0887
  390TIP3    H122585   3.180   2.326  12.690 -3.4778 -0.5535  0.5805
  390TIP3    H222586   3.239   2.222  12.597  0.1330  0.3389  1.7149
  391TIP3   OH222587   1.206   1.430  15.638 -0.1523  0.3719  0.3075
  391TIP3    H122588   1.230   1.351  15.590 -0.5868 -0.5358  1.5320
  391TIP3    H222589   1.266   1.497  15.606  1.5783 -0.9418  0.6516
  392TIP3   OH222590   0.962   1.939  13.614  0.4002 -0.3251  0.1551
  392TIP3    H122591   0.868   1.925  13.610  0.0790  1.0556  1.6154
  392TIP3    H222592   0.971   2.034  13.620  1.7791 -0.5158  1.7496
  393TIP3   OH222593   3.536   6.746  13.436 -0.0640 -0.2616  0.1442
  393TIP3    H122594   3.444   6.746  13.409 -0.1078 -0.7555  0.2815
  393TIP3    H222595   3.582   6.793  13.367 -0.4518  0.1838  0.1847
  394TIP3   OH222596   1.387   5.924   4.764 -0.2615  0.1781 -0.1813
  394TIP3    H122597   1.478   5.948   4.781 -0.9434  2.3530  0.8108
  394TIP3    H222598   1.337   5.999   4.796 -2.3744 -0.7001 -1.2728
  395TIP3   OH222599   4.615   5.426  11.147 -0.3374  0.3297 -0.2269
  395TIP3    H122600   4.592   5.335  11.131  0.5451  0.0600  0.0080
  395TIP3    H222601   4.706   5.434  11.116  0.2872  0.6266  1.5986
  396TIP3   OH222602   2.858   0.113  12.849 -0.6364  0.4013  0.0323
  396TIP3    H122603   2.793   0.136  12.914 -0.7580  2.9857 -0.8876
  396TIP3    H222604   2.815   0.129  12.765 -0.4598 -2.7627 -0.7997
  397TIP3   OH222605   2.528   0.823   6.097  0.3896 -0.1785  0.4189
  397TIP3    H122606   2.526   0.785   6.009  0.3969  1.8362 -0.5290
  397TIP3    H222607   2.621   0.829   6.118  0.5287  1.3214 -0.4321
  398TIP3   OH222608   3.470   5.335   2.231 -0.0267 -0.1352 -0.5323
  398TIP3    H122609   3.394   5.277   2.235 -1.7049  1.9938  0.4616
  398TIP3    H222610   3.465   5.386   2.312  1.0292  1.7419 -1.5804
  399TIP3   OH222611   1.675   3.269   2.589  0.2472  0.3526  0.2386
  399TIP3    H122612   1.649   3.316   2.509  0.7070 -0.6896 -0.5402
  399TIP3    H222613   1.769   3.284   2.597  0.3560 -0.2439  0.1090
  400TIP3   OH222614   6.710   0.544   4.014 -0.3671 -0.0144  0.3501
  400TIP3    H122615   6.800   0.512   4.015 -0.5992 -0.7881  2.5428
  400TIP3    H222616   6.657   0.466   4.025 -1.2826  0.5104 -0.2383
  401TIP3   OH222617   4.844   1.521   1.441 -0.5218  0.5675 -0.1242
  401TIP3    H122618   4.909   1.520   1.511  1.9259 -0.3629 -2.2138
  401TIP3    H222619   4.761   1.539   1.485  0.5510 -1.6731  3.2154
  402TIP3   OH222620   5.101   4.078  12.244  0.4436  0.1981 -0.2517
  402TIP3    H122621   5.044   4.048  12.315 -0.1071  1.0475 -0.3168
  402TIP3    H222622   5.181   4.027  12.254 -0.3787 -1.1186 -0.2532
  403TIP3   OH222623   3.893   5.839  12.091  0.1482 -0.0506 -0.0717
  403TIP3    H122624   3.806   5.862  12.058 -0.0282  1.5530  1.3058
  403TIP3    H222625   3.879   5.758  12.140 -0.4545 -0.1370 -0.3739
  404TIP3   OH222626   2.365   6.710   3.617  0.2817  0.0411 -0.7216
  404TIP3    H122627   2.323   6.722   3.532  0.9140  0.4069 -0.9964
  404TIP3    H222628   2.298   6.671   3.672 -0.1703 -0.1044 -1.3616
  405TIP3   OH222629   3.111   3.442   5.989  0.1234  0.6991 -1.1117
  405TIP3    H122630   3.200   3.409   5.996  0.0560  0.5662 -0.8460
  405TIP3    H222631   3.065   3.403   6.064 -0.2558  0.4450 -1.4642
  406TIP3   OH222632   4.901   1.303  12.437  0.0002 -0.7553  0.1462
  406TIP3    H122633   4.928   1.243  12.367 -1.1465 -0.5718 -0.4698
  406TIP3    H222634   4.831   1.355  12.399  2.2957  2.4915 -0.0814
  407TIP3   OH222635   6.723   3.889   2.666  0.5949 -0.2830 -0.4563
  407TIP3    H122636   6.788   3.937   2.717 -0.1856 -0.3854  0.6593
  407TIP3    H222637   6.738   3.797   2.689 -0.5006 -0.2417  0.4941
  408TIP3   OH222638   3.055   0.756   1.171 -0.3682 -0.0622  0.2242
  408TIP3    H122639   3.089   0.745   1.083  0.3577 -0.6002  0.5569
  408TIP3    H222640   2.977   0.701   1.174  1.1824 -2.3823  0.7459
  409TIP3   OH222641   6.439   1.234   2.644  0.2226  0.1791 -0.2640
  409TIP3    H122642   6.518   1.279   2.675 -0.9028  0.4609  2.5354
  409TIP3    H222643   6.367   1.289   2.675 -1.1196 -0.3883 -2.2123
  410TIP3   OH222644   0.709   4.050   1.300 -0.0270 -0.3992  0.3696
  410TIP3    H122645   0.741   3.969   1.260  0.8893 -0.4929  1.2432
  410TIP3    H222646   0.665   4.096   1.229  1.7511 -0.4491 -0.8233
  411TIP3   OH222647   0.869   3.406   0.113 -0.0617  0.0685  0.0821
  411TIP3    H122648   0.782   3.371   0.133  0.0890 -0.4521 -0.1756
  411TIP3    H222649   0.929   3.355   0.168  0.4294 -1.7687 -2.0150
  412TIP3   OH222650   6.653   1.754  11.322 -0.5024  0.0145 -0.3985
  412TIP3    H122651   6.571   1.781  11.280 -0.1170  0.2469 -1.0024
  412TIP3    H222652   6.659   1.661  11.305 -0.3246  0.1174 -0.8927
  413TIP3   OH222653   5.673   4.594   2.194 -0.4731  0.4292 -0.8356
  413TIP3    H122654   5.722   4.516   2.219 -0.6131  0.7121  0.3896
  413TIP3    H222655   5.739   4.659   2.173 -0.2941  0.7684  0.6791
  414TIP3   OH222656   3.700   5.632   3.218  0.3466 -0.4232  0.3946
  414TIP3    H122657   3.742   5.547   3.225 -1.4662 -1.4780 -0.6200
  414TIP3    H222658   3.771   5.695   3.221  1.7978 -2.0121  0.5188
  415TIP3   OH222659   0.495   3.872  14.799 -0.1175  0.0861 -0.6892
  415TIP3    H122660   0.528   3.962  14.797 -1.7539  0.7519  0.0840
  415TIP3    H222661   0.412   3.877  14.751 -0.0863 -1.0953 -0.8840
  416TIP3   OH222662   0.737   1.626  12.568 -0.2229  0.3581  0.1346
  416TIP3    H122663   0.707   1.704  12.521 -1.2650 -0.1237 -0.0329
  416TIP3    H222664   0.807   1.658  12.625 -0.0532  1.2523 -0.5446
  417TIP3   OH222665   0.464   6.359   1.592 -0.1382 -0.5042 -0.2907
  417TIP3    H122666   0.509   6.356   1.676  1.1664  0.1881 -0.9439
  417TIP3    H222667   0.531   6.387   1.529 -1.7240  1.7645 -1.1138
  418TIP3   OH222668   6.457   1.530   5.468  0.1440 -0.0147  0.2479
  418TIP3    H122669   6.524   1.530   5.399 -1.3417  0.7662 -1.2715
  418TIP3    H222670   6.471   1.612   5.515  0.9711 -0.4067  0.7113
  419TIP3   OH222671   6.083   2.676   5.191 -0.0218 -0.1272 -0.0728
  419TIP3    H122672   6.018   2.623   5.238 -0.3626  1.4068  1.3067
  419TIP3    H222673   6.032   2.747   5.152  0.5960  0.0526 -0.5614
  420TIP3   OH222674   3.260   4.881  11.125 -0.4550 -0.2619  0.5861
  420TIP3    H122675   3.255   4.832  11.043 -1.4222  0.4719  0.1882
  420TIP3    H222676   3.328   4.836  11.176 -0.8574 -1.6061 -0.0277
  421TIP3   OH222677   3.557   6.782  13.116 -0.1385 -0.6240 -0.2813
  421TIP3    H122678   3.553   6.749  13.026 -1.8987  0.2876 -0.5884
  421TIP3    H222679   3.640   6.750  13.150  0.6501 -0.8541 -2.2883
  422TIP3   OH222680   2.104   0.002  15.000 -0.0070  0.2276  0.2376
  422TIP3    H122681   2.087   0.023  15.092 -3.6768 -2.4771  0.3783
  422TIP3    H222682   2.022   0.024  14.955  1.4640  0.8458 -2.3296
  423TIP3   OH222683   3.192   1.818   5.112 -0.2987 -0.5377 -0.1354
  423TIP3    H122684   3.134   1.894   5.116 -0.5731 -0.3949 -3.5688
  423TIP3    H222685   3.278   1.855   5.092  0.0919 -1.0174  0.6246
  424TIP3   OH222686   4.640   5.082  16.771 -0.0020 -0.4744  0.0558
  424TIP3    H122687   4.644   5.044  16.684  2.9019  0.1853 -0.1944
  424TIP3    H222688   4.582   5.158  16.762 -0.9169 -1.2530 -0.8890
  425TIP3   OH222689   2.960   3.877  10.506  0.5636  0.2838  0.5460
  425TIP3    H122690   2.927   3.788  10.514  0.8690 -0.2029 -2.4352
  425TIP3    H222691   2.882   3.932  10.514 -0.2977 -0.5476 -1.4834
  426TIP3   OH222692   4.062   2.991  15.768  0.5726  0.5910  0.0356
  426TIP3    H122693   4.081   2.922  15.705  4.6916  0.8763  0.6599
  426TIP3    H222694   4.049   3.069  15.715  1.4011  0.3441 -0.5469
  427TIP3   OH222695   6.591   3.096  15.103 -0.3280 -0.2873 -0.5733
  427TIP3    H122696   6.567   3.165  15.042 -0.2332 -1.3935 -1.9036
  427TIP3    H222697   6.677   3.066  15.073 -0.5144 -1.2065 -0.2364
  428TIP3   OH222698   5.460   3.044  12.186  0.1496 -0.4616  0.6491
  428TIP3    H122699   5.461   2.961  12.234  1.3934 -0.9082 -0.1203
  428TIP3    H222700   5.415   3.023  12.104  1.0965 -0.5599  0.1498
  429TIP3   OH222701   4.645   5.589  12.629 -0.7340 -0.2309 -0.5762
  429TIP3    H122702   4.723   5.643  12.644 -0.8772  0.0594 -0.8713
  429TIP3    H222703   4.622   5.556  12.716  0.0156 -0.7276 -0.5543
  430TIP3   OH222704   5.503   0.485  12.946 -0.1545 -0.2262  0.1322
  430TIP3    H122705   5.411   0.485  12.973 -0.3971  1.2155 -0.6130
  430TIP3    H222706   5.501   0.504  12.853  0.9034 -0.2880  0.0819
  431TIP3   OH222707   3.358   6.363  16.723 -0.6611 -0.3163  0.7605
  431TIP3    H122708   3.431   6.422  16.734 -1.4815  0.4237  2.6596
  431TIP3    H222709   3.397   6.281  16.694  0.8554  0.2207  1.2267
  432TIP3   OH222710   0.509   5.052   2.304  0.0190  0.1310  0.0639
  432TIP3    H122711   0.474   4.965   2.326 -0.3116  0.1148 -0.5198
  432TIP3    H222712   0.432   5.108   2.299  0.2820  0.6103  1.0672
  433TIP3   OH222713   4.093   4.974   1.833 -0.4080  0.4736  0.1971
  433TIP3    H122714   4.030   4.951   1.765 -0.3693  0.5672  0.1284
  433TIP3    H222715   4.144   5.046   1.795  1.6795 -1.4800 -0.8993
  434TIP3   OH222716   6.498   3.045  11.979  0.8294  0.3324  1.0607
  434TIP3    H122717   6.448   2.986  12.035  2.7810  1.0531  3.7570
  434TIP3    H222718   6.473   3.021  11.890 -2.6825 -0.6980  2.1607
  435TIP3   OH222719   5.657   3.782  11.309  0.6839 -1.0582 -0.0497
  435TIP3    H122720   5.651   3.700  11.260 -1.8194  0.2958 -2.2707
  435TIP3    H222721   5.638   3.850  11.245  0.1752  1.0912  2.2139
  436TIP3   OH222722   1.960   4.632   0.817  0.1339  0.1119 -0.0476
  436TIP3    H122723   1.987   4.716   0.853  0.9924 -0.9268  1.8828
  436TIP3    H222724   1.987   4.635   0.725  1.3624  1.4171  0.3252
  437TIP3   OH222725   6.452   2.575  10.854  0.0228  0.2584 -0.2003
  437TIP3    H122726   6.468   2.481  10.858 -1.1398  0.0859  1.5348
  437TIP3    H222727   6.539   2.615  10.853  0.5343 -0.8051  0.4477
  438TIP3   OH222728   1.132   6.652  15.450  0.1304  0.2163 -0.2434
  438TIP3    H122729   1.107   6.682  15.537  1.7956 -0.1276  0.3848
  438TIP3    H222730   1.204   6.592  15.465  1.2418  1.0482 -1.9335
  439TIP3   OH222731   5.289   1.965  13.572  0.6445 -0.0812 -0.0656
  439TIP3    H122732   5.267   1.884  13.618  0.3282  0.7774  1.3969
  439TIP3    H222733   5.205   1.999  13.541  0.3331  1.1130  1.8951
  440TIP3   OH222734   5.870   4.861  12.217 -0.0048 -0.6233 -0.3852
  440TIP3    H122735   5.916   4.928  12.268 -1.2100  0.1697 -0.3132
  440TIP3    H222736   5.920   4.855  12.135  0.9428 -0.6761  0.1774
  441TIP3   OH222737   5.248   2.111  15.245  0.4354  0.6898  0.2186
  441TIP3    H122738   5.184   2.077  15.308  1.8576 -1.9116  0.4216
  441TIP3    H222739   5.197   2.130  15.167 -0.6443 -1.6802  0.2366
  442TIP3   OH222740   2.341   5.357  14.863  0.4046  0.1236 -0.4533
  442TIP3    H122741   2.375   5.362  14.774  1.3544  1.1946 -0.0535
  442TIP3    H222742   2.417   5.342  14.918 -0.1302 -0.1968  0.2213
  443TIP3   OH222743   2.023   6.494  13.424 -0.1302 -0.8495 -0.3086
  443TIP3    H122744   2.115   6.515  13.437 -0.8185  0.8643  2.7650
  443TIP3    H222745   1.992   6.560  13.362  0.1758  0.3533  0.7616
  444TIP3   OH222746   5.545   4.334   3.613 -0.2811  0.9343 -0.0400
  444TIP3    H122747   5.479   4.286   3.564  0.3162  1.0999 -1.0168
  444TIP3    H222748   5.494   4.387   3.675 -0.9480 -1.0602  1.2100
  445TIP3   OH222749   1.902   4.585  10.962 -0.0630  0.4337 -0.3182
  445TIP3    H122750   1.879   4.587  11.055  0.0988 -0.4449 -0.2524
  445TIP3    H222751   1.849   4.655  10.923 -3.5426 -1.9187 -0.3098
  446TIP3   OH222752   5.413   5.458  16.773  0.4642 -0.3498 -0.5199
  446TIP3    H122753   5.392   5.537  16.823  1.4039 -0.0184 -0.6261
  446TIP3    H222754   5.350   5.458  16.701 -1.4970 -1.3062  1.0988
  447TIP3   OH222755   1.905   0.557  16.672 -0.8842 -0.2975  0.1774
  447TIP3    H122756   1.951   0.570  16.589 -1.0371 -1.2885 -0.0785
  447TIP3    H222757   1.812   0.551  16.647 -1.0444  0.4921  0.5545
  448TIP3   OH222758   0.223   0.164   4.461  0.9856 -0.0382  0.3824
  448TIP3    H122759   0.240   0.159   4.555 -0.3488  3.0144  0.9096
  448TIP3    H222760   0.169   0.087   4.442  4.2417 -2.7561  1.2380
  449TIP3   OH222761   6.110   6.141  16.251  0.7419  0.3146  0.4971
  449TIP3    H122762   6.142   6.229  16.231  2.6806 -0.4677 -0.1337
  449TIP3    H222763   6.071   6.148  16.338  1.8089  1.5856  0.8975
  450TIP3   OH222764   5.717   4.067   6.285 -0.4145  0.1498  0.1023
  450TIP3    H122765   5.808   4.087   6.265 -0.6247 -0.5861 -1.7781
  450TIP3    H222766   5.706   3.975   6.259 -1.5577  0.0385  0.8628
  451TIP3   OH222767   2.276   0.847   3.972 -0.0586 -0.7460  0.4135
  451TIP3    H122768   2.315   0.930   4.001 -2.8651  0.5736  0.7421
  451TIP3    H222769   2.247   0.864   3.882 -0.2114 -1.5455  0.3038
  452TIP3   OH222770   6.256   5.333   1.051  0.3944  0.0038 -0.1237
  452TIP3    H122771   6.263   5.261   0.988 -1.9386 -1.0874  0.7268
  452TIP3    H222772   6.258   5.412   0.997  1.5939 -0.7424 -1.2328
  453TIP3   OH222773   3.509   2.921  16.820  0.4722  0.2455  0.6062
  453TIP3    H122774   3.586   2.931  16.764  0.6641  0.5263  0.9141
  453TIP3    H222775   3.458   3.001  16.805  0.9625  0.7417  1.4862
  454TIP3   OH222776   3.850   3.063   5.032  0.0572  0.2168  0.2499
  454TIP3    H122777   3.894   3.118   5.097  1.5722 -0.4966 -0.1240
  454TIP3    H222778   3.757   3.085   5.040  0.5880  2.7253  0.1988
  455TIP3   OH222779   0.195   4.740   5.977  0.1993  0.2356  0.8497
  455TIP3    H122780   0.198   4.832   6.001  0.9453 -0.1306  2.2634
  455TIP3    H222781   0.170   4.695   6.057 -0.0528 -0.8072  0.2039
  456TIP3   OH222782   1.566   2.368   4.516 -0.2059 -0.1802 -0.2954
  456TIP3    H122783   1.531   2.402   4.434  0.1174 -1.6269 -1.0683
  456TIP3    H222784   1.504   2.299   4.542  1.6227 -2.3798 -1.3776
  457TIP3   OH222785   4.112   3.497   5.295 -0.3177 -0.3259 -1.0566
  457TIP3    H122786   4.160   3.527   5.373 -1.9075 -2.9818  1.1211
  457TIP3    H222787   4.061   3.573   5.268 -1.3407  0.1725  1.8799
  458TIP3   OH222788   3.178   3.375   5.092 -0.3991 -0.3403 -0.6343
  458TIP3    H122789   3.266   3.390   5.125  0.4301 -1.0360 -2.3981
  458TIP3    H222790   3.143   3.462   5.075 -0.6635  0.0091  1.4933
  459TIP3   OH222791   5.591   3.966  15.243  0.6186 -0.0901  0.7978
  459TIP3    H122792   5.636   4.051  15.247  0.8554 -0.2348  1.2989
  459TIP3    H222793   5.629   3.921  15.168  0.5063  0.2379  0.5413
  460TIP3   OH222794   4.240   1.295  12.356  0.4407 -0.0203 -0.2805
  460TIP3    H122795   4.297   1.366  12.384  1.0152 -0.0155 -1.4316
  460TIP3    H222796   4.271   1.272  12.269 -2.1884  0.9420 -1.5754
  461TIP3   OH222797   0.273   0.289  12.521  0.3684 -0.7635  0.4866
  461TIP3    H122798   0.224   0.208  12.509  0.5074 -0.7746 -0.0445
  461TIP3    H222799   0.365   0.262  12.514  0.3922 -0.3102 -1.4838
  462TIP3   OH222800   1.649   2.908   0.277 -0.7571 -0.2899 -0.1280
  462TIP3    H122801   1.705   2.928   0.202 -1.0435  2.4773  0.3126
  462TIP3    H222802   1.569   2.872   0.239 -1.7018  2.8284 -1.4350
  463TIP3   OH222803   2.641   1.914  13.760  0.9447  1.1488 -0.1597
  463TIP3    H122804   2.645   2.010  13.763  1.0779  1.1296  1.2471
  463TIP3    H222805   2.587   1.894  13.684 -0.2553  2.4017  0.3134
  464TIP3   OH222806   1.047   1.545  16.204 -0.1575  0.2572 -0.0764
  464TIP3    H122807   1.018   1.480  16.139 -3.2274  2.2493 -0.8833
  464TIP3    H222808   1.130   1.578  16.168 -1.1367  0.3928 -2.3968
  465TIP3   OH222809   5.813   2.391   2.312  0.2885  0.0138  0.3674
  465TIP3    H122810   5.755   2.466   2.323  0.2368  0.3762 -1.9372
  465TIP3    H222811   5.803   2.365   2.220  0.3605 -2.7804  1.0469
  466TIP3   OH222812   3.339   4.108  14.626 -0.6059  0.0758 -0.0711
  466TIP3    H122813   3.319   4.068  14.711 -0.3475 -0.5452 -0.2909
  466TIP3    H222814   3.381   4.191  14.647 -0.5290 -0.0828  0.4112
  467TIP3   OH222815   5.748   6.711   4.869 -0.9092  0.2083  0.8674
  467TIP3    H122816   5.714   6.801   4.864 -0.3323  0.4210  0.7715
  467TIP3    H222817   5.683   6.659   4.822 -1.8629  0.3916  1.9308
  468TIP3   OH222818   3.523   2.110   2.985 -0.0243  0.2416  0.1653
  468TIP3    H122819   3.446   2.053   2.994  0.1985 -0.3174 -1.2260
  468TIP3    H222820   3.486   2.199   2.983 -0.5489  0.0379  0.4348
  469TIP3   OH222821   4.559   5.891  12.028  0.1932  0.1547 -0.0249
  469TIP3    H122822   4.649   5.862  12.041  0.1331  0.0087  0.0643
  469TIP3    H222823   4.526   5.837  11.956 -0.0123 -0.2033  0.3361
  470TIP3   OH222824   4.828   5.799  11.393  0.0197  0.2052  0.0486
  470TIP3    H122825   4.733   5.791  11.395 -0.3105  2.9846  0.3089
  470TIP3    H222826   4.859   5.750  11.469 -1.0914 -1.4541 -0.5207
  471TIP3   OH222827   0.326   2.381   4.954  0.0682  0.0070 -0.2262
  471TIP3    H122828   0.264   2.388   4.882  0.2734 -1.4758 -0.5808
  471TIP3    H222829   0.308   2.296   4.993  0.8500  0.2188  0.6347
  472TIP3   OH222830   3.742   1.313  14.965  0.2169  0.0323  0.7339
  472TIP3    H122831   3.737   1.406  14.986 -1.6802  0.2468 -0.3989
  472TIP3    H222832   3.650   1.286  14.956  0.7696 -1.6183 -0.3123
  473TIP3   OH222833   0.069   6.205  14.051  0.0832 -0.8963  0.1611
  473TIP3    H122834   0.119   6.255  13.986 -1.5886 -0.1190 -0.5832
  473TIP3    H222835   0.031   6.271  14.108  0.2194 -1.5007  0.9737
  474TIP3   OH222836   1.754   2.538   0.749  0.0582 -0.0288  0.0530
  474TIP3    H122837   1.708   2.485   0.684 -0.9457 -1.3827  1.7638
  474TIP3    H222838   1.755   2.626   0.712  0.8056 -0.9808 -2.4043
  475TIP3   OH222839   6.784   0.900   5.772 -0.0746 -0.5355 -0.0531
  475TIP3    H122840   6.690   0.915   5.783 -0.5370 -1.7569 -1.9006
  475TIP3    H222841   6.810   0.961   5.703 -0.3945 -2.7404 -2.2756
  476TIP3   OH222842   2.528   3.248  10.647  0.8950  0.2401 -0.3377
  476TIP3    H122843   2.594   3.317  10.632  1.3373 -0.4899 -1.9835
  476TIP3    H222844   2.444   3.293  10.641  1.2040  0.8956  0.1274
  477TIP3   OH222845   3.680   3.454   1.973  0.0354  0.3409 -0.2292
  477TIP3    H122846   3.646   3.365   1.963  1.5537 -0.3152  0.2527
  477TIP3    H222847   3.647   3.500   1.896  2.2486 -1.6221 -2.5334
  478TIP3   OH222848   0.495   0.415   4.366 -0.0511  0.2319  0.1149
  478TIP3    H122849   0.420   0.381   4.416 -1.3300  0.7822 -1.3389
  478TIP3    H222850   0.562   0.347   4.375  0.0790  0.6507  3.1444
  479TIP3   OH222851   5.265   4.047   3.089 -0.0665  0.7022  0.9210
  479TIP3    H122852   5.255   3.986   3.016 -0.4877  1.0694  0.6746
  479TIP3    H222853   5.261   4.134   3.049 -0.8695  0.9163  1.4499
  480TIP3   OH222854   2.117   0.626  12.229 -0.1309  0.3123  0.2170
  480TIP3    H122855   2.109   0.550  12.287  2.0254 -0.9519 -0.9835
  480TIP3    H222856   2.159   0.591  12.150  2.4926  3.0090  0.2165
  481TIP3   OH222857   2.222   1.395  11.897 -0.5198 -0.0957 -0.2985
  481TIP3    H122858   2.144   1.418  11.846 -1.9686  0.6896  2.0599
  481TIP3    H222859   2.273   1.476  11.901 -0.4822 -0.1150 -0.3945
  482TIP3   OH222860   5.363   3.821  12.020  0.7493  0.1302 -0.3744
  482TIP3    H122861   5.283   3.867  11.995  1.0062  0.2224 -1.0657
  482TIP3    H222862   5.404   3.876  12.086  0.0567 -0.1062  0.2725
  483TIP3   OH222863   1.470   1.315  13.237 -0.4271 -0.1125 -0.5256
  483TIP3    H122864   1.524   1.307  13.315 -0.2426 -0.8283 -0.7277
  483TIP3    H222865   1.390   1.358  13.268 -0.3634 -0.4116  0.0568
  484TIP3   OH222866   4.511   6.020  17.092 -0.2564 -0.0913  0.4314
  484TIP3    H122867   4.586   6.071  17.123  0.4818 -0.2939 -0.9490
  484TIP3    H222868   4.528   6.007  16.999 -2.2422  0.2321 -0.0110
  485TIP3   OH222869   6.427   1.783   1.133  0.0178 -0.1512  0.0877
  485TIP3    H122870   6.408   1.868   1.093 -2.7565 -0.5772  0.2953
  485TIP3    H222871   6.341   1.748   1.157  1.2266 -2.1060  1.9282
  486TIP3   OH222872   2.057   0.343  11.158  0.3436  0.1360 -0.4474
  486TIP3    H122873   1.985   0.403  11.176  1.7655  2.2627 -1.4190
  486TIP3    H222874   2.015   0.259  11.142 -2.0393  1.5017 -2.0057
  487TIP3   OH222875   6.339   6.621   5.539  0.0644 -0.4475 -0.0224
  487TIP3    H122876   6.361   6.597   5.629 -0.4687 -2.0639 -0.2878
  487TIP3    H222877   6.246   6.642   5.541  0.1151 -0.2092 -0.1425
  488TIP3   OH222878   3.568   6.394  15.105 -0.5537 -0.0946 -0.1548
  488TIP3    H122879   3.649   6.406  15.056 -0.9418 -1.0543 -1.0915
  488TIP3    H222880   3.553   6.299  15.104 -0.8256 -0.0962  1.4563
  489TIP3   OH222881   4.624   2.398  13.370  0.1239  0.2887 -0.4111
  489TIP3    H122882   4.600   2.306  13.362 -0.5209  0.3652  0.5062
  489TIP3    H222883   4.546   2.445  13.340  0.8594  0.5636 -2.0280
  490TIP3   OH222884   1.369   6.651  16.651  0.3409 -0.4444 -0.7205
  490TIP3    H122885   1.400   6.741  16.654 -1.0668  0.1408 -2.0458
  490TIP3    H222886   1.331   6.642  16.563 -0.0171 -2.1590 -0.4273
  491TIP3   OH222887   5.809   4.533  14.124 -0.1041 -0.1301  0.1048
  491TIP3    H122888   5.878   4.555  14.186 -1.0012  3.2156  0.1097
  491TIP3    H222889   5.742   4.489  14.178  0.6691 -0.5695  0.7235
  492TIP3   OH222890   5.830   2.889   1.490 -0.1355  0.8496  0.3229
  492TIP3    H122891   5.838   2.828   1.563  2.5678 -0.2728 -0.7772
  492TIP3    H222892   5.790   2.837   1.420 -0.0951  1.0840  0.1241
  493TIP3   OH222893   3.945   2.762   1.687 -0.0230  0.7710  0.0632
  493TIP3    H122894   3.984   2.678   1.661  1.4922  1.1838  0.8346
  493TIP3    H222895   3.896   2.742   1.766 -0.6219  0.4106 -0.3919
  494TIP3   OH222896   2.143   2.072   2.838  0.0125  0.2314 -0.1266
  494TIP3    H122897   2.154   1.990   2.790  2.4909  0.1968  0.3896
  494TIP3    H222898   2.130   2.045   2.929 -1.9638  0.3942 -0.3010
  495TIP3   OH222899   5.091   5.308  13.309  0.1495  0.0443  0.0193
  495TIP3    H122900   5.100   5.262  13.225  0.5485  0.9840 -0.4632
  495TIP3    H222901   5.065   5.240  13.370  0.5037 -0.7880 -0.7299
  496TIP3   OH222902   0.670   4.691   1.301 -0.2996 -0.4207 -0.3623
  496TIP3    H122903   0.586   4.648   1.320 -0.5996  0.0556 -0.5955
  496TIP3    H222904   0.730   4.619   1.281 -0.3254 -0.8499  1.0244
  497TIP3   OH222905   2.639   5.931   3.544  0.3740  0.4869 -0.7735
  497TIP3    H122906   2.598   5.994   3.603  0.0877  0.0085 -0.4490
  497TIP3    H222907   2.631   5.847   3.590 -0.4049 -0.0027 -1.7559
  498TIP3   OH222908   2.171   4.636  16.149  0.3263 -0.4593 -0.0263
  498TIP3    H122909   2.183   4.727  16.178 -0.4505 -0.2374 -0.3703
  498TIP3    H222910   2.199   4.583  16.224 -0.4762  0.0888  0.6805
  499TIP3   OH222911   0.792   5.155  16.102  0.2077 -0.3576 -0.5941
  499TIP3    H122912   0.852   5.156  16.176 -0.2007  3.5192 -0.1231
  499TIP3    H222913   0.705   5.158  16.141 -0.1190 -0.6206 -1.2753
  500TIP3   OH222914   5.658   6.042  12.931 -0.1269  0.4767 -0.2604
  500TIP3    H122915   5.612   6.100  12.992  1.3991 -0.0751  1.5093
  500TIP3    H222916   5.709   5.984  12.987 -0.7979 -1.9537 -1.9758
  501TIP3   OH222917   0.496   2.701  13.221 -0.5565 -0.3264 -0.2491
  501TIP3    H122918   0.586   2.711  13.253 -0.1247  1.1542 -1.7657
  501TIP3    H222919   0.503   2.712  13.127 -2.2402 -1.1130 -0.5070
  502TIP3   OH222920   1.738   2.852  14.848  0.1428 -0.0755 -0.9053
  502TIP3    H122921   1.643   2.840  14.853  0.2612 -1.1606 -0.9169
  502TIP3    H222922   1.756   2.856  14.754  0.1522 -0.2948 -0.9141
  503TIP3   OH222923   0.813   0.080  17.081  0.4451  0.4298  0.4061
  503TIP3    H122924   0.812   0.174  17.095  0.5769  0.4694  0.1471
  503TIP3    H222925   0.730   0.060  17.039  0.6919  0.5221 -0.1324
  504TIP3   OH222926   1.355   2.189  16.931 -0.0146  0.1346 -0.0523
  504TIP3    H122927   1.387   2.177  17.020  3.0947  1.2219 -0.8872
  504TIP3    H222928   1.407   2.262  16.896 -0.9449 -0.3883 -2.8109
  505TIP3   OH222929   6.776   6.041  16.094  0.2756  0.3332 -0.6296
  505TIP3    H122930   6.817   6.128  16.096 -0.3040  0.5963  0.3921
  505TIP3    H222931   6.712   6.046  16.023 -0.9957  1.3483  0.5281
  506TIP3   OH222932   6.003   3.870   6.596 -0.2421  0.3986 -0.1004
  506TIP3    H122933   6.075   3.851   6.656 -1.0785 -1.1013  0.4835
  506TIP3    H222934   6.010   3.803   6.528 -1.2608  0.0204  0.1480
  507TIP3   OH222935   3.854   3.420   5.041 -0.2962  0.1373 -0.4574
  507TIP3    H122936   3.920   3.377   5.096  0.4004  2.2240  0.4206
  507TIP3    H222937   3.880   3.396   4.951  1.2638  0.3481 -0.1005
  508TIP3   OH222938   6.106   1.953  14.688 -0.2742  0.0658 -0.2221
  508TIP3    H122939   6.041   1.958  14.758  0.8766  1.2898  0.8444
  508TIP3    H222940   6.098   2.037  14.642  1.7623  1.1288  1.1618
  509TIP3   OH222941   2.382   1.138  11.751  0.0775 -0.2299  0.4532
  509TIP3    H122942   2.400   1.061  11.698 -1.3428  0.6475 -1.4154
  509TIP3    H222943   2.288   1.133  11.770 -0.0364  1.0356  0.2911
  510TIP3   OH222944   5.764   6.290  13.338  0.7754 -0.5504  0.0614
  510TIP3    H122945   5.781   6.196  13.341 -1.0884 -0.9726 -0.8663
  510TIP3    H222946   5.705   6.306  13.412 -1.6530 -0.8291 -1.6861
  511TIP3   OH222947   1.842   5.133  14.389  0.2716  0.1174 -0.1733
  511TIP3    H122948   1.933   5.118  14.414 -0.1660 -1.5260  0.5232
  511TIP3    H222949   1.796   5.147  14.472 -0.5248 -1.5970 -0.2802
  512TIP3   OH222950   4.096   0.663  16.982  0.0471  0.7223  0.8728
  512TIP3    H122951   4.178   0.674  16.934  0.1503 -0.0467  0.8587
  512TIP3    H222952   4.067   0.752  17.001  1.0658  0.9986  1.1859
  513TIP3   OH222953   2.658   1.309   3.105 -0.5408 -0.1971  0.0265
  513TIP3    H122954   2.617   1.236   3.152 -1.3120 -1.5108 -2.4921
  513TIP3    H222955   2.585   1.364   3.077 -0.0351  1.0016  0.9571
  514TIP3   OH222956   2.042   5.995  13.694  0.2185  0.0539 -0.0853
  514TIP3    H122957   2.052   6.082  13.732  1.2007  0.1624 -0.5697
  514TIP3    H222958   1.975   5.953  13.748 -0.9358  1.4197 -0.3815
  515TIP3   OH222959   2.632   5.326  14.134 -0.5905 -0.1552 -0.3311
  515TIP3    H122960   2.667   5.240  14.109  0.0321 -0.1424  0.4731
  515TIP3    H222961   2.690   5.357  14.203 -2.1712 -0.1232  1.0365
  516TIP3   OH222962   5.610   5.652   1.628  0.2299  0.0834 -0.1084
  516TIP3    H122963   5.518   5.632   1.642 -0.3308  2.1401 -0.5955
  516TIP3    H222964   5.654   5.567   1.636 -1.6335 -0.8842  0.4969
  517TIP3   OH222965   6.085   5.822  11.268 -0.3550 -0.3157  0.2182
  517TIP3    H122966   6.175   5.789  11.262 -0.3698 -0.4815  0.8816
  517TIP3    H222967   6.094   5.917  11.266  0.1587 -0.1567  3.6371
  518TIP3   OH222968   5.349   4.397  16.880  0.4865  0.2718 -0.1393
  518TIP3    H122969   5.382   4.451  16.809  0.6163  1.3380  0.7046
  518TIP3    H222970   5.345   4.308  16.843  1.3262  0.6569 -1.2104
  519TIP3   OH222971   0.461   1.855   3.570 -0.3239  0.0377 -0.5287
  519TIP3    H122972   0.456   1.871   3.664  0.7424 -1.0113 -0.2766
  519TIP3    H222973   0.416   1.772   3.557 -3.0736  1.5423 -1.3984
  520TIP3   OH222974   6.035   3.178  16.792  0.4882  0.6485  0.2045
  520TIP3    H122975   6.037   3.087  16.761  0.6722  0.3906  0.9477
  520TIP3    H222976   5.943   3.202  16.791  0.2598 -0.0911  1.5172
  521TIP3   OH222977   0.942   1.945   0.621 -0.7325 -0.1883 -0.0571
  521TIP3    H122978   0.888   1.997   0.681 -0.8068  0.0319 -0.3144
  521TIP3    H222979   0.879   1.910   0.557 -0.4138  1.0930 -1.1050
  522TIP3   OH222980   0.627   3.615   4.979  0.9349 -0.5724  0.1516
  522TIP3    H122981   0.698   3.550   4.984  1.5095 -0.1545 -1.8296
  522TIP3    H222982   0.626   3.642   4.887 -2.4433 -1.2420 -0.1164
  523TIP3   OH222983   5.997   5.768  12.089 -0.3768 -0.1429 -0.1753
  523TIP3    H122984   5.957   5.694  12.044  0.0181 -1.0678  0.9249
  523TIP3    H222985   6.018   5.830  12.020 -1.7524 -0.5569 -0.9965
  524TIP3   OH222986   5.253   1.257  16.199 -0.3338 -0.1243  0.1229
  524TIP3    H122987   5.318   1.300  16.143 -1.1624  0.7474 -0.2011
  524TIP3    H222988   5.173   1.310  16.188 -1.1423 -1.2518  0.3856
  525TIP3   OH222989   1.217   4.593  16.522 -0.0068 -0.0429  0.4482
  525TIP3    H122990   1.150   4.604  16.589  1.4602 -0.4805  2.0793
  525TIP3    H222991   1.197   4.509  16.482 -2.1784  1.1917 -1.2731
  526TIP3   OH222992   3.374   1.128   4.579 -0.3946  0.6200 -0.5503
  526TIP3    H122993   3.424   1.143   4.660 -1.0844 -2.0343  0.4629
  526TIP3    H222994   3.423   1.177   4.513  2.3341 -0.0428  0.7951
  527TIP3   OH222995   5.931   3.244  12.448  0.6420 -0.0208 -0.1685
  527TIP3    H122996   5.944   3.169  12.390  0.4942 -0.1830  0.0068
  527TIP3    H222997   5.849   3.224  12.494  0.5927  0.2559 -0.1363
  528TIP3   OH222998   5.645   1.817  11.914  0.0500  0.4874  0.2788
  528TIP3    H122999   5.646   1.752  11.844  0.3529  1.9138 -1.1020
  528TIP3    H223000   5.605   1.895  11.874 -2.2376  0.5715  2.4513
  529TIP3   OH223001   2.723   2.141  15.797  0.0303  0.1522  1.0298
  529TIP3    H123002   2.629   2.157  15.809 -0.0534  0.9431 -0.3654
  529TIP3    H223003   2.738   2.055  15.835 -1.4310 -0.3413  0.5588
  530TIP3   OH223004   4.225   2.312   2.134  0.5533 -0.0357  0.6309
  530TIP3    H123005   4.276   2.260   2.196  2.1503  1.7642  0.9406
  530TIP3    H223006   4.253   2.281   2.048  4.1117  2.3459  0.6858
  531TIP3   OH223007   3.893   0.719   4.636 -0.2743 -0.4546  0.5740
  531TIP3    H123008   3.909   0.636   4.681 -1.1167 -0.5601  0.6978
  531TIP3    H223009   3.806   0.746   4.667 -0.1536  0.2986  0.2683
  532TIP3   OH223010   0.185   5.042   4.935 -0.1529 -0.1710  0.0594
  532TIP3    H123011   0.168   4.985   5.009 -0.3987  0.1438  0.2461
  532TIP3    H223012   0.213   5.125   4.974 -3.1653  1.0199 -0.0521
  533TIP3   OH223013   4.574   2.229  11.381  0.0191 -0.4586  0.8565
  533TIP3    H123014   4.620   2.157  11.423  1.2773  0.5318  1.2423
  533TIP3    H223015   4.488   2.194  11.360  0.2252 -1.7233  2.0285
  534TIP3   OH223016   4.213   3.076   5.289 -0.0644 -0.2071  0.5059
  534TIP3    H123017   4.130   3.030   5.296 -0.0210 -0.1748  1.3850
  534TIP3    H223018   4.270   3.017   5.240 -0.8033  0.0710 -0.7266
  535TIP3   OH223019   2.593   1.871   4.544 -0.2297 -0.2762  0.5735
  535TIP3    H123020   2.609   1.833   4.457  0.8389 -0.1272  0.7007
  535TIP3    H223021   2.549   1.801   4.593  0.3737 -0.8306  0.3332
  536TIP3   OH223022   5.168   3.720   1.229  0.1790  0.3961  1.1051
  536TIP3    H123023   5.103   3.667   1.276 -1.3859  1.3104  0.0800
  536TIP3    H223024   5.166   3.804   1.274 -1.0849  1.1697 -0.3206
  537TIP3   OH223025   6.303   5.257  13.003  0.0107  0.4942  0.2187
  537TIP3    H123026   6.391   5.287  13.026 -0.2470  1.3031  0.1800
  537TIP3    H223027   6.317   5.172  12.961  0.7667  0.5724  0.2984
  538TIP3   OH223028   1.882   3.937  10.838  0.3183 -0.1941  0.1963
  538TIP3    H123029   1.920   3.909  10.755  1.1621 -2.3128  1.2435
  538TIP3    H223030   1.788   3.942  10.821  0.5228 -0.1612 -0.9955
  539TIP3   OH223031   0.848   1.025  12.794  0.6166 -0.1576 -0.0944
  539TIP3    H123032   0.886   0.937  12.794  0.7421 -0.1037  0.0451
  539TIP3    H223033   0.753   1.010  12.795  0.6391 -0.2946  0.2441
  540TIP3   OH223034   2.023   2.507   0.733 -0.1808 -0.2941  0.2160
  540TIP3    H123035   2.048   2.566   0.804 -1.8484 -0.4593  0.9969
  540TIP3    H223036   1.928   2.498   0.741 -0.2980 -1.0612 -1.4784
  541TIP3   OH223037   3.351   4.458  16.938 -0.8871  0.5671  0.2553
  541TIP3    H123038   3.369   4.500  16.854 -0.2956 -0.2529 -0.0454
  541TIP3    H223039   3.344   4.530  17.000 -1.8689  1.2182 -0.5820
  542TIP3   OH223040   4.465   2.481   1.351  0.1093  0.5907 -0.4144
  542TIP3    H123041   4.370   2.484   1.350  0.0528 -0.8279 -1.2394
  542TIP3    H223042   4.492   2.564   1.311 -0.7927  0.5055 -1.2359
  543TIP3   OH223043   5.694   6.054   3.817 -0.4770 -0.0014  0.3609
  543TIP3    H123044   5.663   6.053   3.907 -1.5283 -0.1648  0.0146
  543TIP3    H223045   5.670   6.141   3.785 -0.8770 -0.2411 -0.0058
  544TIP3   OH223046   0.305   3.349  15.471 -0.3052  0.2429 -0.0489
  544TIP3    H123047   0.329   3.261  15.500 -0.0927  0.4831  0.5251
  544TIP3    H223048   0.285   3.339  15.378  2.3695  0.0601 -0.7060
  545TIP3   OH223049   6.491   2.848   0.766  0.4282  0.7735 -0.1379
  545TIP3    H123050   6.495   2.815   0.676 -0.2764 -2.3902  0.8874
  545TIP3    H223051   6.582   2.849   0.794  0.5440  0.5727 -0.4900
  546TIP3   OH223052   4.914   6.746  16.891 -0.4377 -0.3937 -0.2454
  546TIP3    H123053   4.826   6.729  16.925 -1.3888  1.4468 -1.6258
  546TIP3    H223054   4.950   6.811  16.951  0.1777 -1.4004  0.5239
  547TIP3   OH223055   1.156   0.978   3.114  0.2372  0.4140  0.5891
  547TIP3    H123056   1.093   0.985   3.042 -2.8557 -0.5111  2.9690
  547TIP3    H223057   1.150   1.062   3.159  1.9853  0.9085 -0.0171
  548TIP3   OH223058   5.768   5.968   2.670  0.2976  0.0924 -0.2900
  548TIP3    H123059   5.777   6.062   2.686 -0.7420  0.1390  0.1508
  548TIP3    H223060   5.857   5.936   2.660  0.6559  1.1554 -0.6165
  549TIP3   OH223061   3.804   2.213  15.462 -0.6962  0.2630 -0.4984
  549TIP3    H123062   3.819   2.257  15.546 -1.0502 -0.4252 -0.0601
  549TIP3    H223063   3.868   2.251  15.403  0.1463  0.1433  0.3190
  550TIP3   OH223064   4.612   2.478  15.087 -0.0466 -0.2212 -0.5611
  550TIP3    H123065   4.609   2.426  15.167 -0.9375 -0.1933 -0.5702
  550TIP3    H223066   4.563   2.557  15.107  1.0146  0.4939 -0.6556
  551TIP3   OH223067   3.617   3.290  15.242  0.0690  0.3426  0.3419
  551TIP3    H123068   3.523   3.306  15.241 -0.0729 -0.4121  0.8359
  551TIP3    H223069   3.654   3.362  15.191 -0.7386  0.8541  0.4566
  552TIP3   OH223070   3.422   5.740   6.240 -0.0802  0.3313  0.4848
  552TIP3    H123071   3.411   5.818   6.295 -1.1576  0.3255  0.2968
  552TIP3    H223072   3.362   5.754   6.167  1.0393  0.1502 -0.5041
  553TIP3   OH223073   1.442   6.387  14.097  0.4657 -0.2333  0.5541
  553TIP3    H123074   1.355   6.423  14.113  0.4469  1.0330 -1.9386
  553TIP3    H223075   1.501   6.461  14.112  0.6428  0.3008 -2.2465
  554TIP3   OH223076   0.445   4.111   4.099 -0.3067 -0.7791  0.2669
  554TIP3    H123077   0.449   4.024   4.059 -1.4640 -0.1947 -1.1962
  554TIP3    H223078   0.532   4.148   4.082 -0.1838 -1.2233 -0.1019
  555TIP3   OH223079   3.712   5.025  12.883  0.5510 -0.3084  0.6551
  555TIP3    H123080   3.763   5.056  12.957 -2.0320  1.5437  1.7990
  555TIP3    H223081   3.688   5.105  12.835 -1.5165 -1.0275  0.3913
  556TIP3   OH223082   6.660   4.796   6.189 -0.2112  0.3323  0.2755
  556TIP3    H123083   6.651   4.702   6.202  0.6636  0.4019  1.5102
  556TIP3    H223084   6.605   4.835   6.256 -0.1736  0.7076  0.0925
  557TIP3   OH223085   1.893   5.558   1.773 -0.1105  0.0579 -0.2085
  557TIP3    H123086   1.853   5.625   1.828 -1.9827 -0.4557 -0.8825
  557TIP3    H223087   1.972   5.532   1.821 -1.1908  0.2692  1.7893
  558TIP3   OH223088   4.008   0.178   1.590 -0.5314  0.4519 -0.3921
  558TIP3    H123089   4.028   0.131   1.671  0.4282 -0.9208 -1.3873
  558TIP3    H223090   4.039   0.121   1.520  1.0129  2.7014 -1.6886
  559TIP3   OH223091   5.427   4.646  12.685  0.0792  0.1775  0.0135
  559TIP3    H123092   5.463   4.605  12.607 -0.4078  0.9372 -0.6333
  559TIP3    H223093   5.401   4.734  12.656 -0.3250  0.3919  0.9720
  560TIP3   OH223094   0.726   4.473   5.469 -0.4745  0.0773  0.6351
  560TIP3    H123095   0.701   4.390   5.429  1.2850 -1.2959  2.2390
  560TIP3    H223096   0.680   4.474   5.553 -0.4657  0.7333  0.6383
  561TIP3   OH223097   5.854   2.985  15.636  0.2518 -0.7407  0.1497
  561TIP3    H123098   5.837   2.896  15.605  1.0784 -0.9225  0.2040
  561TIP3    H223099   5.805   3.041  15.576 -0.3444 -1.2344  0.1678
  562TIP3   OH223100   4.392   2.438  11.782 -0.0609 -0.0778  0.0960
  562TIP3    H123101   4.313   2.489  11.762 -0.9239 -0.6856  1.7217
  562TIP3    H223102   4.378   2.354  11.740 -0.1032 -0.0488  0.0517
  563TIP3   OH223103   3.917   4.391   0.297 -0.1590 -0.0697  0.0445
  563TIP3    H123104   3.994   4.339   0.320 -0.6676 -0.3708  1.1597
  563TIP3    H223105   3.879   4.416   0.382 -1.1483  0.2744 -0.4861
  564TIP3   OH223106   0.877   5.626   2.455  0.7894 -0.5439 -0.1652
  564TIP3    H123107   0.927   5.659   2.380  0.9999 -0.5421 -0.0277
  564TIP3    H223108   0.807   5.573   2.416 -0.0599  0.7277 -0.4254
  565TIP3   OH223109   3.129   5.970   0.679  0.4366 -0.2717 -0.9372
  565TIP3    H123110   3.134   5.879   0.708 -0.8236 -0.8068 -2.2697
  565TIP3    H223111   3.085   6.016   0.750  0.3011 -0.8822 -0.6166
  566TIP3   OH223112   1.370   3.850  13.068  0.0387  0.4382  0.5402
  566TIP3    H123113   1.359   3.756  13.082  0.3552  0.3918  0.4777
  566TIP3    H223114   1.388   3.858  12.974  0.2861  0.5382  0.5964
  567TIP3   OH223115   4.390   1.911   5.193  0.1648 -0.2855 -0.1720
  567TIP3    H123116   4.438   1.982   5.149  0.1036  1.0967  1.8683
  567TIP3    H223117   4.302   1.916   5.155 -0.3495  1.9516  1.1490
  568TIP3   OH223118   6.210   6.184   5.852 -0.2540  0.4605  0.2220
  568TIP3    H123119   6.136   6.219   5.902 -0.5700 -2.0302  1.6962
  568TIP3    H223120   6.178   6.099   5.820  1.8391 -0.5561  0.6563
  569TIP3   OH223121   3.454   1.140   5.834 -0.0973  0.7665  0.8332
  569TIP3    H123122   3.530   1.182   5.873  0.3448  1.0100 -0.2319
  569TIP3    H223123   3.489   1.095   5.756 -0.8451 -0.1243  0.9902
  570TIP3   OH223124   4.853   2.361   5.546  0.4890  0.1855  0.6739
  570TIP3    H123125   4.791   2.292   5.519  0.9892  0.0586 -0.1600
  570TIP3    H223126   4.800   2.441   5.547  0.8034  0.5399 -2.4634
  571TIP3   OH223127   4.046   3.538  16.244  0.4175  0.3940 -0.1368
  571TIP3    H123128   4.014   3.627  16.227  0.2529  0.2760 -0.4428
  571TIP3    H223129   4.035   3.492  16.161 -0.7761 -0.3115  0.4010
  572TIP3   OH223130   4.518   4.055  11.378  0.5372  0.1916  0.0249
  572TIP3    H123131   4.597   4.085  11.332 -0.3423 -0.4999 -2.0022
  572TIP3    H223132   4.465   4.134  11.389  0.1806  0.1607 -1.3530
  573TIP3   OH223133   1.510   0.469  11.284  0.0224 -0.1653 -0.6408
  573TIP3    H123134   1.514   0.417  11.364  0.0308  1.7406  0.6575
  573TIP3    H223135   1.440   0.533  11.300  0.8128  1.0115 -1.6579
  574TIP3   OH223136   3.857   4.788   2.886 -0.1127 -0.3670 -0.4117
  574TIP3    H123137   3.886   4.764   2.974 -0.7320  1.0550  0.2161
  574TIP3    H223138   3.816   4.709   2.852 -0.9342 -0.6230  1.0577
  575TIP3   OH223139   1.011   0.033  16.054 -0.4915 -0.7524  0.0498
  575TIP3    H123140   1.083   0.095  16.069  0.0428 -1.0228 -1.3179
  575TIP3    H223141   1.054  -0.053  16.050 -0.9718 -0.9811 -0.2218
  576TIP3   OH223142   1.874   5.332   5.044 -0.7139  0.6209 -0.1688
  576TIP3    H123143   1.924   5.413   5.034 -2.1353  1.6863  0.8956
  576TIP3    H223144   1.838   5.315   4.957  2.1962 -0.7571 -1.2519
  577TIP3   OH223145   5.995   2.277   2.855  0.1200  0.1122  0.3652
  577TIP3    H123146   5.985   2.198   2.908 -0.7104  0.5822  0.9368
  577TIP3    H223147   6.086   2.304   2.867  0.2136 -0.3594  0.7281
  578TIP3   OH223148   6.738   0.867  16.213 -0.0802 -0.7971 -0.1085
  578TIP3    H123149   6.784   0.857  16.130  1.4450 -0.8758  0.7119
  578TIP3    H223150   6.678   0.939  16.198  2.2020  1.1503 -0.4597
  579TIP3   OH223151   4.819   1.538  11.655  0.0278 -0.6476 -0.0586
  579TIP3    H123152   4.849   1.524  11.565 -0.8306  1.5168 -0.7622
  579TIP3    H223153   4.733   1.496  11.658 -0.3621  0.0712 -0.5918
  580TIP3   OH223154   1.516   0.316  11.519  0.5236  0.5876 -0.6083
  580TIP3    H123155   1.473   0.232  11.503 -1.7328  1.3593  0.9183
  580TIP3    H223156   1.514   0.326  11.614  0.9156  2.2922 -0.7482
  581TIP3   OH223157   4.025   1.280  14.803 -0.7541 -0.0584 -0.0303
  581TIP3    H123158   3.956   1.218  14.779 -1.2376  1.3059 -2.4799
  581TIP3    H223159   3.992   1.365  14.773  1.0948  0.9501  0.6597
  582TIP3   OH223160   3.392   1.197   5.354  0.7528  0.5629  0.1708
  582TIP3    H123161   3.453   1.268   5.337  0.6431  0.3367 -1.3307
  582TIP3    H223162   3.425   1.124   5.301 -1.3863  0.7765 -1.6053
  583TIP3   OH223163   3.758   4.223   0.497 -0.4986 -0.0479  0.4135
  583TIP3    H123164   3.762   4.318   0.490 -0.6535 -0.0836 -0.1650
  583TIP3    H223165   3.850   4.196   0.507 -0.1900 -0.0171 -1.8613
  584TIP3   OH223166   0.150   6.406   0.796  0.4147 -0.6493 -0.1722
  584TIP3    H123167   0.115   6.331   0.747 -1.0650  0.5581 -1.0445
  584TIP3    H223168   0.073   6.453   0.827  1.3235 -0.3793  1.8194
  585TIP3   OH223169   4.167   2.855   4.983 -0.5427  0.3357  0.1456
  585TIP3    H123170   4.098   2.881   4.923  0.5675  0.9604 -0.9206
  585TIP3    H223171   4.239   2.916   4.965  1.0467 -1.5588 -0.3117
  586TIP3   OH223172   4.546   6.192  15.814  0.7232  0.1904 -0.4178
  586TIP3    H123173   4.557   6.097  15.816 -0.4301 -0.0268 -2.1920
  586TIP3    H223174   4.632   6.227  15.836  0.9028 -1.2327  1.3228
  587TIP3   OH223175   0.190   4.288  11.750 -0.6211  0.3894 -0.4521
  587TIP3    H123176   0.246   4.362  11.729  0.2513 -0.2093 -0.3065
  587TIP3    H223177   0.162   4.254  11.665  0.3964 -0.1584 -0.5859
  588TIP3   OH223178   4.285   5.712   2.582  0.2524 -0.0257  0.1782
  588TIP3    H123179   4.265   5.662   2.503  0.3925 -2.5476  1.6517
  588TIP3    H223180   4.381   5.716   2.585  0.2711 -0.6612  0.6245
  589TIP3   OH223181   2.921   3.826   2.350 -0.2984  0.2552  0.2257
  589TIP3    H123182   2.979   3.893   2.316 -0.6590  0.2293 -0.4579
  589TIP3    H223183   2.976   3.774   2.410 -0.3287  1.8874  1.7484
  590TIP3   OH223184   4.033   1.537   3.116  0.5292 -0.2073 -0.1259
  590TIP3    H123185   3.969   1.467   3.107  2.1226 -2.0983  2.1686
  590TIP3    H223186   4.106   1.511   3.060  1.2331 -0.5567  0.9279
  591TIP3   OH223187   1.395   3.564   3.194  0.2440  0.1053  0.8324
  591TIP3    H123188   1.395   3.511   3.114  2.7402  0.5854  0.4372
  591TIP3    H223189   1.305   3.596   3.202 -0.5679 -1.6512 -0.6057
  592TIP3   OH223190   6.140   5.219  16.210  0.6023 -0.0005 -0.5126
  592TIP3    H123191   6.203   5.266  16.157  2.7083 -0.5443  1.3777
  592TIP3    H223192   6.160   5.127  16.196 -0.0435 -0.1978 -0.1968
  593TIP3   OH223193   4.905   4.157   6.545 -1.0249 -0.1564  0.4807
  593TIP3    H123194   4.956   4.235   6.523 -1.2574 -0.2041 -0.2454
  593TIP3    H223195   4.821   4.169   6.499 -0.6971 -1.2929 -0.4658
  594TIP3   OH223196   0.186   5.846   0.574  0.2205  0.0282 -0.4300
  594TIP3    H123197   0.232   5.910   0.628  1.4431  0.4358 -1.8716
  594TIP3    H223198   0.254   5.784   0.548 -0.5468 -0.7398 -0.6506
  595TIP3   OH223199   3.101   3.651   2.053 -0.0358  0.1722 -0.1245
  595TIP3    H123200   3.108   3.583   2.119  0.5479  1.9363  1.7514
  595TIP3    H223201   3.192   3.674   2.032 -0.2128  0.6056 -0.4355
  596TIP3   OH223202   5.573   2.096  15.435  0.3678 -0.5404 -0.0457
  596TIP3    H123203   5.609   2.061  15.353  0.7745 -1.3015  0.4427
  596TIP3    H223204   5.608   2.038  15.503 -0.5106 -0.3374  0.6029
  597TIP3   OH223205   5.964   3.849  12.623 -0.2334 -0.1924 -0.5097
  597TIP3    H123206   6.058   3.860  12.612 -0.0559 -0.6245  0.4901
  597TIP3    H223207   5.936   3.804  12.544  0.0528  1.6607 -1.7401
  598TIP3   OH223208   5.944   5.870  16.242 -0.4505  0.1440 -0.2778
  598TIP3    H123209   6.002   5.852  16.317  1.3930 -1.6670 -1.9951
  598TIP3    H223210   5.960   5.962  16.221  0.9280 -0.0015  0.0421
  599TIP3   OH223211   5.374   6.432   0.357 -0.0978 -0.1274  0.3587
  599TIP3    H123212   5.438   6.360   0.363  0.3524  0.2638  0.3583
  599TIP3    H223213   5.420   6.500   0.307 -0.1631  0.5289  1.1788
  600TIP3   OH223214   4.895   1.444   5.399 -0.0263  0.3054  0.6879
  600TIP3    H123215   4.852   1.360   5.416  1.1786 -0.4194  0.2760
  600TIP3    H223216   4.833   1.492   5.345 -0.6027 -0.4406  0.6658
  601TIP3   OH223217   6.200   6.191  13.263 -0.4228  0.0670  0.0485
  601TIP3    H123218   6.264   6.176  13.333  0.3802 -0.6583 -0.8074
  601TIP3    H223219   6.208   6.114  13.207 -2.0513 -0.0294 -0.0980
  602TIP3   OH223220   5.050   5.021   1.612 -0.0308  0.2049  0.0294
  602TIP3    H123221   4.979   5.084   1.628  0.2035  0.3560  0.5211
  602TIP3    H223222   5.011   4.954   1.556  0.2648  1.7901 -2.1547
  603TIP3   OH223223   5.930   6.025   1.681  0.0828 -0.3373 -0.3350
  603TIP3    H123224   5.837   6.001   1.681  0.2396 -0.9764  0.3358
  603TIP3    H223225   5.964   5.988   1.762  0.3600  2.1052  0.7678
  604TIP3   OH223226   4.104   4.813   5.485 -0.0289  0.1754 -0.5822
  604TIP3    H123227   4.056   4.887   5.449  0.2044  1.8273  2.1612
  604TIP3    H223228   4.196   4.837   5.473  0.0621 -0.2124 -0.6698
  605TIP3   OH223229   4.885   4.247  16.381 -0.1845  0.1707 -0.4666
  605TIP3    H123230   4.924   4.162  16.361 -0.6326  0.0028 -0.6461
  605TIP3    H223231   4.802   4.247  16.333  0.1827  1.0361 -1.1237
  606TIP3   OH223232   2.529   0.145  16.273 -0.4296  0.3166 -0.1733
  606TIP3    H123233   2.577   0.164  16.192  1.3159 -0.4368  0.6276
  606TIP3    H223234   2.459   0.085  16.246 -0.3537  0.6783 -1.2351
  607TIP3   OH223235   2.408   5.966   4.204 -0.0408 -0.1884  0.3541
  607TIP3    H123236   2.460   6.045   4.221 -0.5635  0.0129  1.0685
  607TIP3    H223237   2.440   5.902   4.267 -0.2075 -0.2748  0.3510
  608TIP3   OH223238   3.444   3.125   1.606 -0.3441 -0.8256  0.3622
  608TIP3    H123239   3.432   3.218   1.626 -0.9261 -1.2285  2.0558
  608TIP3    H223240   3.364   3.101   1.559  0.7587 -0.0130 -2.0916
  609TIP3   OH223241   1.848   5.298  14.997 -0.9714  0.2423  0.3055
  609TIP3    H123242   1.868   5.215  14.953 -0.4651  0.7982 -0.5440
  609TIP3    H223243   1.910   5.302  15.070 -0.3001  0.3337 -0.2561
  610TIP3   OH223244   1.895   4.377  13.850 -0.2517 -0.0608 -0.0533
  610TIP3    H123245   1.976   4.371  13.901 -0.3429 -0.9895  0.0091
  610TIP3    H223246   1.919   4.347  13.763 -0.3281  0.5297 -0.2798
  611TIP3   OH223247   2.395   0.893   1.644  0.0443  0.6266  0.0542
  611TIP3    H123248   2.390   0.985   1.667  0.6099  1.3230 -2.2921
  611TIP3    H223249   2.486   0.868   1.661  0.1972  0.8544 -0.4045
  612TIP3   OH223250   3.484   2.893  11.388 -0.1864  0.1936  0.0612
  612TIP3    H123251   3.526   2.823  11.438 -0.3207 -0.2513 -0.4446
  612TIP3    H223252   3.461   2.958  11.453 -1.7722 -1.0627  0.8084
  613TIP3   OH223253   1.623   2.671   1.052  0.5169  0.7675  0.3917
  613TIP3    H123254   1.602   2.660   1.144 -0.1940  1.1423  0.2795
  613TIP3    H223255   1.540   2.656   1.006  0.8786  0.5043 -0.1939
  614TIP3   OH223256   2.023   0.742  14.387 -0.1383  0.1160 -0.4763
  614TIP3    H123257   1.967   0.667  14.408 -0.8759  0.8975  0.4004
  614TIP3    H223258   2.001   0.808  14.453  0.1209  1.3024 -1.5472
  615TIP3   OH223259   4.171   0.406  13.698  0.0354  0.0934 -0.3310
  615TIP3    H123260   4.108   0.426  13.767  0.2924  0.3898 -0.1788
  615TIP3    H223261   4.131   0.336  13.648  0.8713 -1.7970  1.5207
  616TIP3   OH223262   6.668   3.133  12.314 -0.4353 -0.0225 -0.0268
  616TIP3    H123263   6.717   3.063  12.358  2.2517  1.4532 -0.4607
  616TIP3    H223264   6.728   3.165  12.246 -3.1177  0.0845 -2.5617
  617TIP3   OH223265   5.193   0.178   1.766  0.1020 -0.4321 -0.2566
  617TIP3    H123266   5.284   0.158   1.748 -0.1884 -1.0366 -1.0751
  617TIP3    H223267   5.181   0.154   1.858  0.5891 -1.0122 -0.3388
  618TIP3   OH223268   1.637   0.278  14.088  0.0955 -0.1416  0.2872
  618TIP3    H123269   1.730   0.257  14.084  0.2034  0.5725 -3.3038
  618TIP3    H223270   1.596   0.219  14.025 -1.8474  0.0427  1.2818
  619TIP3   OH223271   4.891   0.572  16.061  0.4828 -0.6543  0.5895
  619TIP3    H123272   4.878   0.510  15.990 -0.7311  0.4868 -0.2389
  619TIP3    H223273   4.818   0.633  16.053  2.4166  1.8315  0.3166
  620TIP3   OH223274   3.067   3.438  12.850 -0.2787 -0.1734  0.7182
  620TIP3    H123275   3.038   3.473  12.766 -0.2828 -0.8431  0.4351
  620TIP3    H223276   3.034   3.501  12.915 -1.6204 -0.4561  0.3460
  621TIP3   OH223277   4.094   6.093   4.552 -0.4822 -0.4207 -0.0576
  621TIP3    H123278   4.009   6.137   4.554 -0.0094  0.5114  0.2175
  621TIP3    H223279   4.081   6.017   4.496 -0.8503  1.1231 -2.1773
  622TIP3   OH223280   1.770   6.687   1.044 -0.2946 -0.2872 -1.0428
  622TIP3    H123281   1.724   6.604   1.027  0.0108 -0.3282 -1.6968
  622TIP3    H223282   1.859   6.660   1.067 -1.0345 -0.3286  2.1867
  623TIP3   OH223283   3.232   0.926  14.526  0.4421  0.5657  0.0972
  623TIP3    H123284   3.303   0.909  14.588 -0.3253 -2.1835  0.3762
  623TIP3    H223285   3.244   0.860  14.457 -1.2488  0.6771 -0.3541
  624TIP3   OH223286   0.433   6.168   3.982 -0.4875 -0.0913 -0.1092
  624TIP3    H123287   0.409   6.075   3.977  0.7832 -0.6902  2.7389
  624TIP3    H223288   0.373   6.211   3.921 -0.2187 -2.8754 -2.5852
  625TIP3   OH223289   3.355   0.421   1.340 -0.2800 -0.6757 -0.1399
  625TIP3    H123290   3.448   0.397   1.333 -0.3896 -0.8895 -1.0659
  625TIP3    H223291   3.323   0.418   1.249 -1.2381 -0.7906  0.1902
  626TIP3   OH223292   0.564   3.769   4.742  0.0087 -0.5971 -0.1994
  626TIP3    H123293   0.595   3.855   4.714 -1.1980  0.5703  1.8013
  626TIP3    H223294   0.473   3.765   4.713  0.2011 -1.4381 -0.7281
  627TIP3   OH223295   0.579   0.098   6.503 -0.2852 -0.4315 -0.1971
  627TIP3    H123296   0.485   0.118   6.498 -0.6334 -1.2263  1.8686
  627TIP3    H223297   0.610   0.150   6.577  0.8571 -0.4053 -0.6765
  628TIP3   OH223298   0.064   3.373  14.117  0.3934 -0.0161  0.2040
  628TIP3    H123299   0.077   3.282  14.144  0.8265  0.4627  1.7564
  628TIP3    H223300   0.030   3.368  14.028  0.4033 -1.6926  0.2693
  629TIP3   OH223301   5.274   4.269  14.008 -0.1708  0.6686  0.2180
  629TIP3    H123302   5.370   4.264  14.007 -0.2176 -0.3815 -0.4589
  629TIP3    H223303   5.251   4.309  13.924 -0.3598 -0.2768 -0.1976
  630TIP3   OH223304   0.037   4.103   4.805  0.1528 -0.2261  0.2857
  630TIP3    H123305   0.092   4.182   4.813 -0.7663  0.3591  0.9284
  630TIP3    H223306   0.090   4.033   4.842  0.6470  0.2434  0.4796
  631TIP3   OH223307   3.579   0.299   1.781  0.6150 -0.2239 -0.4885
  631TIP3    H123308   3.655   0.356   1.773  0.6257 -0.1280  0.2611
  631TIP3    H223309   3.588   0.237   1.709  1.3898 -0.1965 -0.4238
  632TIP3   OH223310   0.912   6.177  16.447 -0.0438  0.0268 -0.1012
  632TIP3    H123311   0.824   6.184  16.409 -0.5169 -0.8539  0.8242
  632TIP3    H223312   0.969   6.165  16.371 -0.7545  0.2013 -0.6792
  633TIP3   OH223313   5.434   3.717  14.993  0.3819 -0.2217  0.4597
  633TIP3    H123314   5.530   3.723  14.999  0.3402  1.5460 -0.0334
  633TIP3    H223315   5.405   3.807  14.982 -1.0794 -0.9408 -3.0457
  634TIP3   OH223316   2.718   3.352   5.845  0.4066  0.1056 -0.0790
  634TIP3    H123317   2.745   3.385   5.931  0.2390  0.8375 -0.3000
  634TIP3    H223318   2.659   3.280   5.864 -0.8987  1.2699  0.4519
  635TIP3   OH223319   4.295   3.492   1.572  0.7643 -0.7171  0.3089
  635TIP3    H123320   4.279   3.417   1.629 -2.7493  0.1217  0.6416
  635TIP3    H223321   4.264   3.567   1.622  1.0331  0.5325 -1.3191
  636TIP3   OH223322   4.580   1.292  16.090  1.2842 -0.2003  0.0236
  636TIP3    H123323   4.657   1.326  16.135  0.2932  0.0480  1.6249
  636TIP3    H223324   4.508   1.347  16.120 -0.3371 -3.2481  2.3946
  637TIP3   OH223325   0.951   3.054   5.967  0.1945  0.0058 -0.1078
  637TIP3    H123326   0.957   2.965   6.003 -1.6509  0.0851  0.5232
  637TIP3    H223327   0.938   3.040   5.873 -0.0476 -0.4058 -0.0188
  638TIP3   OH223328   4.454   4.306   4.050  0.0930 -0.1186  0.1426
  638TIP3    H123329   4.451   4.401   4.057  0.2624 -0.0972 -0.1006
  638TIP3    H223330   4.468   4.276   4.140  0.1047  0.0868  0.2092
  639TIP3   OH223331   6.456   0.093  15.363  0.0689 -0.5582 -0.1796
  639TIP3    H123332   6.457   0.114  15.456 -0.6576  0.8998 -0.4596
  639TIP3    H223333   6.496   0.169  15.321 -0.6145 -0.6915 -1.1202
  640TIP3   OH223334   3.925   4.660   0.246  0.5211 -0.5283  0.1058
  640TIP3    H123335   4.010   4.677   0.206  1.3522  1.4247  2.4540
  640TIP3    H223336   3.923   4.565   0.261  1.4001 -0.8730 -1.7078
  641TIP3   OH223337   2.392   0.667   0.145  0.0543 -0.0851  0.2197
  641TIP3    H123338   2.464   0.658   0.207  0.5077 -1.2281 -0.4300
  641TIP3    H223339   2.391   0.583   0.098 -0.0086  0.8946 -1.6050
  642TIP3   OH223340   5.012   2.378   3.358  0.0628 -0.1831  0.6880
  642TIP3    H123341   5.031   2.436   3.284  1.4724  0.4408  1.5013
  642TIP3    H223342   5.025   2.432   3.436 -1.5421 -0.7923  1.4278
  643TIP3   OH223343   3.307   4.766  11.654 -0.1536 -0.1232 -0.2703
  643TIP3    H123344   3.354   4.849  11.645  2.0444 -1.0062  1.8247
  643TIP3    H223345   3.345   4.709  11.588  0.9190 -0.4622  0.6071
  644TIP3   OH223346   0.211   6.414  13.558 -0.0285  0.0475 -0.1012
  644TIP3    H123347   0.149   6.347  13.587 -0.3389  1.1487  1.9523
  644TIP3    H223348   0.295   6.369  13.553 -0.2447 -0.5255  1.1653
  645TIP3   OH223349   5.689   6.656   2.838  0.1454 -0.0506  0.0302
  645TIP3    H123350   5.679   6.605   2.918  1.2062  0.2190  0.3538
  645TIP3    H223351   5.769   6.707   2.852 -0.5119  1.1795 -0.5616
  646TIP3   OH223352   1.241   4.272  11.123  0.4898  0.2098 -0.5089
  646TIP3    H123353   1.287   4.347  11.084  2.7666 -1.3178 -0.9731
  646TIP3    H223354   1.243   4.205  11.055 -1.2968 -0.3750 -0.0246
  647TIP3   OH223355   1.411   0.824   5.548 -0.5223  0.1188 -0.4087
  647TIP3    H123356   1.460   0.906   5.539 -0.1152 -0.2109 -1.5063
  647TIP3    H223357   1.372   0.811   5.461 -1.5504 -0.2568  0.1014
  648TIP3   OH223358   5.272   4.654   5.547 -0.7525  0.5959 -0.3420
  648TIP3    H123359   5.345   4.665   5.487 -0.9218  3.3695 -0.1538
  648TIP3    H223360   5.312   4.660   5.634 -0.6915 -2.1119 -0.0956
  649TIP3   OH223361   2.917   2.075  15.537  0.6199 -0.2900  0.1383
  649TIP3    H123362   2.971   1.996  15.540  2.4102  0.7540 -1.7776
  649TIP3    H223363   2.981   2.147  15.532 -0.9532  1.1269 -0.3979
  650TIP3   OH223364   2.782   6.057  13.334  0.3459  0.3396 -0.0972
  650TIP3    H123365   2.779   6.027  13.243  0.7766  0.6900 -0.2315
  650TIP3    H223366   2.747   5.984  13.384  0.1443  0.1240 -0.5402
  651TIP3   OH223367   2.112   1.467   2.672 -0.4938 -0.0638 -0.0150
  651TIP3    H123368   2.167   1.488   2.748  0.7861  0.5548 -1.0652
  651TIP3    H223369   2.074   1.551   2.647 -1.0320 -0.2948  0.0103
  652TIP3   OH223370   1.393   5.329   0.287 -0.0653 -0.4305  0.3259
  652TIP3    H123371   1.451   5.278   0.344  0.3107 -0.0032  0.3345
  652TIP3    H223372   1.343   5.263   0.239  0.9536 -0.8322 -0.2158
  653TIP3   OH223373   0.573   4.936  15.649  0.2911 -0.2199 -0.7434
  653TIP3    H123374   0.612   4.991  15.717  0.5297  0.7168 -1.6101
  653TIP3    H223375   0.533   4.864  15.697  3.4650 -1.5213  0.2086
  654TIP3   OH223376   6.402   1.064   3.821 -0.0592  0.0304  0.1155
  654TIP3    H123377   6.402   1.002   3.893 -2.3760  0.1012  0.2660
  654TIP3    H223378   6.393   1.150   3.863 -0.4907  0.1489 -0.2076
  655TIP3   OH223379   3.493   4.506   2.864  0.5932 -0.0061  0.1520
  655TIP3    H123380   3.507   4.416   2.893  1.2828  0.0186 -0.0892
  655TIP3    H223381   3.483   4.556   2.946  0.9324 -0.1896  0.3067
  656TIP3   OH223382   4.482   5.110  15.369 -0.0993 -0.1531 -0.0670
  656TIP3    H123383   4.489   5.043  15.437  0.0818 -0.6389 -0.5516
  656TIP3    H223384   4.570   5.147  15.364 -0.0813 -0.2013 -0.1143
  657TIP3   OH223385   4.510   2.291   0.041 -0.9384 -0.6781 -0.7393
  657TIP3    H123386   4.595   2.247   0.031 -0.3116  0.3287 -0.0739
  657TIP3    H223387   4.455   2.227   0.085 -0.0496 -0.8179  0.2070
  658TIP3   OH223388   0.718   6.649   5.283  0.0925  0.2335  0.1954
  658TIP3    H123389   0.767   6.674   5.205  1.8834 -1.6472  0.6419
  658TIP3    H223390   0.782   6.656   5.354 -1.0037  0.1282  1.2158
  659TIP3   OH223391   2.966   6.445   2.641  0.3315 -0.3636 -0.2530
  659TIP3    H123392   2.971   6.490   2.726  1.1052 -0.2199 -0.3708
  659TIP3    H223393   2.888   6.390   2.648  0.9602 -1.1441  0.9451
  660TIP3   OH223394   4.060   2.037  16.002 -0.0479 -0.3064 -0.5264
  660TIP3    H123395   4.086   2.099  16.070  1.2286 -1.0085 -0.3511
  660TIP3    H223396   4.003   1.974  16.046  0.7028 -0.7068 -0.1108
  661TIP3   OH223397   2.100   4.877  15.311  0.2816  0.1739  0.2784
  661TIP3    H123398   2.181   4.833  15.339  1.0513  0.1990 -1.7627
  661TIP3    H223399   2.062   4.818  15.246  1.0759  2.1808 -2.1458
  662TIP3   OH223400   2.913   5.644   5.710  0.3505  0.6770 -0.0268
  662TIP3    H123401   2.859   5.565   5.720  1.1039  0.1446 -0.0980
  662TIP3    H223402   2.915   5.660   5.616 -0.3496  1.1803  0.0335
  663TIP3   OH223403   6.433   0.532   1.731 -0.0899 -0.0247  0.3111
  663TIP3    H123404   6.455   0.597   1.665  0.9945 -1.6124 -0.9787
  663TIP3    H223405   6.346   0.502   1.707 -0.2665  0.3825  0.4383
  664TIP3   OH223406   2.696   0.149  13.137  0.7190 -0.7702  0.3641
  664TIP3    H123407   2.746   0.230  13.125 -1.3131  0.6752  1.1917
  664TIP3    H223408   2.620   0.174  13.188 -1.5227 -2.6176 -1.7943
  665TIP3   OH223409   6.270   5.232  16.579  0.5505  0.0820 -0.5600
  665TIP3    H123410   6.360   5.246  16.609  0.1607  1.8311 -0.0844
  665TIP3    H223411   6.279   5.201  16.489  1.6267  1.2639 -0.8785
  666TIP3   OH223412   5.247   4.595   0.742 -0.1520  0.5727  0.6227
  666TIP3    H123413   5.287   4.674   0.707 -0.4872  2.0831  3.3793
  666TIP3    H223414   5.309   4.563   0.808 -1.2107  0.1154  1.4385
  667TIP3   OH223415   4.798   0.210  15.603  0.0992  0.0225  0.2638
  667TIP3    H123416   4.761   0.213  15.515  2.1168  0.2217 -0.6382
  667TIP3    H223417   4.752   0.279  15.651 -1.2073 -0.2617 -0.5525
  668TIP3   OH223418   2.261   1.221   5.092  0.3055  0.4011  0.3261
  668TIP3    H123419   2.303   1.228   5.178 -0.2776  1.3423  0.5421
  668TIP3    H223420   2.282   1.303   5.048 -1.5223  1.0249  0.5484
  669TIP3   OH223421   4.727   4.048   6.905  0.0539  0.0816  0.1002
  669TIP3    H123422   4.789   4.112   6.869  1.1847 -1.4139 -0.7283
  669TIP3    H223423   4.654   4.048   6.843 -0.9434  2.0239  1.2021
  670TIP3   OH223424   3.233   6.376  13.459  0.0142  0.1776 -0.1901
  670TIP3    H123425   3.266   6.453  13.504 -0.7200  0.1743  0.3738
  670TIP3    H223426   3.298   6.357  13.391  0.1800  1.3048 -0.3529
  671TIP3   OH223427   0.440   2.445  16.903 -0.1949  0.4655  0.1852
  671TIP3    H123428   0.437   2.538  16.882 -2.6095  0.5670  0.7264
  671TIP3    H223429   0.379   2.434  16.975 -0.0887 -1.5714  0.0331
  672TIP3   OH223430   3.093   2.685   0.995  0.2372  0.1040  0.3632
  672TIP3    H123431   3.068   2.661   1.085 -2.6054  0.0582 -0.3410
  672TIP3    H223432   3.068   2.610   0.942 -0.7597  1.2032 -0.7837
  673TIP3   OH223433   2.940   2.981   3.595 -0.7423  0.1493 -0.1685
  673TIP3    H123434   2.971   3.069   3.617  0.3435  0.0924 -1.3186
  673TIP3    H223435   3.016   2.925   3.610 -1.7273 -0.8032  1.5914
  674TIP3   OH223436   3.877   2.166  16.707  0.4536  0.0021 -0.5379
  674TIP3    H123437   3.911   2.248  16.671  0.4883 -0.8696 -2.6184
  674TIP3    H223438   3.906   2.098  16.646 -1.5964 -1.2677 -0.2132
  675TIP3   OH223439   5.061   2.529   3.124 -0.5169 -0.2816  0.0761
  675TIP3    H123440   4.997   2.580   3.075 -0.9841 -0.0090  0.9538
  675TIP3    H223441   5.144   2.546   3.079 -0.4777  2.0525  0.8932
  676TIP3   OH223442   1.718   1.946  11.345  0.3194  0.1931 -0.4895
  676TIP3    H123443   1.748   1.955  11.255 -0.2483 -0.4810 -0.7539
  676TIP3    H223444   1.623   1.935  11.338  0.2367  0.3815  0.2087
  677TIP3   OH223445   1.944   4.064   5.062 -0.3904  0.5238  0.0135
  677TIP3    H123446   1.966   4.113   4.983  0.1617  1.8688  0.9698
  677TIP3    H223447   1.981   3.977   5.048 -1.3787  0.3414 -1.7121
  678TIP3   OH223448   0.057   2.564   3.408  0.7180  0.3555 -0.0698
  678TIP3    H123449   0.072   2.655   3.384  1.2532  0.0846 -0.7551
  678TIP3    H223450   0.142   2.521   3.399  0.7307  0.0147  1.3238
  679TIP3   OH223451   0.573   4.795   1.020 -0.2190  0.3506  0.6861
  679TIP3    H123452   0.514   4.743   0.965 -1.2671  0.2855  1.8333
  679TIP3    H223453   0.635   4.732   1.056 -0.0802  0.2613  0.3007
  680TIP3   OH223454   1.656   1.499   6.434 -0.1616 -0.2588  0.8764
  680TIP3    H123455   1.567   1.463   6.440 -0.8105  0.6306 -1.9065
  680TIP3    H223456   1.645   1.593   6.448  0.3857 -0.1795  0.7936
  681TIP3   OH223457   4.856   5.979   0.924  0.5841  0.3005 -0.4205
  681TIP3    H123458   4.810   5.897   0.941  0.4148  0.6708  1.0902
  681TIP3    H223459   4.890   6.005   1.009  3.7230  0.0155 -1.4548
  682TIP3   OH223460   4.892   4.614   0.061  0.4335 -0.4210 -0.0431
  682TIP3    H123461   4.954   4.543   0.044  0.6926 -0.3857  0.6867
  682TIP3    H223462   4.806   4.575   0.049  0.5841 -0.4007 -1.3427
  683TIP3   OH223463   4.499   1.408  10.447 -0.2851  0.0021  0.5966
  683TIP3    H123464   4.416   1.364  10.427 -0.7325 -0.4609  3.1406
  683TIP3    H223465   4.545   1.411  10.363 -2.8737  0.3589 -0.9244
  684TIP3   OH223466   1.189   5.280  10.790  0.3343  0.6408 -0.1610
  684TIP3    H123467   1.259   5.250  10.731 -0.1468  1.5275 -1.2105
  684TIP3    H223468   1.191   5.375  10.782 -1.3730  0.6698 -0.6809
  685TIP3   OH223469   5.763   3.642   1.428 -0.9457 -0.2951 -0.1557
  685TIP3    H123470   5.720   3.557   1.421 -2.0346  0.2286  0.0976
  685TIP3    H223471   5.852   3.621   1.459 -0.5026 -1.4984 -2.0946
  686TIP3   OH223472   2.043   3.136   5.128  0.3274  0.2283 -0.3387
  686TIP3    H123473   2.118   3.104   5.078 -0.3666  1.0168 -1.9675
  686TIP3    H223474   1.969   3.082   5.098 -0.2930  1.3780 -0.9592
  687TIP3   OH223475   6.130   6.766   2.736 -0.0588 -0.8933 -0.0464
  687TIP3    H123476   6.089   6.834   2.683  0.9435  0.0218  0.3230
  687TIP3    H223477   6.057   6.711   2.765 -0.9732  0.4287  0.2163
  688TIP3   OH223478   0.251   5.430  15.841 -0.2016 -1.0625  0.1275
  688TIP3    H123479   0.285   5.483  15.913  0.2169 -0.1352 -0.7194
  688TIP3    H223480   0.252   5.340  15.874  1.5324 -0.8583  0.7157
  689TIP3   OH223481   5.777   5.203  15.212 -0.2898 -0.1796  0.2249
  689TIP3    H123482   5.790   5.184  15.305  1.6103 -0.1038  0.0123
  689TIP3    H223483   5.795   5.297  15.205  2.2281 -0.6757 -0.6085
  690TIP3   OH223484   5.591   6.475   3.848 -0.0941  0.5549 -0.4156
  690TIP3    H123485   5.642   6.419   3.906  0.9569 -1.7619 -3.3595
  690TIP3    H223486   5.627   6.563   3.862 -1.1401  0.5241  3.6092
  691TIP3   OH223487   5.331   4.879   2.546 -0.2355  0.3927  0.1171
  691TIP3    H123488   5.343   4.845   2.635  1.9046  0.2180 -0.1691
  691TIP3    H223489   5.340   4.974   2.555  0.6068  0.3321  0.0387
  692TIP3   OH223490   3.476   2.438  11.337 -0.0585  0.0761 -0.5487
  692TIP3    H123491   3.445   2.520  11.374 -2.6139 -0.7726 -0.5961
  692TIP3    H223492   3.565   2.429  11.370 -0.3399  1.9829  0.9282
  693TIP3   OH223493   3.926   0.955  11.688  0.4782  0.0391 -0.3102
  693TIP3    H123494   3.927   0.951  11.593  2.9292 -0.9686 -0.2865
  693TIP3    H223495   3.945   0.866  11.717  1.5362  0.6807  1.0903
  694TIP3   OH223496   6.582   2.693  13.504  0.1542  0.4018 -0.7521
  694TIP3    H123497   6.564   2.787  13.502 -0.4113  0.3062 -0.1670
  694TIP3    H223498   6.496   2.652  13.502  0.3968 -0.1053 -0.8830
  695TIP3   OH223499   5.404   5.154   3.756 -0.5650 -0.3106 -0.3018
  695TIP3    H123500   5.418   5.247   3.775 -0.3165 -0.2208 -0.8823
  695TIP3    H223501   5.310   5.141   3.766 -0.2611 -0.7662  3.0554
  696TIP3   OH223502   5.174   4.874  15.236 -0.7366 -0.1908  0.0774
  696TIP3    H123503   5.139   4.923  15.311  0.2552 -0.2477  0.5997
  696TIP3    H223504   5.215   4.797  15.275 -1.3829 -0.9111 -0.6531
  697TIP3   OH223505   0.072   6.113   0.920  0.0262  0.0443 -0.1841
  697TIP3    H123506   0.024   6.157   0.850 -0.0212  0.3359  0.0279
  697TIP3    H223507   0.005   6.090   0.984  0.3409  2.1259  1.0146
  698TIP3   OH223508   4.866   0.719   2.249 -0.1716  0.0697  0.4054
  698TIP3    H123509   4.943   0.759   2.289  0.9518  0.0183 -1.5896
  698TIP3    H223510   4.870   0.627   2.276 -2.9806  1.0380  5.3391
  699TIP3   OH223511   4.463   0.936   4.200  0.2544 -0.1424  0.3743
  699TIP3    H123512   4.498   1.020   4.171  0.7722 -0.5201 -0.1176
  699TIP3    H223513   4.474   0.878   4.125  1.7784 -1.1903  1.3407
  700TIP3   OH223514   6.600   1.559  10.952  0.6570  0.1232 -0.3499
  700TIP3    H123515   6.670   1.623  10.958  0.2446  0.4748  1.4100
  700TIP3    H223516   6.544   1.590  10.881 -0.7541  3.0441  1.8335
  701TIP3   OH223517   2.234   2.737  17.084 -0.4382  0.5770 -0.1211
  701TIP3    H123518   2.237   2.793  17.006 -0.6831 -0.3828 -0.8504
  701TIP3    H223519   2.159   2.679  17.068 -0.7896  0.6819  1.0673
  702TIP3   OH223520   5.142   3.141   1.932 -0.1396 -0.0047 -0.4277
  702TIP3    H123521   5.079   3.091   1.879 -0.2914  0.5199 -0.7403
  702TIP3    H223522   5.190   3.194   1.870 -1.8214  2.2991  0.1205
  703TIP3   OH223523   4.079   2.266   5.092  0.0432 -0.0539  0.3254
  703TIP3    H123524   3.992   2.247   5.056  0.0106  0.6600  0.0098
  703TIP3    H223525   4.112   2.337   5.038  0.2887  0.5733  1.2825
  704TIP3   OH223526   1.174   4.116   1.468 -0.2890 -0.1389  0.2352
  704TIP3    H123527   1.207   4.030   1.440 -1.3484  0.2870 -2.6608
  704TIP3    H223528   1.079   4.103   1.478 -0.1149  0.0501  2.7202
  705TIP3   OH223529   4.226   3.030   3.450  0.0275 -0.0336 -0.4306
  705TIP3    H123530   4.252   2.943   3.480  0.0127 -0.2873 -1.1348
  705TIP3    H223531   4.241   3.087   3.525 -1.8930 -0.9680  0.7380
  706TIP3   OH223532   2.359   3.571  16.922 -0.1891  0.8010  0.2312
  706TIP3    H123533   2.348   3.587  17.015  0.1169 -1.5201  0.7371
  706TIP3    H223534   2.294   3.504  16.901  1.3449 -0.4943 -0.6256
  707TIP3   OH223535   3.642   2.389  15.252 -0.9021  0.2975 -0.0787
  707TIP3    H123536   3.702   2.463  15.240 -1.0512  0.3090 -0.8277
  707TIP3    H223537   3.692   2.325  15.303 -0.3043  0.3757 -0.5528
  708TIP3   OH223538   0.098   4.668  16.795  0.8223  0.3312 -0.2102
  708TIP3    H123539   0.123   4.722  16.870 -0.0785  2.5882 -1.4662
  708TIP3    H223540   0.148   4.703  16.721  0.8282 -1.1068 -0.9339
  709TIP3   OH223541   5.073   6.426   2.439 -0.0442 -0.2167 -0.0042
  709TIP3    H123542   5.158   6.381   2.441 -0.1719 -0.4369  0.6555
  709TIP3    H223543   5.020   6.381   2.505 -1.0101 -0.7377 -1.0904
  710TIP3   OH223544   4.323   4.048  16.282 -0.3712  0.0246  0.3710
  710TIP3    H123545   4.348   4.005  16.364 -0.2541  0.2490  0.4521
  710TIP3    H223546   4.399   4.038  16.226 -0.7463 -0.8627 -0.0110
  711TIP3   OH223547   4.808   5.509  12.921 -0.4950  0.0203 -0.2838
  711TIP3    H123548   4.832   5.449  12.992 -1.2600  0.0847  0.0355
  711TIP3    H223549   4.713   5.511  12.923 -0.4994  0.4883 -0.9342
  712TIP3   OH223550   2.311   6.761   5.085 -0.2813 -0.6165 -0.0276
  712TIP3    H123551   2.249   6.809   5.030 -1.4015 -1.0638  0.7959
  712TIP3    H223552   2.393   6.762   5.036 -1.0769 -0.4618 -1.3986
  713TIP3   OH223553   6.350   1.044   0.538 -0.1168  0.2861  0.3667
  713TIP3    H123554   6.390   1.045   0.451  0.1581 -1.0251  0.4454
  713TIP3    H223555   6.317   1.133   0.552  0.1113  0.5850 -0.9446
  714TIP3   OH223556   4.218   2.302  15.326  0.0759  0.5032  0.4420
  714TIP3    H123557   4.153   2.268  15.388 -0.2665  0.7715  0.2353
  714TIP3    H223558   4.231   2.230  15.264  1.1566 -0.1327  1.3766
  715TIP3   OH223559   5.000   2.237  15.830  0.3045 -0.2966  0.1771
  715TIP3    H123560   5.027   2.148  15.808  0.5192 -0.8662  2.5013
  715TIP3    H223561   4.905   2.232  15.836 -0.0023  0.4164 -2.6197
  716TIP3   OH223562   0.232   3.608  15.889 -0.3385 -0.2846  0.2609
  716TIP3    H123563   0.274   3.524  15.910  0.0875 -0.6629 -1.8166
  716TIP3    H223564   0.254   3.665  15.962  0.9380 -1.4718  0.8554
  717TIP3   OH223565   6.267   3.489   5.273  0.4335  0.4090 -0.2045
  717TIP3    H123566   6.235   3.557   5.333 -0.7004  0.6742 -1.0776
  717TIP3    H223567   6.199   3.421   5.275 -0.1754  0.9087 -1.9754
  718TIP3   OH223568   0.475   3.906   1.483  0.2881 -0.2878  0.4969
  718TIP3    H123569   0.541   3.968   1.514 -0.5967  0.6418  0.5988
  718TIP3    H223570   0.392   3.951   1.498 -0.2875 -0.6447 -1.3274
  719TIP3   OH223571   4.024   4.201   3.999  0.5234  0.1613  0.5353
  719TIP3    H123572   3.964   4.228   4.068  1.3606  0.4140  1.1755
  719TIP3    H223573   4.087   4.273   3.992  0.2437  0.2959 -0.7372
  720TIP3   OH223574   0.905   3.752  12.917  0.1817 -0.1395  0.0067
  720TIP3    H123575   0.929   3.664  12.945  0.2290 -0.0740  0.1765
  720TIP3    H223576   0.972   3.809  12.957  1.0892 -0.1797 -1.3875
  721TIP3   OH223577   0.713   5.118   2.114 -0.4061 -0.0816  0.6444
  721TIP3    H123578   0.648   5.082   2.175  0.9194 -0.0019  2.1768
  721TIP3    H223579   0.775   5.047   2.101 -0.3976  0.0776 -0.2272
  722TIP3   OH223580   4.398   5.797   0.562  0.0921 -0.3464 -0.0098
  722TIP3    H123581   4.451   5.830   0.490 -1.3312  1.4061 -0.3481
  722TIP3    H223582   4.383   5.874   0.617 -3.1248 -0.3805 -0.6259
  723TIP3   OH223583   3.097   1.955  14.403 -0.1288 -0.2248 -0.0542
  723TIP3    H123584   3.063   1.881  14.354 -1.2447  0.5959 -0.5606
  723TIP3    H223585   3.069   1.940  14.493 -1.6541  0.2904 -0.4103
  724TIP3   OH223586   6.666   0.337   0.349 -0.3746  0.1415  0.0573
  724TIP3    H123587   6.669   0.390   0.269 -0.9684  0.0755 -0.0127
  724TIP3    H223588   6.691   0.249   0.320  0.7016  0.3966  0.1908
  725TIP3   OH223589   6.649   2.237  10.866  0.0947  0.2876  0.3097
  725TIP3    H123590   6.723   2.297  10.853  0.2765  0.1882  0.8525
  725TIP3    H223591   6.579   2.293  10.900 -0.0986  0.3920 -0.2593
  726TIP3   OH223592   2.678   6.805   2.103  0.0021 -0.5023 -0.5005
  726TIP3    H123593   2.658   6.762   2.186  1.0134  0.5599  0.3342
  726TIP3    H223594   2.594   6.838   2.072 -0.4234 -1.1298 -0.0351
  727TIP3   OH223595   2.802   4.697  14.544 -0.0545 -0.5882  0.3811
  727TIP3    H123596   2.710   4.709  14.569 -0.1025 -0.7264  0.2757
  727TIP3    H223597   2.801   4.698  14.448  0.5702  3.4305  0.2479
  728TIP3   OH223598   0.088   3.892  12.041 -0.2492 -0.1995  0.2128
  728TIP3    H123599   0.146   3.959  12.005  1.0659 -1.9051 -0.9939
  728TIP3    H223600   0.113   3.811  11.996 -0.9011 -1.7774  2.4844
  729TIP3   OH223601   1.027   6.733  10.981  0.2076  0.2074 -0.6928
  729TIP3    H123602   1.002   6.702  10.894 -0.7820  0.5360 -0.5420
  729TIP3    H223603   1.032   6.828  10.972 -1.1730  0.3624 -0.1075
  730TIP3   OH223604   1.843   4.803  15.098 -0.1637 -1.1382  0.9032
  730TIP3    H123605   1.799   4.798  15.182 -1.8980 -1.2513  0.0422
  730TIP3    H223606   1.824   4.719  15.056 -0.0933 -0.7406  0.0494
  731TIP3   OH223607   3.764   0.433  11.903 -0.6445  0.3566 -0.2141
  731TIP3    H123608   3.732   0.461  11.989  0.1939 -4.1740  1.9003
  731TIP3    H223609   3.859   0.442  11.909 -0.6001  0.3023 -0.8092
  732TIP3   OH223610   5.121   4.838   2.782  0.5551  0.4236 -0.0400
  732TIP3    H123611   5.136   4.918   2.830  0.4352  0.9694 -0.8864
  732TIP3    H223612   5.201   4.787   2.793  0.8601  0.9161  0.0182
  733TIP3   OH223613   4.612   3.161   1.293 -0.4495 -0.0382  0.4093
  733TIP3    H123614   4.567   3.081   1.322 -0.8070  1.0544  3.2723
  733TIP3    H223615   4.548   3.231   1.309  0.4074  0.9887 -0.5331
  734TIP3   OH223616   1.148   4.370  12.707 -0.6349  0.2080 -0.1358
  734TIP3    H123617   1.100   4.428  12.647  1.8549  1.1691 -1.3554
  734TIP3    H223618   1.153   4.420  12.789 -0.0439  1.0012 -0.6293
  735TIP3   OH223619   1.749   6.232   3.956 -0.5517 -0.5194 -0.3158
  735TIP3    H123620   1.797   6.314   3.961  1.7402 -1.8005 -0.2007
  735TIP3    H223621   1.713   6.219   4.044  1.6797 -1.1061  0.5561
  736TIP3   OH223622   4.649   4.619   3.628 -0.2800 -0.3511 -0.0201
  736TIP3    H123623   4.671   4.711   3.643 -0.3999 -0.4478  0.8133
  736TIP3    H223624   4.612   4.617   3.539 -1.0813  0.5561  0.2688
  737TIP3   OH223625   5.890   5.953  15.676  0.0124  0.1791 -0.2840
  737TIP3    H123626   5.972   5.971  15.629  0.8785  1.6208  1.6374
  737TIP3    H223627   5.893   6.010  15.752 -1.7708 -1.3883  1.0573
  738TIP3   OH223628   1.735   5.591  12.643 -0.9649 -0.1254  0.0709
  738TIP3    H123629   1.803   5.558  12.585  0.6975  0.0999  1.7983
  738TIP3    H223630   1.699   5.512  12.685 -0.5179 -0.1249  0.4620
  739TIP3   OH223631   1.813   3.724   3.349  0.7264  0.2641 -0.0220
  739TIP3    H123632   1.893   3.724   3.402  1.6412  0.3998 -1.3767
  739TIP3    H223633   1.796   3.817   3.333  1.5000  0.1849 -1.4684
  740TIP3   OH223634   0.271   4.713  11.105 -0.4655 -0.3614  0.5161
  740TIP3    H123635   0.241   4.644  11.046  2.0387 -1.9555  0.9571
  740TIP3    H223636   0.251   4.795  11.059 -2.7022 -1.3598 -0.4266
  741TIP3   OH223637   1.603   2.276  16.642  0.0986  0.7779 -0.9431
  741TIP3    H123638   1.579   2.204  16.699 -0.7832 -1.5724 -3.9960
  741TIP3    H223639   1.531   2.338  16.649 -0.4333  0.0998 -0.2439
  742TIP3   OH223640   1.622   6.267  13.246  0.1930 -0.3585  0.2078
  742TIP3    H123641   1.660   6.291  13.331  0.6166 -0.7551  0.1315
  742TIP3    H223642   1.646   6.340  13.188 -1.2883  0.6053  0.7500
  743TIP3   OH223643   4.546   6.102   0.450  0.0404 -0.2076  0.0539
  743TIP3    H123644   4.617   6.106   0.514 -1.1779 -1.2146  1.5460
  743TIP3    H223645   4.568   6.028   0.393  0.6571  0.0979 -0.1129
  744TIP3   OH223646   6.010   3.167   4.781  0.2519 -0.0707 -0.0734
  744TIP3    H123647   6.080   3.103   4.790 -1.3367 -1.9318 -0.4201
  744TIP3    H223648   6.011   3.190   4.688 -0.6332 -1.3822 -0.4333
  745TIP3   OH223649   0.705   2.117   2.091  0.3468  0.4339  0.2552
  745TIP3    H123650   0.742   2.092   2.176  0.8083 -0.0452 -0.0758
  745TIP3    H223651   0.752   2.062   2.028  0.7865  1.5680 -0.4220
  746TIP3   OH223652   6.514   3.317   3.250  0.0651  0.4678 -0.1784
  746TIP3    H123653   6.525   3.404   3.209 -1.7524  0.2404 -1.2737
  746TIP3    H223654   6.496   3.336   3.342 -1.8351  1.4019 -0.6912
  747TIP3   OH223655   0.004   4.886  12.977  0.1168 -0.0057  0.2565
  747TIP3    H123656  -0.030   4.944  12.909 -0.0180 -2.3139 -1.7915
  747TIP3    H223657   0.079   4.933  13.014  0.5825  1.0986 -1.9532
  748TIP3   OH223658   4.029   3.049   2.472 -0.5575  0.3339 -0.2682
  748TIP3    H123659   4.068   3.031   2.386 -0.2865 -0.1087 -0.0563
  748TIP3    H223660   3.990   3.135   2.462  1.0055  1.0850 -0.3116
  749TIP3   OH223661   6.478   4.834  14.124 -0.6144  0.1233 -0.0880
  749TIP3    H123662   6.426   4.856  14.047  0.2697  0.3523 -0.6353
  749TIP3    H223663   6.494   4.740  14.118  2.7948  0.6530 -2.4124
  750TIP3   OH223664   6.171   4.800   6.064  0.0913 -0.6805  0.5297
  750TIP3    H123665   6.161   4.884   6.020 -0.7808 -1.4107 -0.7481
  750TIP3    H223666   6.193   4.822   6.155 -0.7902  0.9258  0.3799
  751TIP3   OH223667   5.916   1.481  13.369 -0.5850  0.2074  0.0418
  751TIP3    H123668   5.871   1.564  13.379  0.6843  0.6480  3.4383
  751TIP3    H223669   6.007   1.499  13.394 -0.0378 -1.9472 -0.1395
  752TIP3   OH223670   1.114   3.560   4.678 -0.4557 -0.0305 -0.3423
  752TIP3    H123671   1.053   3.634   4.678 -0.9405 -0.3704  1.5752
  752TIP3    H223672   1.088   3.508   4.753  1.1277 -1.1165 -0.4956
  753TIP3   OH223673   5.220   5.477   5.534  0.3591  0.3008  0.0125
  753TIP3    H123674   5.128   5.497   5.518  0.1195 -0.2796  0.6021
  753TIP3    H223675   5.252   5.550   5.587  0.5273  1.0328 -1.0744
  754TIP3   OH223676   2.739   6.257  14.286 -0.5130  0.2912 -0.1588
  754TIP3    H123677   2.798   6.215  14.223 -3.8298 -2.7962 -1.5327
  754TIP3    H223678   2.676   6.305  14.232 -3.0353 -1.8708  0.6607
  755TIP3   OH223679   6.620   2.821   2.009 -0.9670 -0.2013 -0.4033
  755TIP3    H123680   6.600   2.899   1.957  0.1666 -0.4795 -1.3127
  755TIP3    H223681   6.547   2.761   1.990 -2.0425  0.7290  0.5945
  756TIP3   OH223682   6.152   3.131  15.980  0.2183  0.6899  0.3108
  756TIP3    H123683   6.138   3.086  16.063 -1.3866 -1.3653 -0.9690
  756TIP3    H223684   6.123   3.220  15.996  0.1265  0.3874  2.0080
  757TIP3   OH223685   4.694   1.523   4.315 -0.5094  0.1255 -0.3273
  757TIP3    H123686   4.681   1.614   4.287 -0.6793  0.1912 -0.0328
  757TIP3    H223687   4.786   1.519   4.341 -0.3391  0.0545 -0.9308
  758TIP3   OH223688   1.857   5.776  14.498  0.4149 -0.0844 -0.1187
  758TIP3    H123689   1.911   5.821  14.433  0.9874 -1.3696 -0.5783
  758TIP3    H223690   1.896   5.799  14.582  0.3089  0.7707 -0.3015
  759TIP3   OH223691   6.477   6.570  11.838 -0.2425 -0.0972 -0.1132
  759TIP3    H123692   6.561   6.552  11.796  0.6371  0.7798  1.1940
  759TIP3    H223693   6.500   6.616  11.919 -2.0105  0.5515  0.0640
  760TIP3   OH223694   6.127   4.586   2.286  0.0557  0.4496  0.2579
  760TIP3    H123695   6.153   4.628   2.204  0.0558 -1.2552 -0.6606
  760TIP3    H223696   6.176   4.503   2.287 -0.4119  0.1668  1.6885
  761TIP3   OH223697   1.592   5.429   0.513 -0.0909  0.7703  0.5462
  761TIP3    H123698   1.663   5.375   0.478 -0.1019  1.3326 -0.3744
  761TIP3    H223699   1.558   5.476   0.437  0.0595  2.2394  1.3462
  762TIP3   OH223700   3.898   4.723   0.943 -0.0682  0.1325 -0.0969
  762TIP3    H123701   3.956   4.792   0.976  0.4852  0.2930 -1.3398
  762TIP3    H223702   3.864   4.758   0.861 -1.5165 -0.1925  0.3429
  763TIP3   OH223703   1.567   6.199  11.610 -1.0648 -0.1726 -0.4002
  763TIP3    H123704   1.615   6.153  11.679 -1.9330 -0.8852 -0.2551
  763TIP3    H223705   1.564   6.290  11.639 -0.4859 -0.2676 -0.0314
  764TIP3   OH223706   6.374   4.503  12.661  0.4899  0.5871  0.6002
  764TIP3    H123707   6.469   4.505  12.671  0.5495  1.0156  0.0019
  764TIP3    H223708   6.343   4.453  12.737  1.2486 -0.2279  0.3963
  765TIP3   OH223709   0.316   2.643  12.239  0.5570  0.1936 -0.0237
  765TIP3    H123710   0.386   2.707  12.225  0.9328 -0.6173 -2.2515
  765TIP3    H223711   0.254   2.659  12.169 -0.4217 -0.5064  0.6520
  766TIP3   OH223712   4.830   1.866  15.534 -0.3795 -0.5027  0.0611
  766TIP3    H123713   4.752   1.819  15.563  0.2560 -0.8510  1.2842
  766TIP3    H223714   4.811   1.958  15.553 -0.4324 -0.6040  0.5011
  767TIP3   OH223715   4.321   4.303   2.806  0.4391  0.0001 -0.1066
  767TIP3    H123716   4.290   4.247   2.877  1.2224  0.0472  0.2764
  767TIP3    H223717   4.321   4.246   2.729 -0.7977  0.0527 -0.1726
  768TIP3   OH223718   6.610   1.092  11.559  0.2329  0.3966  0.2112
  768TIP3    H123719   6.624   1.115  11.467 -0.1302  2.5550  0.6441
  768TIP3    H223720   6.660   1.158  11.608 -0.9749  0.3508  1.5701
  769TIP3   OH223721   2.914   2.931   1.395 -0.5435 -0.2779  0.5003
  769TIP3    H123722   2.992   2.876   1.385 -1.2307 -1.2661  0.3925
  769TIP3    H223723   2.903   2.939   1.490  1.1425  2.0420  0.5754
  770TIP3   OH223724   4.104   4.311   4.338 -0.1086  0.1589  0.0497
  770TIP3    H123725   4.030   4.345   4.389  0.0080 -0.0351  0.3485
  770TIP3    H223726   4.088   4.344   4.250  0.4928  1.8052  0.5157
  771TIP3   OH223727   2.695   2.453   3.196 -0.2675 -0.2335  0.3186
  771TIP3    H123728   2.600   2.444   3.207 -0.2220 -0.1203  0.8167
  771TIP3    H223729   2.705   2.488   3.107 -0.6308 -1.4040 -0.2098
  772TIP3   OH223730   2.242   5.972  12.168 -0.5448  0.1349  0.1567
  772TIP3    H123731   2.206   5.934  12.249 -0.1611 -0.6676 -0.0346
  772TIP3    H223732   2.332   5.939  12.164 -0.7223 -0.2744 -0.8602
  773TIP3   OH223733   3.925   5.373  15.762  0.5777 -0.0609 -0.2651
  773TIP3    H123734   4.010   5.417  15.771  1.2278 -1.4797  0.9691
  773TIP3    H223735   3.943   5.295  15.711 -0.0380 -0.2510 -0.2026
  774TIP3   OH223736   4.558   5.699  11.107  0.7302 -0.4144  0.2428
  774TIP3    H123737   4.587   5.610  11.131  1.0027 -0.2138  0.6763
  774TIP3    H223738   4.546   5.743  11.191 -1.4468 -0.6760  0.1097
  775TIP3   OH223739   6.366   6.703  16.590 -0.3385 -0.8078 -0.2565
  775TIP3    H123740   6.434   6.652  16.633 -0.3445 -0.0717  0.6474
  775TIP3    H223741   6.308   6.638  16.551 -0.7000 -1.5289  1.4084
  776TIP3   OH223742   2.995   5.410   3.061 -0.3463  0.4702  0.1278
  776TIP3    H123743   2.995   5.503   3.039 -0.2478  0.3451 -0.3925
  776TIP3    H223744   3.053   5.369   2.997 -1.5192 -0.1605 -0.5715
  777TIP3   OH223745   1.117   6.368  15.728  0.0180 -0.4200  0.0331
  777TIP3    H123746   1.173   6.290  15.732  0.1965 -0.2443  1.6000
  777TIP3    H223747   1.175   6.440  15.751 -0.4919 -0.0185  0.0827
  778TIP3   OH223748   6.420   5.187  14.319  0.1801 -0.4063  0.0417
  778TIP3    H123749   6.396   5.095  14.329 -0.5111 -0.0142  2.5173
  778TIP3    H223750   6.512   5.190  14.346  0.7778 -0.6248 -1.8402
  779TIP3   OH223751   4.643   3.029  13.943 -0.6410  0.0899 -0.6608
  779TIP3    H123752   4.731   3.064  13.925 -0.6776 -0.3085 -1.6513
  779TIP3    H223753   4.652   2.934  13.930 -0.8637 -0.1436  0.7157
  780TIP3   OH223754   3.575   6.217  11.800  0.3434  0.2870 -0.0462
  780TIP3    H123755   3.568   6.131  11.759 -0.6049  0.2855  0.1051
  780TIP3    H223756   3.633   6.203  11.874  1.2175  0.0606 -0.7532
  781TIP3   OH223757   4.577   4.830   6.295 -0.1067  0.4099 -0.1400
  781TIP3    H123758   4.667   4.818   6.263 -0.5390  1.4782 -1.8314
  781TIP3    H223759   4.522   4.786   6.231 -0.8594  0.4139  0.4807
  782TIP3   OH223760   5.983   0.424  16.723 -0.3938 -0.4500 -0.2944
  782TIP3    H123761   6.038   0.360  16.768  1.4428  0.7444 -0.7409
  782TIP3    H223762   5.925   0.458  16.791 -1.5079 -2.6117 -0.0670
  783TIP3   OH223763   6.494   1.601   1.838  0.3859 -0.0547  0.1786
  783TIP3    H123764   6.567   1.549   1.803  2.7680  1.0297  3.0744
  783TIP3    H223765   6.530   1.689   1.847 -1.5780  0.7191  0.9310
  784TIP3   OH223766   0.207   6.584  15.980 -0.4383 -0.0144 -0.2523
  784TIP3    H123767   0.139   6.564  15.916 -0.3032  0.5247 -0.5742
  784TIP3    H223768   0.220   6.679  15.972 -1.3880  0.3124  1.5326
  785TIP3   OH223769   0.592   3.463  14.047  0.1083  0.0260 -1.2874
  785TIP3    H123770   0.569   3.548  14.085 -1.2561 -0.3415 -1.2532
  785TIP3    H223771   0.511   3.412  14.050  1.0276 -1.4816 -0.7913
  786TIP3   OH223772   6.770   6.296  10.239  0.1255 -0.0950  0.7374
  786TIP3    H123773   6.851   6.260  10.203  0.0512  1.3011 -0.9896
  786TIP3    H223774   6.703   6.233  10.214  0.5175 -0.6985  1.1944
  787TIP3   OH223775   5.592   5.878  12.705  0.5265  0.4533 -0.2967
  787TIP3    H123776   5.558   5.964  12.729 -0.7379  0.0343 -0.4659
  787TIP3    H223777   5.658   5.858  12.772  1.0110  1.6425 -0.4018
  788TIP3   OH223778   2.511   2.021   5.058  0.2001 -0.1225 -0.2350
  788TIP3    H123779   2.591   1.998   5.107  1.0699 -0.2106 -1.6475
  788TIP3    H223780   2.517   2.116   5.047 -0.1554 -0.0609  0.0854
  789TIP3   OH223781   3.257   1.367   0.791  0.2834  0.2983 -0.0564
  789TIP3    H123782   3.310   1.366   0.871  1.3488 -1.1322 -0.7343
  789TIP3    H223783   3.295   1.438   0.739  0.1696  0.6400  0.3182
  790TIP3   OH223784   3.087   0.875   0.476 -0.6449  0.1480  0.1494
  790TIP3    H123785   3.002   0.912   0.451 -1.1556 -0.5973  0.7633
  790TIP3    H223786   3.076   0.781   0.467 -0.3832 -0.0585  1.7129
  791TIP3   OH223787   2.558   0.897   3.909 -0.4052 -0.0357  0.1230
  791TIP3    H123788   2.647   0.907   3.877 -0.1581 -0.4179  0.6663
  791TIP3    H223789   2.535   0.806   3.889  0.3714 -0.8231  2.4584
  792TIP3   OH223790   5.508   6.491   5.728  0.7890  0.3395 -0.2990
  792TIP3    H123791   5.493   6.404   5.765  1.0763  0.8029  0.9573
  792TIP3    H223792   5.595   6.515   5.758  0.0123  1.7974  0.9516
  793TIP3   OH223793   4.638   5.641   5.377  0.1713 -0.0106 -0.7210
  793TIP3    H123794   4.718   5.605   5.340  0.9394 -0.0581  0.9233
  793TIP3    H223795   4.655   5.735   5.384 -0.4255  0.1771 -1.5441
  794TIP3   OH223796   4.801   4.942  14.319 -0.3262  0.1482 -0.0012
  794TIP3    H123797   4.888   4.982  14.329 -0.8901  1.4082 -0.0272
  794TIP3    H223798   4.745   5.013  14.288 -1.4558 -0.5658  0.3571
  795TIP3   OH223799   3.538   5.691   2.134 -0.3718 -0.1072 -0.0154
  795TIP3    H123800   3.454   5.735   2.119 -1.0447 -1.6021 -0.8207
  795TIP3    H223801   3.528   5.605   2.094  1.1267 -0.7841  0.9580
  796TIP3   OH223802   0.507   5.134  11.178 -0.1747  0.4704  0.2068
  796TIP3    H123803   0.513   5.071  11.106 -1.3218 -0.5283  0.9501
  796TIP3    H223804   0.422   5.117  11.217  0.2103  1.3510  1.4785
  797TIP3   OH223805   0.292   2.502  10.482  0.0995  0.1108 -0.2397
  797TIP3    H123806   0.238   2.536  10.553 -0.8924 -0.8429 -0.5005
  797TIP3    H223807   0.382   2.512  10.512 -0.1345  2.4771 -0.1132
  798TIP3   OH223808   0.296   4.268  13.883 -0.8047 -0.5209  0.4806
  798TIP3    H123809   0.350   4.327  13.935 -1.1106  0.4876 -0.3096
  798TIP3    H223810   0.211   4.267  13.928 -0.4610 -1.2846  1.1361
  799TIP3   OH223811   6.661   0.557   3.408  0.1729 -0.0210  0.2294
  799TIP3    H123812   6.719   0.597   3.343  0.7373 -0.0404  0.7215
  799TIP3    H223813   6.575   0.596   3.390  0.5775  0.9017  0.2609
  800TIP3   OH223814   1.682   3.136  15.385 -0.3658  0.6673  0.4326
  800TIP3    H123815   1.762   3.188  15.393 -0.0417  0.4174 -0.9067
  800TIP3    H223816   1.613   3.192  15.419  0.4681  0.6036  2.3423
  801TIP3   OH223817   0.723   5.764  12.786  0.0792 -0.1542  0.2067
  801TIP3    H123818   0.755   5.746  12.697 -2.6054 -1.1155 -0.6705
  801TIP3    H223819   0.739   5.857  12.799 -1.4748  0.5350 -2.2354
  802TIP3   OH223820   1.717   4.067  11.995 -0.1852  0.1447 -0.2526
  802TIP3    H123821   1.660   3.994  12.020 -0.1861 -0.6395 -2.3207
  802TIP3    H223822   1.668   4.111  11.925  0.4035  1.3568  0.0792
  803TIP3   OH223823   6.544   6.051  11.290  0.0662 -0.2659 -0.0494
  803TIP3    H123824   6.473   6.111  11.270  0.5746  0.0710 -0.9394
  803TIP3    H223825   6.606   6.063  11.217  0.2872 -1.6917 -0.1110
  804TIP3   OH223826   4.464   0.797  12.903 -0.0488  0.0383  0.1182
  804TIP3    H123827   4.501   0.753  12.980 -0.6728 -0.5736  0.0754
  804TIP3    H223828   4.397   0.737  12.871  0.4435  0.1224 -1.1138
  805TIP3   OH223829   0.685   6.642  13.323  0.5787 -0.0748  0.2204
  805TIP3    H123830   0.760   6.676  13.274 -0.6541  1.5017 -0.6347
  805TIP3    H223831   0.690   6.685  13.408 -0.1951  1.2624 -0.3802
  806TIP3   OH223832   6.514   1.542   1.426 -0.5078 -0.3118  0.9719
  806TIP3    H123833   6.513   1.567   1.518  1.6228 -0.0988  0.9806
  806TIP3    H223834   6.547   1.619   1.380 -2.2914 -0.1275 -0.1157
  807TIP3   OH223835   3.549   6.710   4.028  0.6721  0.0527 -0.4726
  807TIP3    H123836   3.612   6.742   3.964 -0.1205 -0.3646 -1.4987
  807TIP3    H223837   3.492   6.785   4.046  1.5486  0.4920  0.6167
  808TIP3   OH223838   1.586   0.135  11.016  0.1240 -0.0780 -0.2321
  808TIP3    H123839   1.557   0.044  11.009  0.9189 -0.3075 -0.7286
  808TIP3    H223840   1.579   0.170  10.927 -0.9156  0.5985  0.0928
  809TIP3   OH223841   1.181   6.389   3.980 -0.1222 -0.3760 -0.3468
  809TIP3    H123842   1.198   6.304   4.020 -0.4497 -1.1860 -1.8533
  809TIP3    H223843   1.087   6.402   3.991  0.1176  0.4373  1.0317
  810TIP3   OH223844   0.266   1.917  15.440  0.1368  0.0711 -0.3578
  810TIP3    H123845   0.204   1.905  15.512 -2.5740 -0.2322 -2.5801
  810TIP3    H223846   0.219   1.886  15.363  2.4674  1.4660 -2.4809
  811TIP3   OH223847   1.784   2.349  10.568  0.9734 -0.2457  0.0301
  811TIP3    H123848   1.714   2.360  10.502  1.4844 -1.2663 -0.7144
  811TIP3    H223849   1.809   2.438  10.591  1.1030  0.1525 -1.5254
  812TIP3   OH223850   3.294   1.794  11.407 -0.7766  0.0121 -0.2013
  812TIP3    H123851   3.386   1.769  11.423 -0.9857  0.9595  3.4979
  812TIP3    H223852   3.299   1.859  11.338  1.5354  0.7570  0.5589
  813TIP3   OH223853   4.298   3.025  15.471  0.2116  0.5853 -0.2440
  813TIP3    H123854   4.275   2.941  15.511  0.4258  1.0524  0.8874
  813TIP3    H223855   4.377   3.007  15.420  0.9019  0.3221  0.8868
  814TIP3   OH223856   4.855   5.089  13.705  0.2156 -0.7888  0.2430
  814TIP3    H123857   4.771   5.043  13.702  0.3178 -0.9537 -0.2247
  814TIP3    H223858   4.833   5.178  13.733 -0.2980 -0.4350 -1.2072
  815TIP3   OH223859   3.383   3.304   1.343  0.2199 -0.2865 -0.0662
  815TIP3    H123860   3.372   3.398   1.330  1.4798 -0.2562 -1.1618
  815TIP3    H223861   3.314   3.279   1.405 -1.1393  1.0731 -0.9673
  816TIP3   OH223862   0.044   1.971   5.108 -0.2474 -0.3511  0.4159
  816TIP3    H123863   0.044   1.963   5.013 -2.2852 -1.0095  0.4083
  816TIP3    H223864  -0.037   2.018   5.128  0.6514  0.6886  1.7853
  817TIP3   OH223865   2.702   1.240   4.056  0.6322 -0.2944 -0.4937
  817TIP3    H123866   2.636   1.302   4.026 -0.9204 -1.0656  1.1506
  817TIP3    H223867   2.760   1.292   4.111 -0.0211 -0.0534 -0.0138
  818TIP3   OH223868   4.964   0.346   3.486  0.3153 -0.0438 -0.0881
  818TIP3    H123869   5.005   0.305   3.562  1.1295 -0.4465 -0.7333
  818TIP3    H223870   4.916   0.275   3.444 -0.6607  0.3173  0.3859
  819TIP3   OH223871   3.252   1.558  13.266  0.7030 -0.0686 -0.6489
  819TIP3    H123872   3.207   1.517  13.340  0.2738 -0.1802 -0.9677
  819TIP3    H223873   3.224   1.649  13.268 -0.3178 -0.3505 -1.4256
  820TIP3   OH223874   0.505   1.578  14.893 -0.1236 -0.3774  0.0896
  820TIP3    H123875   0.465   1.633  14.826 -0.6687  0.0120  0.7180
  820TIP3    H223876   0.453   1.595  14.972  1.4246  0.3709  1.0161
  821TIP3   OH223877   3.723   0.305   4.903  0.4923 -0.1033  0.0663
  821TIP3    H123878   3.690   0.395   4.907  2.5070  0.6867  0.1950
  821TIP3    H223879   3.706   0.270   4.991 -0.4846  0.0747 -0.0440
  822TIP3   OH223880   0.809   3.518   4.662  0.5023  0.1711  0.2500
  822TIP3    H123881   0.742   3.585   4.650  0.3099 -0.0505  0.0668
  822TIP3    H223882   0.788   3.477   4.746  0.8552  0.6031  0.5520
  823TIP3   OH223883   5.168   5.984  14.385  0.4257 -0.2948  0.0665
  823TIP3    H123884   5.258   5.954  14.397  0.3488 -1.2246 -1.3485
  823TIP3    H223885   5.132   5.923  14.320  0.1608  2.6372 -2.7991
  824TIP3   OH223886   0.891   1.511   4.441  0.2174  0.3501  0.0476
  824TIP3    H123887   0.833   1.581   4.411  0.3925  0.7557  0.6422
  824TIP3    H223888   0.944   1.551   4.509  0.0139 -0.4841  0.7170
  825TIP3   OH223889   3.243   5.073   2.613  0.4811 -0.0152  0.4241
  825TIP3    H123890   3.200   5.153   2.583  0.0547 -0.6455 -0.7013
  825TIP3    H223891   3.219   5.067   2.706 -1.8864 -0.3136 -0.1451
  826TIP3   OH223892   5.073   4.672  13.479 -0.0151  0.1580 -0.1199
  826TIP3    H123893   5.164   4.688  13.454 -0.1695  1.6628  0.2020
  826TIP3    H223894   5.022   4.730  13.423 -0.7884 -0.5775 -0.2085
  827TIP3   OH223895   3.818   3.929  14.904 -0.0654 -0.9895 -0.3584
  827TIP3    H123896   3.871   3.868  14.854  0.5216 -1.3233  0.6510
  827TIP3    H223897   3.877   3.964  14.971 -0.5924  0.1163 -0.4355
  828TIP3   OH223898   5.555   2.020  13.260 -0.2413 -0.0438  0.3977
  828TIP3    H123899   5.498   2.048  13.188  0.6012  0.7354  0.0133
  828TIP3    H223900   5.504   1.954  13.307 -1.3174  0.3865 -0.1379
  829TIP3   OH223901   4.742   2.993   3.509  0.5438  0.4863  0.1807
  829TIP3    H123902   4.783   2.993   3.423  2.0925  0.5078  0.8814
  829TIP3    H223903   4.815   2.983   3.571 -0.2841  2.5824  1.6094
  830TIP3   OH223904   3.415   2.841  14.697 -0.3714  0.3861 -0.6766
  830TIP3    H123905   3.351   2.895  14.744 -0.6620 -1.0852  0.7167
  830TIP3    H223906   3.493   2.897  14.693 -0.8876  1.2063  0.0429
  831TIP3   OH223907   2.740   5.109  12.746  0.0213 -0.6960  0.0407
  831TIP3    H123908   2.768   5.156  12.824  1.2096 -0.7041 -0.3647
  831TIP3    H223909   2.645   5.122  12.743  0.2668  1.4241  0.1012
  832TIP3   OH223910   0.598   4.948  16.630 -0.4310 -0.0469 -0.9021
  832TIP3    H123911   0.616   5.040  16.651  0.8200 -0.5644  0.4438
  832TIP3    H223912   0.510   4.933  16.665  0.0232  0.2047  0.4091
  833TIP3   OH223913   3.800   4.551   5.941 -0.5329  0.0242  0.0455
  833TIP3    H123914   3.763   4.463   5.939  1.0031 -0.6440 -0.6454
  833TIP3    H223915   3.746   4.602   5.881 -1.0166 -0.6215 -0.0660
  834TIP3   OH223916   1.624   1.429  11.692  0.1612 -0.5056  0.3489
  834TIP3    H123917   1.692   1.495  11.681  3.5918 -3.2333  2.9443
  834TIP3    H223918   1.633   1.372  11.616 -1.0381  0.4616 -0.5639
  835TIP3   OH223919   2.453   3.373   5.113 -0.1849  0.8282  0.7961
  835TIP3    H123920   2.409   3.291   5.093  1.3187 -0.0599  0.9891
  835TIP3    H223921   2.543   3.348   5.133  0.0482  2.4116  1.9080
  836TIP3   OH223922   1.393   1.333   1.134 -0.0915 -0.0420  0.2975
  836TIP3    H123923   1.467   1.344   1.193  1.3326 -0.7770 -1.2702
  836TIP3    H223924   1.368   1.422   1.110  2.9927  0.2700 -2.3054
  837TIP3   OH223925   1.325   2.114   9.975 -0.5977  0.2078 -0.3289
  837TIP3    H123926   1.328   2.058  10.053 -0.6437 -0.3346 -0.7067
  837TIP3    H223927   1.345   2.201  10.007  0.2257 -0.1487  0.1573
  838TIP3   OH223928   5.804   0.896  11.613 -0.2891 -0.1856  0.6025
  838TIP3    H123929   5.823   0.967  11.674  1.3832  0.6254 -0.7847
  838TIP3    H223930   5.875   0.899  11.549  0.0438 -3.3632  0.6754
  839TIP3   OH223931   3.041   4.632  14.657 -0.0072 -0.4398 -0.2681
  839TIP3    H123932   2.970   4.665  14.602 -0.2499 -1.7120 -0.7568
  839TIP3    H223933   3.010   4.645  14.747  0.2071  1.2555 -0.4045
  840TIP3   OH223934   5.588   1.763   5.270  0.2906 -0.1093 -0.1471
  840TIP3    H123935   5.565   1.684   5.319 -2.5408 -0.4134 -1.7154
  840TIP3    H223936   5.550   1.835   5.321  0.2705 -0.0787 -0.2051
  841TIP3   OH223937   4.277   1.800  15.167  0.3126  0.3516 -0.4399
  841TIP3    H123938   4.282   1.720  15.220 -0.3174  0.0701 -0.7900
  841TIP3    H223939   4.362   1.804  15.123  0.3650 -0.1048 -0.3885
  842TIP3   OH223940   4.012   6.058  13.992  0.0627  0.7367 -0.0999
  842TIP3    H123941   4.087   6.078  14.047  1.2529 -0.4423 -1.2147
  842TIP3    H223942   4.012   6.126  13.925 -0.1994  1.0485  0.2150
  843TIP3   OH223943   6.324   5.197  10.353 -0.5263 -0.5753 -0.0087
  843TIP3    H123944   6.262   5.249  10.303 -3.2196 -0.3264  3.2795
  843TIP3    H223945   6.300   5.106  10.333  0.0388 -0.5323 -0.9527
  844TIP3   OH223946   2.314   0.650   0.493 -0.1548  0.4921  0.0955
  844TIP3    H123947   2.237   0.646   0.437 -0.3604  0.5028  0.3762
  844TIP3    H223948   2.369   0.718   0.453 -0.1666  0.2967 -0.2571
  845TIP3   OH223949   0.095   0.187   5.585  0.0523 -0.3274  0.0360
  845TIP3    H123950   0.102   0.268   5.636  0.8029 -1.8435  2.5177
  845TIP3    H223951   0.001   0.178   5.568  0.0152  1.3580 -0.9033
  846TIP3   OH223952   0.659   6.123   5.421 -0.3228  0.1608  0.3697
  846TIP3    H123953   0.678   6.195   5.481 -0.2669  0.6911 -0.2663
  846TIP3    H223954   0.662   6.044   5.475 -0.4934  0.6469  1.1001
  847TIP3   OH223955   3.109   1.555  14.295 -0.2295 -0.3449 -0.0801
  847TIP3    H123956   3.101   1.463  14.321  0.3734 -0.8808 -1.6957
  847TIP3    H223957   3.190   1.558  14.244  0.7054  1.4425  1.3676
  848TIP3   OH223958   2.792   3.455   2.818  0.8249  0.4027  0.2794
  848TIP3    H123959   2.709   3.500   2.833  0.0327 -0.4843 -1.1600
  848TIP3    H223960   2.845   3.519   2.770 -0.0717  0.0617 -1.2262
  849TIP3   OH223961   0.685   4.498   5.994 -0.0902  0.5558  0.0614
  849TIP3    H123962   0.594   4.471   6.009  0.1927 -0.4765 -0.0447
  849TIP3    H223963   0.738   4.428   6.032  0.6636  0.7630 -0.5830
  850TIP3   OH223964   0.573   4.772  14.256 -0.4330  0.0760 -0.8060
  850TIP3    H123965   0.564   4.713  14.181  0.2244 -2.0404  0.6514
  850TIP3    H223966   0.483   4.790  14.282 -0.6671 -0.7384 -0.9979
  851TIP3   OH223967   5.561   6.243   0.408 -0.0023  0.3375  0.1117
  851TIP3    H123968   5.597   6.158   0.432 -3.0951 -0.7485  1.4726
  851TIP3    H223969   5.618   6.306   0.453  2.6526 -0.8582 -1.3240
  852TIP3   OH223970   5.264   2.628   1.428 -0.0811  0.2339  0.8027
  852TIP3    H123971   5.187   2.577   1.456  0.6541 -1.3952 -0.0054
  852TIP3    H223972   5.336   2.566   1.432  0.7430  1.0278 -0.9303
  853TIP3   OH223973   5.608   3.736  14.667  0.0826 -0.1739  0.2536
  853TIP3    H123974   5.580   3.826  14.680  0.9409  0.0860  0.3812
  853TIP3    H223975   5.585   3.717  14.576  1.6970  0.8807 -0.4311
  854TIP3   OH223976   0.904   1.373  10.412  0.1549  0.1615 -0.1976
  854TIP3    H123977   0.910   1.307  10.343  1.0695 -1.0055  0.9401
  854TIP3    H223978   0.955   1.336  10.485  0.5519  2.0518  0.5397
  855TIP3   OH223979   3.957   4.748  12.350  0.3628  0.3782  0.2547
  855TIP3    H123980   3.924   4.695  12.423 -0.1958 -1.2933 -1.1411
  855TIP3    H223981   3.886   4.809  12.331  0.1671  0.2450  0.5533
  856TIP3   OH223982   0.956   2.000  12.157  0.0843  0.5699  0.1888
  856TIP3    H123983   0.954   2.019  12.251 -0.7955 -0.2107  0.3458
  856TIP3    H223984   0.891   2.059  12.118 -1.4976 -0.9085  0.4630
  857TIP3   OH223985   6.195   4.488   5.156 -1.0119 -0.1945 -0.0779
  857TIP3    H123986   6.226   4.448   5.075 -1.1455 -0.7716  0.1484
  857TIP3    H223987   6.252   4.451   5.224 -0.1947  1.1021 -0.0238
  858TIP3   OH223988   2.567   2.167   5.407 -0.0244  0.2669  0.5768
  858TIP3    H123989   2.562   2.086   5.355  1.9436  0.6141 -0.2229
  858TIP3    H223990   2.629   2.146   5.477  1.1542  1.3043 -0.1211
  859TIP3   OH223991   1.960   1.275   4.104 -0.6134  0.1985  0.4625
  859TIP3    H123992   1.887   1.238   4.055 -0.2663 -0.6497  0.5582
  859TIP3    H223993   1.928   1.359   4.136 -0.8933  0.7047 -1.0767
  860TIP3   OH223994   1.036   1.229  13.274  0.0812 -0.3100 -0.4118
  860TIP3    H123995   1.002   1.243  13.363  1.0690 -2.2645  0.3219
  860TIP3    H223996   1.096   1.155  13.282  0.4700 -0.3170 -2.6670
  861TIP3   OH223997   3.226   1.028  15.673  0.1704 -0.0009 -0.0126
  861TIP3    H123998   3.221   0.960  15.740  0.0003 -0.9027 -0.9009
  861TIP3    H223999   3.217   1.110  15.720 -0.6897 -0.6409  0.9721
  862TIP3   OH224000   6.056   1.305   2.436  0.6934  0.7252 -0.8532
  862TIP3    H124001   6.098   1.376   2.388 -0.6848  2.1689 -0.0231
  862TIP3    H224002   5.964   1.331   2.441  0.2349 -0.9123 -0.1294
  863TIP3   OH224003   4.664   1.825   3.426  0.4534 -0.2464  0.3251
  863TIP3    H124004   4.639   1.917   3.426  0.6085 -0.1940  1.1174
  863TIP3    H224005   4.745   1.822   3.477  0.9848 -0.6921 -0.5199
  864TIP3   OH224006   5.181   6.307   0.124 -0.3590 -0.2459  0.3763
  864TIP3    H124007   5.245   6.338   0.060 -0.2524  0.1930  0.6901
  864TIP3    H224008   5.204   6.354   0.205 -0.7372 -0.4977  0.6301
  865TIP3   OH224009   5.785   0.653  12.465 -0.0188  0.6056  0.4986
  865TIP3    H124010   5.848   0.701  12.519  0.2599  0.2571  0.4832
  865TIP3    H224011   5.788   0.563  12.498 -0.4548  0.5693  0.4508
  866TIP3   OH224012   0.156   0.022  15.702 -0.1620  0.6670  0.0201
  866TIP3    H124013   0.166   0.092  15.637 -3.1959  0.1730 -1.1380
  866TIP3    H224014   0.106   0.063  15.773  0.8060  0.4751  0.8309
  867TIP3   OH224015   6.547   1.507   4.183  0.5795  0.7825  0.9251
  867TIP3    H124016   6.467   1.512   4.132  0.7116  0.8839  0.7256
  867TIP3    H224017   6.606   1.453   4.129 -0.4436 -2.1470  2.5178
  868TIP3   OH224018   6.062   3.411   4.924  0.1212  0.4750 -0.0301
  868TIP3    H124019   6.145   3.406   4.970 -0.4529  1.7142  1.1837
  868TIP3    H224020   6.052   3.324   4.883  0.3476 -0.9539  2.7174
  869TIP3   OH224021   0.172   0.957  14.432  0.1934  0.3419 -0.5022
  869TIP3    H124022   0.165   1.047  14.399  1.0463  0.8573  0.6446
  869TIP3    H224023   0.101   0.950  14.496  1.0317  0.7251  0.5032
  870TIP3   OH224024   0.446   1.472   5.278 -0.0773 -0.2746 -0.1812
  870TIP3    H124025   0.538   1.449   5.294 -0.0960 -1.4800 -1.5897
  870TIP3    H224026   0.447   1.521   5.196 -0.6854 -0.1866 -0.1404
  871TIP3   OH224027   1.451   1.107  11.022 -0.2357 -0.0421 -0.7462
  871TIP3    H124028   1.407   1.150  10.948  0.1954 -1.1659 -1.6897
  871TIP3    H224029   1.420   1.017  11.018 -1.4003  0.2102  1.4151
  872TIP3   OH224030   3.761   5.502   3.746 -0.3352  0.1800 -0.4204
  872TIP3    H124031   3.668   5.523   3.752  0.1105  1.9100  1.0368
  872TIP3    H224032   3.805   5.586   3.751  1.3782 -0.7284  0.7198
  873TIP3   OH224033   5.820   1.070  12.463  0.1796 -0.5233 -0.2175
  873TIP3    H124034   5.913   1.066  12.484  0.4222  0.6697 -0.9337
  873TIP3    H224035   5.808   1.157  12.424 -0.8991 -1.2631 -1.6513
  874TIP3   OH224036   0.764   1.630  14.149  0.1929 -0.1412 -0.2984
  874TIP3    H124037   0.760   1.575  14.071  1.6344  1.3809 -1.4942
  874TIP3    H224038   0.722   1.712  14.124 -1.5223 -0.4313  1.3258
  875TIP3   OH224039   4.688   1.210   1.941 -0.4370 -0.2233 -0.4995
  875TIP3    H124040   4.717   1.267   2.012  0.0232 -0.4541 -0.4990
  875TIP3    H224041   4.722   1.124   1.964 -0.8293 -0.4277 -0.6807
  876TIP3   OH224042   3.207   4.472  12.475  0.1967 -0.2618  0.8928
  876TIP3    H124043   3.295   4.471  12.511 -0.1440 -0.3333  1.7493
  876TIP3    H224044   3.203   4.550  12.421  0.2345  0.7339  2.2786
  877TIP3   OH224045   5.043   2.045   3.349  0.2330 -0.5840  0.1211
  877TIP3    H124046   4.951   2.036   3.323 -0.2218  2.1791  0.4409
  877TIP3    H224047   5.043   2.116   3.413  2.8050  0.6967 -1.1451
  878TIP3   OH224048   5.483   5.552   3.394 -0.3811  0.7951 -0.6584
  878TIP3    H124049   5.415   5.620   3.400 -1.6471 -0.3359 -1.5522
  878TIP3    H224050   5.453   5.483   3.453  0.0633  0.3333 -0.9613
  879TIP3   OH224051   5.041   3.090  16.145 -0.2631 -0.5190  0.4140
  879TIP3    H124052   4.952   3.087  16.110  1.0572  0.2753 -3.4779
  879TIP3    H224053   5.078   3.004  16.126  0.4339 -0.1432  0.0192
  880TIP3   OH224054   6.170   3.041   2.392 -0.3555  0.5138  0.1686
  880TIP3    H124055   6.231   2.969   2.372  0.5101  1.2753 -0.0431
  880TIP3    H224056   6.216   3.093   2.458  0.4232  2.5448 -1.8426
  881TIP3   OH224057   4.867   0.623   2.586  0.5471 -0.1273  0.2311
  881TIP3    H124058   4.959   0.651   2.589  0.2171  0.9516  0.4639
  881TIP3    H224059   4.860   0.560   2.658  0.4186  1.9887  2.1994
  882TIP3   OH224060   3.509   0.363  16.705 -0.3609 -0.3396 -0.2418
  882TIP3    H124061   3.473   0.282  16.667  0.9139 -1.4339  0.7780
  882TIP3    H224062   3.604   0.350  16.702 -0.1748  0.4424  1.3447
  883TIP3   OH224063   6.313   6.685  12.963  0.2349  0.5420 -0.6685
  883TIP3    H124064   6.224   6.693  12.997  0.5837  0.2000  0.3620
  883TIP3    H224065   6.307   6.615  12.898 -0.0594 -0.1565  0.0952
  884TIP3   OH224066   3.382   2.309   1.468 -0.0672  0.4350 -0.2178
  884TIP3    H124067   3.442   2.294   1.541 -0.2395 -1.6531 -0.4318
  884TIP3    H224068   3.436   2.347   1.399  0.3302  1.3984  0.6107
  885TIP3   OH224069   0.249   3.540   3.611  0.1416  0.4100  0.2555
  885TIP3    H124070   0.311   3.474   3.644  0.3663  1.0003  1.0568
  885TIP3    H224071   0.170   3.490   3.591 -0.0161  0.0003  1.7519
  886TIP3   OH224072   4.636   2.864   0.883 -0.1554 -0.2050  0.5220
  886TIP3    H124073   4.679   2.779   0.896 -0.3236 -0.4356 -0.4011
  886TIP3    H224074   4.603   2.887   0.970 -2.5148 -2.3815  0.3334
  887TIP3   OH224075   0.652   3.977  15.239 -0.1669 -0.0440  0.0530
  887TIP3    H124076   0.614   3.915  15.176  0.0349  0.8026 -0.9387
  887TIP3    H224077   0.721   3.927  15.283 -0.4386 -0.7131 -0.2552
  888TIP3   OH224078   3.611   4.053   2.203  0.1104  0.2816 -0.8327
  888TIP3    H124079   3.585   4.122   2.264  1.7732  0.8251 -0.6739
  888TIP3    H224080   3.651   3.986   2.258 -0.1006 -0.1047 -1.1480
  889TIP3   OH224081   3.201   5.146  14.261 -0.0515 -0.1428 -0.7524
  889TIP3    H124082   3.149   5.139  14.341  1.7644 -0.4645  0.4786
  889TIP3    H224083   3.183   5.234  14.228 -0.4122  0.2101  0.3361
  890TIP3   OH224084   6.764   1.769   0.517 -0.0661 -0.1164 -0.4534
  890TIP3    H124085   6.756   1.778   0.422  0.8820 -0.5481 -0.5937
  890TIP3    H224086   6.836   1.706   0.529 -1.4376 -1.6064  0.5165
  891TIP3   OH224087   6.336   6.775   1.087 -0.0482 -0.5686  0.3828
  891TIP3    H124088   6.422   6.787   1.046 -0.6499  2.8528 -0.1900
  891TIP3    H224089   6.296   6.703   1.038  2.2102 -1.8086  0.2427
  892TIP3   OH224090   5.415   3.408   2.419  0.5720  0.2127 -0.1310
  892TIP3    H124091   5.488   3.422   2.358  0.2410  1.2928 -0.3171
  892TIP3    H224092   5.346   3.467   2.387 -0.8332 -1.6070 -0.6607
  893TIP3   OH224093   4.654   3.393   1.104 -0.1401  0.2618 -0.1152
  893TIP3    H124094   4.745   3.398   1.132 -0.2385  1.3333  0.0537
  893TIP3    H224095   4.603   3.410   1.183 -0.4550  1.2420 -0.5226
  894TIP3   OH224096   5.997   4.930  17.036  0.0680 -0.2286 -0.0477
  894TIP3    H124097   5.989   4.897  17.125  1.0519 -1.3043 -0.3220
  894TIP3    H224098   6.077   4.982  17.037 -1.0072  1.4938  0.1651
  895TIP3   OH224099   0.272   5.271  11.833  0.4098  0.6163 -0.3583
  895TIP3    H124100   0.278   5.347  11.892  0.4122  0.0415  0.4076
  895TIP3    H224101   0.291   5.196  11.890 -1.0808 -0.0981 -0.7592
  896TIP3   OH224102   1.967   6.404  12.732 -0.1526 -0.1249 -0.0596
  896TIP3    H124103   1.956   6.396  12.637 -0.3872 -0.5003 -0.0008
  896TIP3    H224104   1.890   6.361  12.769  0.0101 -0.1078  0.3019
  897TIP3   OH224105   2.492   5.840   1.946  0.3134  0.2520  0.6159
  897TIP3    H124106   2.572   5.868   1.901  0.1659 -0.9930 -0.4628
  897TIP3    H224107   2.446   5.922   1.967  0.0763  0.8914 -2.0940
  898TIP3   OH224108   3.507   2.055  11.730  0.0059  0.2394 -0.2380
  898TIP3    H124109   3.449   1.979  11.741 -0.1778  0.2609 -0.9751
  898TIP3    H224110   3.507   2.098  11.816  1.3953 -1.4805  0.6739
  899TIP3   OH224111   4.029   1.883   1.640 -0.2769  0.3136 -0.2811
  899TIP3    H124112   3.937   1.893   1.616 -0.4011 -0.2675 -0.0704
  899TIP3    H224113   4.029   1.880   1.736 -0.0099  0.5940 -0.2714
  900TIP3   OH224114   5.600   3.512  15.719  0.0723 -0.6184 -0.1374
  900TIP3    H124115   5.552   3.588  15.750 -1.1484 -0.8950 -1.2817
  900TIP3    H224116   5.536   3.461  15.669  0.9250 -2.2511  0.3444
  901TIP3   OH224117   4.231   6.528  16.411  0.4963 -0.2399  0.3518
  901TIP3    H124118   4.281   6.498  16.336 -1.9396 -0.6736 -1.2141
  901TIP3    H224119   4.149   6.562  16.374 -0.1845  0.9403  2.6949
  902TIP3   OH224120   6.153   3.805   3.236 -0.0527  0.7589  0.1290
  902TIP3    H124121   6.088   3.766   3.295  1.9084 -0.0777  1.8736
  902TIP3    H224122   6.188   3.880   3.284  2.8856 -0.9982  1.0126
  903TIP3   OH224123   0.601   2.440  11.619  0.6571 -0.5462  0.4103
  903TIP3    H124124   0.510   2.422  11.596  0.0701  2.8674 -0.4891
  903TIP3    H224125   0.650   2.426  11.538  0.3773  0.7074  0.0084
  904TIP3   OH224126   0.339   0.428  14.476 -0.5331 -0.5480 -0.6387
  904TIP3    H124127   0.299   0.515  14.483  2.3981  0.8034  1.3513
  904TIP3    H224128   0.299   0.379  14.548 -1.7965 -0.7423 -1.4324
  905TIP3   OH224129   4.353   2.323   4.372 -0.1144  0.1270  0.0162
  905TIP3    H124130   4.272   2.325   4.322  0.1064  0.6806 -0.3310
  905TIP3    H224131   4.422   2.313   4.306  0.1260  0.1191  0.2661
  906TIP3   OH224132   5.271   2.682  14.697  0.0220  0.4262  0.0735
  906TIP3    H124133   5.265   2.706  14.789 -1.9293 -0.6647  0.2817
  906TIP3    H224134   5.243   2.761  14.650  1.8912  1.2847  0.3350
  907TIP3   OH224135   4.013   5.338  11.868  0.2957 -0.1370  0.3965
  907TIP3    H124136   4.048   5.426  11.882  2.4824 -0.7408 -0.7922
  907TIP3    H224137   4.049   5.286  11.941 -0.8623 -0.1184  1.0079
  908TIP3   OH224138   0.107   6.807   1.052 -0.0263 -0.3566 -0.3232
  908TIP3    H124139   0.188   6.805   1.001  0.4728 -0.4020  0.4579
  908TIP3    H224140   0.099   6.719   1.089 -0.9887 -0.6737 -1.2237
  909TIP3   OH224141   3.165   0.844  11.004  0.1006 -0.1897  0.3062
  909TIP3    H124142   3.094   0.885  10.955  0.2240  1.3168  1.3424
  909TIP3    H224143   3.239   0.844  10.944 -0.7060 -1.7801 -0.7894
  910TIP3   OH224144   5.879   2.445   5.069 -0.8230  0.7670 -0.1450
  910TIP3    H124145   5.851   2.516   5.127 -0.1095  0.8731  0.0800
  910TIP3    H224146   5.934   2.389   5.124 -1.0264  0.2695 -0.4374
  911TIP3   OH224147   2.194   4.948  14.011  0.0464 -0.4210 -0.2032
  911TIP3    H124148   2.100   4.935  14.026  0.2110 -0.9330  0.4334
  911TIP3    H224149   2.198   5.021  13.949 -0.7784 -0.5659 -0.4515
  912TIP3   OH224150   1.102   2.322  11.622  0.4858 -0.1503 -0.4656
  912TIP3    H124151   1.092   2.240  11.574 -1.6786 -0.1767 -0.0880
  912TIP3    H224152   1.084   2.390  11.557 -1.3801 -0.1525 -0.0195
  913TIP3   OH224153   1.625   5.100   4.268 -0.2474 -0.1785 -0.1597
  913TIP3    H124154   1.641   5.161   4.196 -0.6261 -0.3010 -0.3494
  913TIP3    H224155   1.619   5.155   4.345 -0.8989  0.0553 -0.3765
  914TIP3   OH224156   6.505   6.811   6.869  0.1725  0.1371  0.0053
  914TIP3    H124157   6.470   6.755   6.800  0.8820 -0.2037 -0.0853
  914TIP3    H224158   6.477   6.900   6.845  1.7118  0.2397 -1.5721
  915TIP3   OH224159   6.524   3.255  12.525  0.0953  0.1436  0.1651
  915TIP3    H124160   6.585   3.229  12.456 -0.8124  1.2496 -1.1158
  915TIP3    H224161   6.508   3.348  12.508  1.2803  0.9985  3.0192
  916TIP3   OH224162   6.457   3.679   6.631 -0.0542 -0.1003  0.3578
  916TIP3    H124163   6.550   3.689   6.647  0.2501 -0.9120 -0.7617
  916TIP3    H224164   6.450   3.660   6.537 -1.4301  0.9732  0.1948
  917TIP3   OH224165   2.061   1.246   2.124  0.1699 -0.4735 -0.7632
  917TIP3    H124166   2.044   1.338   2.101  0.8948 -0.1525 -0.0390
  917TIP3    H224167   1.980   1.218   2.167  0.6099  0.4146  0.7392
  918TIP3   OH224168   3.620   3.113   1.826  0.3219 -0.4896  0.2289
  918TIP3    H124169   3.555   3.125   1.756 -2.2387  1.5131  2.6606
  918TIP3    H224170   3.699   3.155   1.792 -1.3887  2.1842 -0.8523
  919TIP3   OH224171   4.854   1.353  13.646  0.0800 -0.0545  0.2027
  919TIP3    H124172   4.768   1.392  13.631  1.3330  2.8478 -0.0135
  919TIP3    H224173   4.870   1.301  13.567 -0.3397  1.6640 -1.0846
  920TIP3   OH224174   5.195   4.278   0.476 -0.6114  0.0533 -0.2606
  920TIP3    H124175   5.106   4.241   0.468 -0.4550 -1.1697  2.5516
  920TIP3    H224176   5.250   4.218   0.426 -1.0929 -0.3643 -0.2990
  921TIP3   OH224177   0.455   4.803  14.823 -0.0172  0.0307 -0.3393
  921TIP3    H124178   0.423   4.779  14.911 -0.9116  0.9638 -0.3819
  921TIP3    H224179   0.427   4.894  14.812 -1.1720 -0.4850 -2.1445
  922TIP3   OH224180   5.532   1.962   4.226  0.5949 -0.0401  0.1493
  922TIP3    H124181   5.491   1.880   4.200 -0.2867  0.2110  0.6965
  922TIP3    H224182   5.525   1.963   4.321 -0.3440  1.1263  0.0946
  923TIP3   OH224183   6.321   5.612   4.272  0.2218 -0.4655  0.3492
  923TIP3    H124184   6.397   5.659   4.305  0.4298 -0.4825 -0.0943
  923TIP3    H224185   6.343   5.592   4.181 -0.1791 -0.7538  0.3124
  924TIP3   OH224186   4.306   2.025  14.582 -0.3842  0.0389 -0.6800
  924TIP3    H124187   4.281   2.030  14.675 -0.3043  0.8882 -0.7012
  924TIP3    H224188   4.299   1.932  14.561  0.5324 -0.3016  0.4340
  925TIP3   OH224189   5.262   1.266   5.134 -0.5233 -0.4171 -0.0338
  925TIP3    H124190   5.236   1.199   5.197 -0.8193 -0.6110 -0.3580
  925TIP3    H224191   5.348   1.239   5.104  0.6134  0.8187  1.8768
  926TIP3   OH224192   4.142   4.600   5.803 -0.0022  0.1283  0.2648
  926TIP3    H124193   4.167   4.594   5.895  0.1894 -2.5336  0.1102
  926TIP3    H224194   4.059   4.648   5.805  1.5542  3.0418  1.4144
  927TIP3   OH224195   0.094   0.982   0.377  0.7050  0.2919  0.3109
  927TIP3    H124196   0.156   1.025   0.318  0.3892 -1.3926 -1.3369
  927TIP3    H224197   0.023   1.046   0.388  0.9294  0.7757 -0.8986
  928TIP3   OH224198   4.763   6.382   5.816  0.4556  0.4839 -0.2887
  928TIP3    H124199   4.782   6.412   5.905  0.6630 -2.2865  0.7038
  928TIP3    H224200   4.671   6.355   5.819  1.0540 -1.7443 -0.1697
  929TIP3   OH224201   4.803   0.421   3.845  0.0857  0.1747 -0.0629
  929TIP3    H124202   4.741   0.481   3.886  0.6732  1.5014 -1.0515
  929TIP3    H224203   4.751   0.343   3.827 -0.9702  0.7657  0.3244
  930TIP3   OH224204   0.626   5.620  13.161  0.5484 -0.1779  0.3787
  930TIP3    H124205   0.590   5.596  13.247  0.0084  0.9960  0.4959
  930TIP3    H224206   0.558   5.672  13.120  2.2382  2.5289  0.7855
  931TIP3   OH224207   6.517   5.908   5.988  0.1349 -0.1758  0.2276
  931TIP3    H124208   6.561   5.992   5.971  1.0262 -0.5763  0.4696
  931TIP3    H224209   6.441   5.932   6.041 -0.2598  0.5936 -0.6511
  932TIP3   OH224210   4.547   4.054   2.696 -0.3098 -0.1294  0.5185
  932TIP3    H124211   4.574   4.057   2.788 -2.7948  2.0183  1.3049
  932TIP3    H224212   4.471   3.996   2.696 -0.7656  0.4488 -0.0033
  933TIP3   OH224213   0.869   1.684   0.886  0.4102 -0.4838 -0.3072
  933TIP3    H124214   0.805   1.672   0.956  1.7036 -2.4173  0.6641
  933TIP3    H224215   0.847   1.768   0.846 -0.1178  0.9732  2.7431
  934TIP3   OH224216   1.818   4.755   5.338  0.7507  0.2795 -0.0296
  934TIP3    H124217   1.828   4.736   5.245  0.3497  1.1372 -0.2587
  934TIP3    H224218   1.790   4.672   5.377  0.1742  0.0968 -0.8081
  935TIP3   OH224219   6.091   2.484   5.470  0.1228 -0.4874  0.6393
  935TIP3    H124220   6.031   2.556   5.487 -1.1509 -0.9106 -1.6302
  935TIP3    H224221   6.078   2.424   5.544 -0.8423  0.3329  1.1604
  936TIP3   OH224222   2.680   1.624   3.769 -0.3579 -0.0899  0.4325
  936TIP3    H124223   2.705   1.574   3.692  1.6273  1.3770  0.0431
  936TIP3    H224224   2.587   1.642   3.757 -0.3801 -0.9950 -0.9487
  937TIP3   OH224225   2.459   6.569  11.687  0.7059 -0.4098 -0.4306
  937TIP3    H124226   2.508   6.528  11.758  0.5615  2.9454  1.8079
  937TIP3    H224227   2.370   6.538  11.698  0.5387  0.6243  1.3786
  938TIP3   OH224228   6.364   5.414   0.416  0.0675  0.3463 -0.1957
  938TIP3    H124229   6.315   5.334   0.432  0.6137 -0.1323 -0.8631
  938TIP3    H224230   6.345   5.437   0.326  0.1160  0.8258 -0.0876
  939TIP3   OH224231   2.074   4.030   0.080  0.4169  0.1113  0.2604
  939TIP3    H124232   2.131   4.099   0.115 -0.4558  0.5299  0.9045
  939TIP3    H224233   2.055   3.974   0.156 -2.3935  1.6468  0.8341
  940TIP3   OH224234   6.729   4.881   2.017  0.1018 -0.1099 -0.0551
  940TIP3    H124235   6.802   4.934   2.049 -0.4406  1.1246 -0.7510
  940TIP3    H224236   6.724   4.807   2.076  1.1293  0.4457  0.7471
  941TIP3   OH224237   5.630   0.074   4.024 -0.3069  0.2219 -0.1310
  941TIP3    H124238   5.545   0.036   4.002  0.6785 -2.5332  0.4275
  941TIP3    H224239   5.694   0.009   3.995  1.5871  1.6978  0.5013
  942TIP3   OH224240   5.041   4.462  15.998  0.2896  0.3655  0.0953
  942TIP3    H124241   5.087   4.435  16.077 -0.0071 -0.7510 -0.0938
  942TIP3    H224242   5.029   4.557  16.008  1.5990  0.4949  0.6753
  943TIP3   OH224243   3.068   5.370  10.962  0.1724  0.4097 -0.2809
  943TIP3    H124244   3.118   5.293  10.986 -0.0484 -0.2373 -1.7799
  943TIP3    H224245   3.127   5.444  10.979  0.0480  0.0362  2.0545
  944TIP3   OH224246   1.332   5.092   3.132 -0.6891 -0.2100 -0.1366
  944TIP3    H124247   1.331   5.052   3.219  0.2927 -1.4528 -0.6669
  944TIP3    H224248   1.350   5.184   3.148 -1.0378 -0.3255  1.0034
  945TIP3   OH224249   5.615   0.007  15.692 -0.0866  0.6100 -0.0681
  945TIP3    H124250   5.524  -0.017  15.672  0.1448 -0.0967 -0.3073
  945TIP3    H224251   5.613   0.036  15.783 -0.3786 -0.3845  0.2542
  946TIP3   OH224252   1.395   5.764   3.676  0.7117 -0.4145  0.0040
  946TIP3    H124253   1.367   5.733   3.762  0.9557 -0.3548  0.1078
  946TIP3    H224254   1.440   5.847   3.694  0.1387 -0.0394 -0.2611
  947TIP3   OH224255   0.202   6.046  16.790  0.0283  0.1791  0.2437
  947TIP3    H124256   0.125   5.992  16.808  0.0374 -0.3633 -1.1679
  947TIP3    H224257   0.264   6.023  16.860 -0.6491 -0.2632  0.7133
  948TIP3   OH224258   0.140   6.230   5.711  0.1144 -0.6615  0.5414
  948TIP3    H124259   0.166   6.210   5.801  1.4888 -1.8688 -0.0832
  948TIP3    H224260   0.214   6.201   5.657 -0.0504  1.3555 -0.8953
  949TIP3   OH224261   3.917   1.046   5.166  0.1179 -0.5504 -0.5381
  949TIP3    H124262   3.987   1.055   5.102  0.2979 -1.7985 -0.5407
  949TIP3    H224263   3.950   0.982   5.229 -1.2302 -1.5958 -0.8560
  950TIP3   OH224264   6.213   2.268   5.688  0.4049  0.0802  0.0463
  950TIP3    H124265   6.242   2.183   5.654 -0.3052  0.4737 -1.6187
  950TIP3    H224266   6.257   2.332   5.632 -0.3776  0.7785  0.2200
  951TIP3   OH224267   5.170   1.267  13.637 -0.0446  0.0179 -0.4096
  951TIP3    H124268   5.157   1.209  13.712  0.5660 -0.6568 -0.8081
  951TIP3    H224269   5.103   1.238  13.573  0.9185 -0.9610 -1.0091
  952TIP3   OH224270   6.494   3.216   4.050  0.2610  0.1217 -0.0394
  952TIP3    H124271   6.565   3.168   4.093  0.1599 -0.5907 -0.6549
  952TIP3    H224272   6.462   3.275   4.118  0.4870 -0.5759  0.6980
  953TIP3   OH224273   4.342   1.291  16.782 -0.1136  0.4044  0.2387
  953TIP3    H124274   4.431   1.262  16.762 -0.6766 -1.9043  0.8715
  953TIP3    H224275   4.304   1.220  16.833 -2.1772  1.5626  0.4189
  954TIP3   OH224276   3.817   3.177  13.350 -0.1220  0.0931 -0.1276
  954TIP3    H124277   3.816   3.090  13.390  1.1999  1.0048  2.0767
  954TIP3    H224278   3.742   3.222  13.388  1.0984  0.9427  1.3956
  955TIP3   OH224279   1.806   3.206  10.747  0.1124  0.0729  0.5793
  955TIP3    H124280   1.737   3.272  10.761  0.5595  0.1438  2.8804
  955TIP3    H224281   1.765   3.124  10.775  0.4262 -0.1631  0.3364
  956TIP3   OH224282   5.858   3.389  14.676  0.1915 -0.0855  0.1523
  956TIP3    H124283   5.776   3.394  14.626  0.6170 -0.3577 -0.5859
  956TIP3    H224284   5.837   3.432  14.759 -0.7141 -0.1930 -0.0060
  957TIP3   OH224285   0.095   3.008   5.324 -0.1447  0.3499 -0.3466
  957TIP3    H124286   0.125   3.089   5.282  2.0913  0.5935  1.4903
  957TIP3    H224287   0.092   3.029   5.417 -1.3672 -1.1807 -0.0021
  958TIP3   OH224288   1.237   2.727   4.041  0.7201 -0.5602  0.0171
  958TIP3    H124289   1.306   2.768   3.989  3.2028 -3.7139  0.5105
  958TIP3    H224290   1.281   2.657   4.088 -2.2220 -0.5162  3.2140
  959TIP3   OH224291   4.742   3.284   5.844 -0.3048  0.3869 -0.7944
  959TIP3    H124292   4.776   3.294   5.755  0.1318  0.4098 -0.6294
  959TIP3    H224293   4.711   3.193   5.847  3.0353 -0.8951  0.1081
  960TIP3   OH224294   1.833   6.777  12.159  0.4503 -0.4504  0.0601
  960TIP3    H124295   1.794   6.843  12.101  0.5392 -3.0857 -3.3000
  960TIP3    H224296   1.787   6.789  12.242 -0.4689  2.8945 -0.7543
  961TIP3   OH224297   5.891   1.477   3.193  0.3151 -1.1516  0.1583
  961TIP3    H124298   5.960   1.526   3.238 -0.9468  0.4403  0.4694
  961TIP3    H224299   5.838   1.439   3.264 -0.3663 -0.5182  0.0109
  962TIP3   OH224300   3.890   5.012   1.615 -0.5318  0.4788  0.2182
  962TIP3    H124301   3.806   5.001   1.571 -1.0264  1.0127  1.0033
  962TIP3    H224302   3.951   4.959   1.564 -1.5391 -0.6980  0.2062
  963TIP3   OH224303   6.156   1.974  10.749 -0.2152  0.1609  0.0821
  963TIP3    H124304   6.224   2.015  10.696  0.3014  0.4753  0.9722
  963TIP3    H224305   6.087   1.951  10.686  0.5390  0.1862 -0.7744
  964TIP3   OH224306   3.861   1.980  11.379 -0.0521 -0.3237 -0.1655
  964TIP3    H124307   3.787   2.016  11.329 -1.0722 -2.6557 -0.4812
  964TIP3    H224308   3.820   1.933  11.452  1.2110 -0.4439  0.4907
  965TIP3   OH224309   4.599   4.060  15.283  0.0107 -0.1754 -0.3005
  965TIP3    H124310   4.692   4.074  15.300  0.0984 -1.2721  0.1867
  965TIP3    H224311   4.560   4.052  15.370 -0.9794  2.6860 -0.3518
  966TIP3   OH224312   5.600   6.638  13.074  0.1891  0.4916  0.0676
  966TIP3    H124313   5.545   6.705  13.116  0.2885  0.5883  0.0454
  966TIP3    H224314   5.572   6.556  13.113  3.0990  0.8761  3.5353
  967TIP3   OH224315   4.439   1.514  12.969 -0.0995  0.0911  0.2706
  967TIP3    H124316   4.379   1.455  12.923  0.8960 -0.1163 -0.8121
  967TIP3    H224317   4.478   1.459  13.037  0.6311 -0.4610 -0.5659
  968TIP3   OH224318   2.333   6.040  15.158  0.0226  0.3549 -0.3765
  968TIP3    H124319   2.333   5.945  15.169 -0.2333  0.3351 -0.5347
  968TIP3    H224320   2.241   6.062  15.143  0.0392  0.6668 -0.0256
  969TIP3   OH224321   1.451   1.708   4.612 -0.1025 -0.9269 -0.3824
  969TIP3    H124322   1.497   1.787   4.584  1.0393 -1.1641  0.7361
  969TIP3    H224323   1.446   1.654   4.533 -0.9196  0.2459 -1.1646
  970TIP3   OH224324   0.718   5.963  16.682  0.6056 -0.0681  0.0915
  970TIP3    H124325   0.766   5.880  16.679  1.5400  0.4811 -0.5291
  970TIP3    H224326   0.674   5.969  16.597  1.6123  0.6843 -0.3892
  971TIP3   OH224327   1.940   4.229   3.912 -0.3346 -0.4398  0.0562
  971TIP3    H124328   1.975   4.154   3.959 -0.8765 -1.0760 -0.5352
  971TIP3    H224329   1.849   4.207   3.894 -0.1150 -0.2988 -1.4044
  972TIP3   OH224330   6.018   5.729   2.920  0.3838  0.3986 -0.5546
  972TIP3    H124331   5.926   5.711   2.901  0.6128  0.4734 -1.8531
  972TIP3    H224332   6.059   5.643   2.926 -0.0574  0.2757  1.8608
  973TIP3   OH224333   5.823   0.458  14.239 -0.0657  0.0197 -0.0404
  973TIP3    H124334   5.903   0.495  14.202  0.6847  0.4390  1.9020
  973TIP3    H224335   5.782   0.530  14.286 -1.2763 -0.3613 -0.4621
  974TIP3   OH224336   2.753   4.958  13.196 -0.4111 -0.3714 -0.2076
  974TIP3    H124337   2.724   4.870  13.173  1.4397 -1.6267  1.8590
  974TIP3    H224338   2.746   4.961  13.292  0.1926  1.5052 -0.1790
  975TIP3   OH224339   6.111   0.475   3.891  0.3500  0.1759  0.1643
  975TIP3    H124340   6.148   0.544   3.946 -0.0290  1.2550 -0.8835
  975TIP3    H224341   6.121   0.507   3.802 -1.8172 -0.1006 -0.2389
  976TIP3   OH224342   2.197   4.718  11.929  0.4494 -0.2730 -0.1434
  976TIP3    H124343   2.143   4.788  11.964  1.1442 -0.3805  1.1816
  976TIP3    H224344   2.262   4.701  11.997  1.9604 -0.3646 -1.5467
  977TIP3   OH224345   2.747   2.290   0.500  0.6507  0.3777  0.4512
  977TIP3    H124346   2.661   2.253   0.483  0.8917 -0.7695  1.6188
  977TIP3    H224347   2.793   2.223   0.550  2.2623  0.9332 -0.2169
  978TIP3   OH224348   6.231   4.862   5.175  0.3143  0.7600  0.3389
  978TIP3    H124349   6.164   4.803   5.141  1.4344  0.6313 -1.8494
  978TIP3    H224350   6.287   4.806   5.228  0.3237  0.2315 -0.2138
  979TIP3   OH224351   1.585   5.160  16.658 -0.1699  0.2341 -0.6260
  979TIP3    H124352   1.591   5.173  16.563 -1.2095  0.1066 -0.7189
  979TIP3    H224353   1.675   5.170  16.689  0.5748 -1.7408 -1.8806
  980TIP3   OH224354   0.480   0.825   3.981  0.4591 -0.1876  0.1155
  980TIP3    H124355   0.508   0.747   4.028  3.0849  1.3119  1.2307
  980TIP3    H224356   0.433   0.877   4.047  0.9708  0.3095  0.0911
  981TIP3   OH224357   2.310   2.584  11.110  0.0880 -0.1019  0.1943
  981TIP3    H124358   2.234   2.640  11.128 -0.0659 -0.6497  1.3442
  981TIP3    H224359   2.385   2.641  11.126 -0.0649  0.3600 -0.6611
  982TIP3   OH224360   2.867   2.847   6.207 -0.1586 -0.7398 -0.2124
  982TIP3    H124361   2.941   2.825   6.264 -0.5640  0.8457  1.0031
  982TIP3    H224362   2.897   2.826   6.119  1.2976 -1.2390  0.3700
  983TIP3   OH224363   3.316   5.370  11.201  0.4238  0.2245 -0.1941
  983TIP3    H124364   3.386   5.396  11.141  0.6041  1.7176  0.6145
  983TIP3    H224365   3.281   5.289  11.163  2.1802 -0.2405 -0.9379
  984TIP3   OH224366   5.818   5.266  12.627 -0.0217 -0.3410 -0.5933
  984TIP3    H124367   5.735   5.236  12.591 -0.2866  0.3465 -0.5821
  984TIP3    H224368   5.793   5.323  12.699  0.4402  0.2369 -0.8793
  985TIP3   OH224369   3.060   3.331   1.113  0.1548  0.6193  0.4531
  985TIP3    H124370   3.053   3.425   1.129 -0.0601  0.7727 -0.4769
  985TIP3    H224371   3.055   3.323   1.017  0.6572 -0.2950  0.4991
  986TIP3   OH224372   5.665   5.929  11.365  0.3573 -0.1261  0.6679
  986TIP3    H124373   5.610   5.914  11.442  0.4588  0.7343  0.9142
  986TIP3    H224374   5.639   5.861  11.303 -0.5670 -0.0907  1.0113
  987TIP3   OH224375   4.774   4.545   0.486  0.4076 -0.2009 -0.1557
  987TIP3    H124376   4.761   4.638   0.465 -1.9496 -0.1192  1.2878
  987TIP3    H224377   4.846   4.544   0.549  0.6938  0.5812 -0.4525
  988TIP3   OH224378   1.843   4.306   3.053 -0.5313 -0.2775 -0.2542
  988TIP3    H124379   1.776   4.322   3.119  0.0568  0.3920  0.1949
  988TIP3    H224380   1.925   4.326   3.097 -0.0465 -0.8817 -0.8636
  989TIP3   OH224381   0.564   6.348  12.556  0.5220 -0.4694  0.0165
  989TIP3    H124382   0.471   6.361  12.541  0.6636  2.4411  0.9443
  989TIP3    H224383   0.606   6.422  12.513  2.3619 -1.3346  0.2178
  990TIP3   OH224384   4.106   1.222  16.592 -0.3967  0.4278  0.3920
  990TIP3    H124385   4.087   1.278  16.517 -2.4433 -0.4400  0.2067
  990TIP3    H224386   4.173   1.161  16.560  0.5167  1.5790  0.0495
  991TIP3   OH224387   1.609   3.720  15.504 -0.3817  0.1651 -0.2703
  991TIP3    H124388   1.690   3.731  15.554 -0.3180 -0.1266 -0.3061
  991TIP3    H224389   1.636   3.732  15.413  0.3196 -3.1701 -0.6415
  992TIP3   OH224390   1.160   6.782  16.806  0.2098  0.0520  0.7151
  992TIP3    H124391   1.203   6.717  16.750 -0.5722 -0.8692  1.1771
  992TIP3    H224392   1.078   6.741  16.833  0.5733  0.4658  2.5527
  993TIP3   OH224393   2.693   5.617  15.542 -0.5050 -0.1310  0.1403
  993TIP3    H124394   2.699   5.606  15.637 -0.6623  0.4272  0.2175
  993TIP3    H224395   2.600   5.630  15.525 -0.2563  2.4180  0.2345
  994TIP3   OH224396   1.463   6.103  16.695  0.3213  0.0276 -0.4594
  994TIP3    H124397   1.513   6.140  16.622 -0.3910 -1.3070 -1.6825
  994TIP3    H224398   1.372   6.109  16.666  0.0173 -0.4148  0.3907
  995TIP3   OH224399   4.438   2.465   2.659  0.1007  0.1020  0.3374
  995TIP3    H124400   4.366   2.460   2.722 -0.2708  0.1383 -0.0817
  995TIP3    H224401   4.416   2.400   2.592  1.0910 -0.7890  0.8390
  996TIP3   OH224402   0.369   5.423  13.116 -0.4070 -0.2123 -0.6014
  996TIP3    H124403   0.448   5.371  13.131 -0.3485  0.2237  0.6689
  996TIP3    H224404   0.326   5.426  13.201 -1.7341 -0.3257 -1.2498
  997TIP3   OH224405   5.702   6.004  10.995  0.7408 -0.7261 -0.0554
  997TIP3    H124406   5.660   5.920  10.978  1.2461 -1.0855  0.4478
  997TIP3    H224407   5.709   6.045  10.908  0.9604 -1.4274 -0.3712
  998TIP3   OH224408   0.881   0.300  16.417  0.3277  0.1933 -0.0498
  998TIP3    H124409   0.895   0.344  16.334 -0.7749  4.2285  1.6470
  998TIP3    H224410   0.954   0.328  16.472 -0.1294 -0.5901  1.0091
  999TIP3   OH224411   6.793   6.034   1.471 -0.2260 -0.1276  0.4625
  999TIP3    H124412   6.830   6.092   1.537 -0.6091 -1.1119  1.5651
  999TIP3    H224413   6.765   5.957   1.519 -2.2117 -0.1171 -0.5723
 1000TIP3   OH224414   5.466   5.088  12.981  0.1534  0.4358  0.3054
 1000TIP3    H124415   5.389   5.043  13.016 -0.3592  1.7556  0.9475
 1000TIP3    H224416   5.487   5.041  12.901 -2.1751  0.8772 -0.6518
 1001TIP3   OH224417   0.897   0.616  16.897 -0.5681  0.1398 -0.2796
 1001TIP3    H124418   0.906   0.527  16.861 -1.1439 -1.1608  2.4950
 1001TIP3    H224419   0.802   0.632  16.897 -0.4292  1.0914 -1.4033
 1002TIP3   OH224420   2.394   3.480  15.634  0.5294  0.2222  0.2023
 1002TIP3    H124421   2.313   3.509  15.675 -0.4248 -0.6746 -1.0098
 1002TIP3    H224422   2.422   3.556  15.581  0.6834  0.6488  0.8786
 1003TIP3   OH224423   5.683   0.542   0.170  0.2426  0.0716 -0.0622
 1003TIP3    H124424   5.626   0.610   0.207  0.8652  0.2530  0.5856
 1003TIP3    H224425   5.765   0.588   0.153  0.5472 -0.4348  0.0371
 1004TIP3   OH224426   2.363   3.857  16.033 -0.1875 -0.3797 -0.7621
 1004TIP3    H124427   2.426   3.888  16.099  2.0690 -0.6461 -2.6738
 1004TIP3    H224428   2.353   3.931  15.973 -0.5254 -0.8525 -1.2929
 1005TIP3   OH224429   2.691   0.390   3.705 -0.1064 -0.0628  0.4442
 1005TIP3    H124430   2.701   0.405   3.611  0.3439  0.1274  0.5211
 1005TIP3    H224431   2.597   0.376   3.717 -0.2143  0.2694  0.0191
 1006TIP3   OH224432   1.222   5.187   3.956 -0.4324  0.3011  0.0963
 1006TIP3    H124433   1.279   5.215   3.884  0.2484  0.1096  0.5609
 1006TIP3    H224434   1.277   5.191   4.034 -1.1373  0.4060  0.6004
 1007TIP3   OH224435   4.847   6.448  16.860 -0.2046  0.9395  0.2333
 1007TIP3    H124436   4.842   6.483  16.771  1.6082  2.1157  0.5486
 1007TIP3    H224437   4.757   6.451  16.892 -1.3320 -1.5628 -2.2528
 1008TIP3   OH224438   4.500   5.179  14.449 -0.7507  0.6801  0.0406
 1008TIP3    H124439   4.592   5.153  14.438 -0.6084  0.7875  0.8915
 1008TIP3    H224440   4.496   5.266  14.411 -0.3787  0.8744  0.4336
 1009TIP3   OH224441   5.065   2.387  14.086 -0.1887 -0.0419  0.4230
 1009TIP3    H124442   5.088   2.331  14.160  0.1877  1.3378  1.3894
 1009TIP3    H224443   4.983   2.349  14.052  0.3363 -1.4842  0.6809
 1010TIP3   OH224444   3.174   2.329  16.282  0.6616 -0.4325  0.4473
 1010TIP3    H124445   3.256   2.353  16.326  0.1059  0.7398  0.8932
 1010TIP3    H224446   3.114   2.401  16.303 -0.6530 -1.5234  0.5726
 1011TIP3   OH224447   0.368   4.865   3.392  0.4562  0.0423  0.6655
 1011TIP3    H124448   0.411   4.859   3.307  1.1633 -0.4164  1.0437
 1011TIP3    H224449   0.409   4.940   3.435  0.5638 -0.1225  0.8531
 1012TIP3   OH224450   1.776   5.504  11.873  0.9255 -0.9522 -0.6320
 1012TIP3    H124451   1.837   5.456  11.817  0.5906 -1.4496 -0.5761
 1012TIP3    H224452   1.752   5.581  11.821 -0.0782 -1.8574 -1.5799
 1013TIP3   OH224453   0.319   2.572   3.936 -0.1787 -0.3644 -0.6113
 1013TIP3    H124454   0.323   2.480   3.909  1.9742  0.3921 -3.2124
 1013TIP3    H224455   0.258   2.613   3.875 -0.7131  0.0794  0.1986
 1014TIP3   OH224456   5.879   6.267   0.977 -0.2564 -0.0890  0.0413
 1014TIP3    H124457   5.795   6.226   0.955  0.0393  0.1967 -1.7772
 1014TIP3    H224458   5.883   6.263   1.073 -3.4725  2.1010  0.4292
 1015TIP3   OH224459   6.197   0.194   1.054  0.0169 -0.0529  0.5575
 1015TIP3    H124460   6.246   0.112   1.051 -1.3859 -0.9122  0.5613
 1015TIP3    H224461   6.236   0.248   0.985 -0.6599 -1.6646 -1.1583
 1016TIP3   OH224462   4.139   0.659  14.642  0.3672 -0.1869  0.0555
 1016TIP3    H124463   4.093   0.575  14.648  0.6299 -0.2931  0.7440
 1016TIP3    H224464   4.188   0.665  14.724  2.0640 -0.3476 -0.9043
 1017TIP3   OH224465   5.010   5.667   2.144 -0.3419 -0.5495 -0.0471
 1017TIP3    H124466   4.979   5.689   2.232 -0.0431 -0.4791  0.0447
 1017TIP3    H224467   5.096   5.709   2.139  0.1367 -1.4921  0.0440
 1018TIP3   OH224468   0.079   2.458  15.631  0.2671  0.4091 -0.3608
 1018TIP3    H124469   0.084   2.429  15.723  1.4588 -0.2430 -0.6073
 1018TIP3    H224470   0.105   2.381  15.581  0.8304  1.1203 -1.1835
 1019TIP3   OH224471   6.082   3.622   1.015 -0.4689  0.6467  0.9948
 1019TIP3    H124472   6.138   3.626   1.092  1.4636  0.2355 -0.3346
 1019TIP3    H224473   6.103   3.702   0.966 -0.7749  0.2937  0.2735
 1020TIP3   OH224474   5.235   5.205  14.131 -0.7808  0.4982  0.3919
 1020TIP3    H124475   5.244   5.114  14.160  0.6961  0.2048 -0.8522
 1020TIP3    H224476   5.296   5.253  14.186 -0.7404  0.5631  0.2888
 1021TIP3   OH224477   0.455   1.324   2.645  0.7180 -0.0534  0.4579
 1021TIP3    H124478   0.479   1.331   2.737  1.1151 -0.7150  0.4133
 1021TIP3    H224479   0.436   1.414   2.618  3.1128  0.5494  0.5205
 1022TIP3   OH224480   5.103   5.528   5.002  0.8983  0.7655  0.1213
 1022TIP3    H124481   5.187   5.575   4.999  1.2729  0.1062 -0.1008
 1022TIP3    H224482   5.039   5.591   4.970  1.2655  1.3671  0.5526
 1023TIP3   OH224483   6.278   6.701  16.261  0.3177 -0.1131  0.0624
 1023TIP3    H124484   6.243   6.760  16.328 -0.2882  0.3657 -0.6592
 1023TIP3    H224485   6.365   6.677  16.293  0.6079  1.2229  0.3472
 1024TIP3   OH224486   4.271   4.381  14.796 -0.3838  0.4253 -0.1079
 1024TIP3    H124487   4.298   4.461  14.751 -0.4695  1.1736  1.1231
 1024TIP3    H224488   4.175   4.380  14.789 -0.4767  1.0587  0.8561
 1025TIP3   OH224489   2.723   0.084  12.098  0.2934  0.3273 -0.5471
 1025TIP3    H124490   2.739   0.113  12.008  2.1615  0.7451 -0.1301
 1025TIP3    H224491   2.640   0.124  12.122 -0.3551  0.0146 -2.1506
 1026TIP3   OH224492   6.514   5.936   3.675  0.1829  0.0715 -0.2770
 1026TIP3    H124493   6.524   5.853   3.722  1.2091  0.4571  0.2175
 1026TIP3    H224494   6.563   5.924   3.594 -0.2903 -0.0554 -0.5483
 1027TIP3   OH224495   1.176   3.801   3.938  0.1899 -0.2518 -0.5629
 1027TIP3    H124496   1.160   3.855   3.860 -0.3242 -0.5428 -0.6660
 1027TIP3    H224497   1.100   3.817   3.994  0.8882  0.4818  0.1903
 1028TIP3   OH224498   4.655   1.604  12.772  0.1739 -0.2049  0.0756
 1028TIP3    H124499   4.634   1.538  12.706  0.6432 -0.8742  0.5754
 1028TIP3    H224500   4.580   1.603  12.831 -0.9282  1.4305 -1.2001
 1029TIP3   OH224501   4.638   1.827  13.008 -0.5140 -0.8513  0.1283
 1029TIP3    H124502   4.732   1.840  13.011 -0.6274 -0.2067  1.3017
 1029TIP3    H224503   4.611   1.865  12.924  0.1177  0.1084  0.3432
 1030TIP3   OH224504   6.120   5.986  16.021 -0.2952 -0.4543  0.6823
 1030TIP3    H124505   6.061   6.046  15.975 -1.4609 -1.4642  0.8093
 1030TIP3    H224506   6.130   6.025  16.108 -0.0723  0.1604  0.3933
 1031TIP3   OH224507   6.057   6.029  12.616  0.1062  0.2278 -0.1509
 1031TIP3    H124508   6.020   6.114  12.638 -0.5851  0.3569 -1.6528
 1031TIP3    H224509   6.010   6.003  12.537  0.9826 -1.1149 -0.2596
 1032TIP3   OH224510   1.217   1.721  16.045 -0.2436 -0.2155  0.2024
 1032TIP3    H124511   1.215   1.648  15.982 -2.1381 -0.4245  0.4582
 1032TIP3    H224512   1.258   1.793  15.997 -1.8290 -0.3046 -1.3968
 1033TIP3   OH224513   0.183   5.282   2.585 -0.0257  0.0292 -0.2826
 1033TIP3    H124514   0.203   5.364   2.630  1.3940 -0.4013 -0.0586
 1033TIP3    H224515   0.207   5.214   2.649 -2.7349 -0.6005  0.1891
 1034TIP3   OH224516   1.874   4.706   3.088  0.1486  0.0252  0.6209
 1034TIP3    H124517   1.850   4.663   3.170  0.0839 -0.0321  0.5713
 1034TIP3    H224518   1.863   4.639   3.021  1.8726 -0.4532  0.7740
 1035TIP3   OH224519   2.609   6.584   4.440 -0.0100 -0.4580  0.3350
 1035TIP3    H124520   2.615   6.489   4.431 -1.0631 -0.5253  0.2354
 1035TIP3    H224521   2.660   6.618   4.366  0.4650 -0.9448  0.4366
 1036TIP3   OH224522   1.065   3.295  13.175 -0.1237  0.3158  0.0300
 1036TIP3    H124523   0.986   3.246  13.153 -0.1953  0.2668  0.3969
 1036TIP3    H224524   1.082   3.274  13.266  2.0518 -2.0774 -0.8304
 1037TIP3   OH224525   4.018   6.492   6.690  0.2273  0.6925 -0.7106
 1037TIP3    H124526   3.929   6.522   6.670  0.4540  0.4007 -2.3478
 1037TIP3    H224527   4.075   6.555   6.646  0.8908  1.3409  0.9838
 1038TIP3   OH224528   1.179   2.867  10.583  0.6249 -0.5064 -0.4326
 1038TIP3    H124529   1.084   2.866  10.582  0.5516  1.2993 -2.3523
 1038TIP3    H224530   1.203   2.957  10.560  2.8152 -0.6376  1.0212
 1039TIP3   OH224531   5.512   4.548   4.496  0.4116 -0.4429  0.1853
 1039TIP3    H124532   5.418   4.530   4.494  0.3287 -0.0352 -1.2987
 1039TIP3    H224533   5.540   4.519   4.582 -1.1087 -0.3896  0.7394
 1040TIP3   OH224534   1.805   6.088   4.539 -0.0463  0.3997 -0.7801
 1040TIP3    H124535   1.751   6.162   4.511 -1.0322 -0.7523 -2.0612
 1040TIP3    H224536   1.816   6.035   4.460 -1.1350 -1.9011  0.5189
 1041TIP3   OH224537   2.200   4.390  13.745  0.7677 -0.3146  0.2623
 1041TIP3    H124538   2.163   4.405  13.658 -0.4856  0.8037  0.9528
 1041TIP3    H224539   2.190   4.296  13.759 -2.8293 -0.0051  0.7576
 1042TIP3   OH224540   3.960   2.135   2.393  0.2337  0.0513 -0.0228
 1042TIP3    H124541   3.955   2.191   2.471 -0.1639 -1.3105  0.9786
 1042TIP3    H224542   4.043   2.159   2.352 -0.2148  1.8051  0.0037
 1043TIP3   OH224543   1.228   4.495  12.990  0.4693 -0.7254  0.6180
 1043TIP3    H124544   1.315   4.487  13.029  1.0294 -1.0728 -0.6446
 1043TIP3    H224545   1.188   4.409  13.003 -0.0774 -0.2904  2.0265
 1044TIP3   OH224546   4.137   1.380   5.048  0.0610  0.3636  0.3219
 1044TIP3    H124547   4.131   1.450   5.113 -0.0848 -0.0318  0.7417
 1044TIP3    H224548   4.139   1.300   5.100  2.0314  0.1199 -0.0553
 1045TIP3   OH224549   6.375   1.564  16.543  0.5938 -0.3445 -0.4344
 1045TIP3    H124550   6.306   1.540  16.605  0.4301  0.4120 -0.3214
 1045TIP3    H224551   6.341   1.641  16.497  1.7106  0.5705  0.2263
 1046TIP3   OH224552   3.672   1.609   2.499  0.7347 -0.2291 -0.1854
 1046TIP3    H124553   3.765   1.585   2.490  0.9459 -0.0977  1.4668
 1046TIP3    H224554   3.669   1.664   2.577 -0.4019  1.6758 -1.4825
 1047TIP3   OH224555   1.798   1.373   6.042  0.1131  0.6880 -0.3797
 1047TIP3    H124556   1.833   1.381   6.130 -1.5447 -0.2198  0.4002
 1047TIP3    H224557   1.850   1.305   6.000 -0.0682  0.0551  0.4179
 1048TIP3   OH224558   1.481   2.059   0.534 -0.2926 -0.8230  0.0687
 1048TIP3    H124559   1.388   2.054   0.509 -0.4966 -1.0217  0.8197
 1048TIP3    H224560   1.513   2.139   0.492 -0.1288 -2.0338 -2.3000
 1049TIP3   OH224561   0.395   0.274  16.750 -0.0519 -0.3554 -0.0203
 1049TIP3    H124562   0.338   0.199  16.763  0.2133 -0.6072 -0.2779
 1049TIP3    H224563   0.479   0.236  16.724  0.4877 -0.0308  1.1845
 1050TIP3   OH224564   5.173   5.472   6.101 -0.1198 -0.2728 -0.9018
 1050TIP3    H124565   5.128   5.392   6.074 -0.3035 -0.1002 -1.1111
 1050TIP3    H224566   5.104   5.528   6.136  0.1384 -0.5721  0.1386
 1051TIP3   OH224567   4.025   6.423  12.016  0.6545 -0.7127 -0.0122
 1051TIP3    H124568   3.934   6.452  12.012  0.6450 -0.8639 -1.5081
 1051TIP3    H224569   4.070   6.492  12.065  0.1048  0.4234 -1.0435
 1052TIP3   OH224570   4.987   3.816   4.197  0.1139  0.3238 -0.1342
 1052TIP3    H124571   4.917   3.880   4.196 -1.3776 -1.2014  0.5385
 1052TIP3    H224572   5.054   3.854   4.254 -0.1530  1.8070 -0.7828
 1053TIP3   OH224573   2.816   5.363  14.350  0.0596  0.3580  1.3553
 1053TIP3    H124574   2.903   5.344  14.384  1.3255  3.1117  0.0461
 1053TIP3    H224575   2.758   5.360  14.426  1.5599 -0.1170  2.5102
 1054TIP3   OH224576   1.506   1.213  15.007 -0.4130  0.4492  0.2067
 1054TIP3    H124577   1.412   1.223  15.017 -0.3056 -0.1523  2.4535
 1054TIP3    H224578   1.535   1.176  15.091  1.6570 -0.5036 -0.8529
 1055TIP3   OH224579   1.893   2.984   1.591 -0.2623 -0.2863  0.0294
 1055TIP3    H124580   1.867   3.076   1.597  1.6781  0.2888  0.3035
 1055TIP3    H224581   1.811   2.935   1.600 -1.1302  1.3533  1.6743
 1056TIP3   OH224582   2.618   6.609   5.623 -0.0774 -0.3509  0.3435
 1056TIP3    H124583   2.522   6.606   5.621 -0.0723 -0.5993  0.4881
 1056TIP3    H224584   2.638   6.684   5.679 -0.1876 -0.1479  0.1132
 1057TIP3   OH224585   1.336   5.274  16.742  0.4480  0.1545  0.9502
 1057TIP3    H124586   1.420   5.240  16.709  0.5637  1.3991 -0.0937
 1057TIP3    H224587   1.359   5.321  16.822  0.4387 -1.2069  1.7897
 1058TIP3   OH224588   4.958   2.863   3.679 -0.4380 -0.0751  0.6181
 1058TIP3    H124589   4.914   2.844   3.762  0.2911 -1.2360  0.7568
 1058TIP3    H224590   5.051   2.849   3.697 -0.2604 -0.2344 -0.3679
 1059TIP3   OH224591   3.320   4.363   3.544 -0.2707  0.5415 -0.6546
 1059TIP3    H124592   3.333   4.327   3.456 -1.3805 -1.1430 -0.1808
 1059TIP3    H224593   3.228   4.347   3.563  0.5783 -2.1063  1.9961
 1060TIP3   OH224594   5.475   5.198   1.894  0.1368 -0.4544 -0.1398
 1060TIP3    H124595   5.402   5.217   1.836  0.1740 -0.8163 -0.3061
 1060TIP3    H224596   5.480   5.275   1.952  0.9151  0.5245 -1.4438
 1061TIP3   OH224597   6.505   2.860   3.395 -0.7017 -0.3570  0.8266
 1061TIP3    H124598   6.553   2.897   3.469 -1.4074 -0.1106  1.1776
 1061TIP3    H224599   6.471   2.777   3.428  1.5390 -1.7802 -0.2056
 1062TIP3   OH224600   4.911   3.188   1.364 -0.1027  0.3535 -0.0403
 1062TIP3    H124601   4.894   3.275   1.328 -0.6253  0.7899  1.1957
 1062TIP3    H224602   4.837   3.135   1.335 -0.6434  0.7629  0.5745
 1063TIP3   OH224603   5.761   5.150  14.695  0.1937 -0.3834  0.1283
 1063TIP3    H124604   5.819   5.183  14.763  0.8338  1.3081 -1.1459
 1063TIP3    H224605   5.709   5.226  14.669 -0.6782 -1.2120 -0.6446
 1064TIP3   OH224606   1.711   0.928   1.036  0.0578  0.3885  0.3063
 1064TIP3    H124607   1.662   0.926   1.118 -1.2349  1.3640 -0.4194
 1064TIP3    H224608   1.800   0.953   1.062  0.1307 -1.0293  1.5859
 1065TIP3   OH224609   4.557   1.903  10.456 -0.1446  0.3585 -0.2650
 1065TIP3    H124610   4.551   1.959  10.534 -1.7724 -1.5168  1.0733
 1065TIP3    H224611   4.510   1.951  10.389  0.2547  1.4948  0.2465
 1066TIP3   OH224612   4.318   1.169   2.536  0.0997 -0.4610 -0.1250
 1066TIP3    H124613   4.288   1.146   2.624 -1.6876  0.5480 -0.4346
 1066TIP3    H224614   4.300   1.090   2.484 -0.6835 -0.3736  0.0059
 1067TIP3   OH224615   3.876   0.354   2.578 -0.1825 -0.7303 -0.2948
 1067TIP3    H124616   3.837   0.412   2.512 -0.2902 -0.2979  0.1453
 1067TIP3    H224617   3.895   0.273   2.530  0.5137 -0.1341 -1.0594
 1068TIP3   OH224618   4.150   0.557  16.466  0.4042 -0.2842  0.3158
 1068TIP3    H124619   4.230   0.505  16.456 -0.1257 -0.7961 -1.7181
 1068TIP3    H224620   4.178   0.647  16.454  0.5389 -0.5453 -1.5558
 1069TIP3   OH224621   3.622   2.437   5.420  0.2859 -0.5834 -0.5955
 1069TIP3    H124622   3.690   2.372   5.403  0.1762 -1.0428  0.5818
 1069TIP3    H224623   3.541   2.386   5.424  0.3422 -0.5945  1.5061
 1070TIP3   OH224624   4.830   0.009  11.436 -0.3591  0.2700 -0.2916
 1070TIP3    H124625   4.758  -0.050  11.460 -1.6894  2.0817  0.4197
 1070TIP3    H224626   4.902  -0.050  11.412 -1.2131 -1.6580  1.5155
 1071TIP3   OH224627   3.770   5.175  16.614 -0.4615 -0.1542  0.0261
 1071TIP3    H124628   3.700   5.210  16.559 -0.4491 -0.3530 -0.1172
 1071TIP3    H224629   3.841   5.155  16.553 -0.7962 -1.2586 -0.0097
 1072TIP3   OH224630   3.272   2.848   5.431  0.6639 -0.0251  0.2306
 1072TIP3    H124631   3.346   2.788   5.425  0.4720 -0.2320 -0.0818
 1072TIP3    H224632   3.255   2.856   5.525  0.3125 -0.9217  0.2470
 1073TIP3   OH224633   2.130   2.395  11.589  0.2719 -0.0761  0.2429
 1073TIP3    H124634   2.155   2.390  11.497  0.7146  1.3850  0.2608
 1073TIP3    H224635   2.051   2.450  11.590 -0.8824 -1.6564  0.5684
 1074TIP3   OH224636   2.094   5.940  11.794  0.5541  1.1222  0.5200
 1074TIP3    H124637   2.174   5.888  11.806  0.4245  1.2131  1.8987
 1074TIP3    H224638   2.026   5.891  11.840 -0.0376  1.4057 -0.0466
 1075TIP3   OH224639   4.117   6.534   2.724  0.1370  0.1501 -0.8755
 1075TIP3    H124640   4.190   6.555   2.782  0.0667 -0.5843 -0.5102
 1075TIP3    H224641   4.130   6.441   2.702  0.3275  0.4785 -2.2732
 1076TIP3   OH224642   3.356   2.264  11.603  0.5866  0.1535  0.1459
 1076TIP3    H124643   3.300   2.244  11.528  0.1785 -0.1588  0.5270
 1076TIP3    H224644   3.366   2.180  11.649  1.5652  0.1553 -0.0490
 1077TIP3   OH224645   1.225   0.643  16.040 -0.0850  0.1375  0.0928
 1077TIP3    H124646   1.260   0.702  16.107 -1.2173 -0.1955  1.0225
 1077TIP3    H224647   1.133   0.667  16.034 -0.1190 -0.2231 -0.9598
 1078TIP3   OH224648   4.336   1.719  13.119  0.3142 -0.2951  0.0530
 1078TIP3    H124649   4.245   1.696  13.135 -0.1695 -0.2852 -2.2497
 1078TIP3    H224650   4.375   1.638  13.084  0.9391 -0.0500  0.1655
 1079TIP3   OH224651   6.240   4.335   1.415 -0.8029 -0.2457 -0.4968
 1079TIP3    H124652   6.233   4.239   1.415  0.8618 -0.4048 -1.8251
 1079TIP3    H224653   6.161   4.364   1.369 -0.4784 -1.1021 -1.6667
 1080TIP3   OH224654   5.446   6.472   1.817  0.3739  0.0182  0.3831
 1080TIP3    H124655   5.403   6.492   1.734  1.0307 -1.5178 -0.3725
 1080TIP3    H224656   5.385   6.413   1.861  0.3026  0.3504  0.7345
 1081TIP3   OH224657   1.960   3.906   4.737  0.0551  0.1171  0.1896
 1081TIP3    H124658   1.880   3.912   4.789  0.6857  0.3551  1.1527
 1081TIP3    H224659   2.016   3.845   4.785  1.3232  1.6290  0.7448
 1082TIP3   OH224660   3.521   3.308  15.721  0.0568 -0.6049  0.0164
 1082TIP3    H124661   3.459   3.357  15.667 -1.6838 -0.6278  1.8599
 1082TIP3    H224662   3.520   3.220  15.685 -2.0072 -0.9265  0.7104
 1083TIP3   OH224663   5.120   1.289  12.829  0.3628 -0.4811  0.1035
 1083TIP3    H124664   5.080   1.321  12.910  0.3070 -0.7121  0.1700
 1083TIP3    H224665   5.103   1.357  12.765 -0.9322 -0.9517 -0.1021
 1084TIP3   OH224666   4.179   2.568   2.261 -0.5077  0.0539  0.0010
 1084TIP3    H124667   4.108   2.543   2.320 -0.0974  0.5790  0.7288
 1084TIP3    H224668   4.207   2.486   2.221 -1.6071 -0.1495 -0.4136
 1085TIP3   OH224669   6.753   4.472  15.745 -0.2427 -0.1275  0.5717
 1085TIP3    H124670   6.815   4.407  15.713 -1.0400 -1.2813  1.2971
 1085TIP3    H224671   6.668   4.428  15.741 -0.7365  0.7005  1.5529
 1086TIP3   OH224672   6.680   1.990   2.555 -0.1972 -0.1607  0.0103
 1086TIP3    H124673   6.759   2.028   2.595  0.4523 -1.2769 -0.1821
 1086TIP3    H224674   6.702   1.980   2.463 -0.5816 -0.4512 -0.0525
 1087TIP3   OH224675   0.848   4.341   3.718  0.3319 -0.0532 -0.0421
 1087TIP3    H124676   0.863   4.263   3.771  0.5637 -1.3953 -1.9819
 1087TIP3    H224677   0.929   4.352   3.667 -2.1081 -3.3337 -5.5826
 1088TIP3   OH224678   2.189   0.686  11.485 -0.0377 -0.0842 -0.3610
 1088TIP3    H124679   2.132   0.626  11.437  0.1906 -0.4548 -0.1738
 1088TIP3    H224680   2.187   0.767  11.434 -1.6760  0.3158  0.2703
 1089TIP3   OH224681   3.438   4.004  16.420 -0.1656  0.8497 -0.3767
 1089TIP3    H124682   3.442   3.929  16.361 -1.0550 -0.2250  0.8741
 1089TIP3    H224683   3.410   3.967  16.504  1.5970  2.2213  0.8949
 1090TIP3   OH224684   0.383   3.567   2.272  0.2392 -0.6412  0.4419
 1090TIP3    H124685   0.433   3.639   2.310  1.9903 -1.8975  0.6395
 1090TIP3    H224686   0.445   3.523   2.215 -0.9051 -1.7907  0.0433
 1091TIP3   OH224687   0.013   4.481  10.511 -0.7484 -0.0802  0.1036
 1091TIP3    H124688   0.025   4.565  10.555 -0.8047 -0.3699  0.6847
 1091TIP3    H224689   0.071   4.421  10.558 -1.0521 -0.4672 -0.0070
 1092TIP3   OH224690   6.204   0.793  12.497 -0.3793  0.1718  0.0605
 1092TIP3    H124691   6.298   0.797  12.481 -0.5611 -0.3670 -1.3085
 1092TIP3    H224692   6.165   0.799  12.409 -1.6288  0.6691  0.6331
 1093TIP3   OH224693   2.080   2.106  11.946 -0.2236 -0.0990 -0.1081
 1093TIP3    H124694   2.034   2.096  12.029  1.9194  0.9452  1.2897
 1093TIP3    H224695   2.108   2.017  11.924  1.0747 -0.1519  1.5024
 1094TIP3   OH224696   0.100   0.470  11.429 -0.1171  0.3194 -0.3698
 1094TIP3    H124697   0.064   0.383  11.408 -0.7858  0.3848  0.4295
 1094TIP3    H224698   0.088   0.521  11.349 -1.1869  0.1332 -0.3413
 1095TIP3   OH224699   2.633   0.762  16.113 -0.1015 -0.6493  0.4823
 1095TIP3    H124700   2.566   0.791  16.050  0.4787 -1.4632 -0.5489
 1095TIP3    H224701   2.695   0.835  16.116 -1.1072  0.1902  1.5899
 1096TIP3   OH224702   4.773   2.984  16.934 -0.4068  0.1650  0.3490
 1096TIP3    H124703   4.846   2.958  16.990  0.9587  2.1372 -0.4055
 1096TIP3    H224704   4.696   2.977  16.991  0.7292  0.6311  2.0357
 1097TIP3   OH224705   6.642   0.252   4.541 -0.2484  0.4718  0.1566
 1097TIP3    H124706   6.570   0.255   4.604 -2.0744 -0.3636 -1.7689
 1097TIP3    H224707   6.599   0.254   4.456  2.0246 -0.2324 -1.0903
 1098TIP3   OH224708   1.277   6.293  10.572 -0.5697 -0.0776 -0.1159
 1098TIP3    H124709   1.317   6.220  10.525 -0.3899  0.0961 -0.2380
 1098TIP3    H224710   1.245   6.256  10.654  1.0198  0.0394  0.5920
 1099TIP3   OH224711   0.215   0.416  13.941 -0.4507  0.2981 -0.2311
 1099TIP3    H124712   0.154   0.343  13.942 -1.4848  1.1436 -0.1461
 1099TIP3    H224713   0.301   0.375  13.932 -1.0289 -0.9054 -0.4756
 1100TIP3   OH224714   5.623   1.270  16.969 -0.1223 -0.2512 -0.0739
 1100TIP3    H124715   5.532   1.291  16.991 -0.2641 -2.0915  1.3556
 1100TIP3    H224716   5.645   1.330  16.897 -2.3717  0.4001 -0.2976
 1101TIP3   OH224717   6.778   6.522  12.202  0.4673  0.3173  0.3335
 1101TIP3    H124718   6.691   6.529  12.240  0.2755 -0.8283  0.1417
 1101TIP3    H224719   6.763   6.500  12.110  0.9392  2.3605 -0.2788
 1102TIP3   OH224720   2.380   1.286  11.505  0.0061 -0.2115 -0.3944
 1102TIP3    H124721   2.388   1.248  11.593  0.2381  0.5785 -0.0621
 1102TIP3    H224722   2.292   1.263  11.476 -0.4890  0.4730  0.5175
 1103TIP3   OH224723   0.285   5.943  15.833  0.3353 -0.1945  0.2223
 1103TIP3    H124724   0.339   5.945  15.911  0.7446  0.3159 -0.0684
 1103TIP3    H224725   0.297   6.030  15.793  0.2448 -0.4966 -0.4786
 1104TIP3   OH224726   4.329   3.372  13.946  0.9484  0.3074 -0.1226
 1104TIP3    H124727   4.402   3.414  13.990 -0.9061  1.3940  2.1394
 1104TIP3    H224728   4.338   3.279  13.967  1.2023  0.5570  0.9529
 1105TIP3   OH224729   4.664   2.283   3.926 -0.0669 -0.3003 -0.3125
 1105TIP3    H124730   4.690   2.201   3.885 -0.9251 -1.2497  0.9641
 1105TIP3    H224731   4.741   2.312   3.974 -0.7202 -2.2303  2.0903
 1106TIP3   OH224732   3.918   5.478  16.022 -0.2157 -0.5746 -0.2419
 1106TIP3    H124733   3.936   5.567  15.993  0.8599 -0.7781 -0.2413
 1106TIP3    H224734   3.940   5.423  15.946  2.8090 -1.1316  0.8778
 1107TIP3   OH224735   0.221   5.763  15.516 -0.5891 -0.0371  0.6157
 1107TIP3    H124736   0.145   5.806  15.554 -1.3459  0.9283 -1.8029
 1107TIP3    H224737   0.193   5.672  15.502 -1.4062  0.3550 -0.4307
 1108TIP3   OH224738   1.449   3.006   3.744  0.2192 -0.1597  0.4736
 1108TIP3    H124739   1.440   3.099   3.764 -3.0883  0.0878 -1.4056
 1108TIP3    H224740   1.478   3.004   3.652 -0.4239 -0.9373  0.2736
 1109TIP3   OH224741   6.063   3.672  13.708  0.1938 -0.0688 -0.4235
 1109TIP3    H124742   6.041   3.585  13.740  0.1730 -0.1454 -0.6461
 1109TIP3    H224743   6.127   3.657  13.638  1.5871  0.1895  0.7522
 1110TIP3   OH224744   4.418   1.252  13.425 -0.2931  0.0425 -0.1950
 1110TIP3    H124745   4.390   1.170  13.464 -0.7972  0.6682  0.7909
 1110TIP3    H224746   4.352   1.271  13.358 -2.6679  1.7468  2.4224
 1111TIP3   OH224747   3.492   1.970  16.316 -0.2444  0.1020 -0.1191
 1111TIP3    H124748   3.463   2.049  16.269  1.1753  0.2574 -0.7774
 1111TIP3    H224749   3.550   2.003  16.385  0.1551 -0.3412 -0.2396
 1112TIP3   OH224750   1.958   0.052  16.684 -0.5912  0.0723 -0.1077
 1112TIP3    H124751   1.865   0.076  16.681  0.0226  2.6040 -1.7250
 1112TIP3    H224752   2.003   0.134  16.705  1.3266 -1.0917  0.5625
 1113TIP3   OH224753   1.494   3.370   1.616 -0.0278  0.4434 -0.6232
 1113TIP3    H124754   1.420   3.311   1.597  0.5374 -0.2067 -0.8694
 1113TIP3    H224755   1.567   3.311   1.635  0.7820  1.0413 -1.7159
 1114TIP3   OH224756   0.483   2.542   5.121 -0.0855 -0.2528 -0.7012
 1114TIP3    H124757   0.515   2.463   5.166 -0.5100  0.2857  0.6096
 1114TIP3    H224758   0.464   2.513   5.032  0.4335 -1.4654 -0.4385
 1115TIP3   OH224759   6.465   5.191   0.635 -0.1797  0.3895  0.5612
 1115TIP3    H124760   6.432   5.108   0.669  1.3919 -0.5555 -0.1144
 1115TIP3    H224761   6.442   5.256   0.702  1.5073 -1.1506  2.7814
 1116TIP3   OH224762   1.722   6.610  12.737 -0.1291 -0.1056  0.6591
 1116TIP3    H124763   1.778   6.552  12.790 -2.2517 -0.8341  2.2497
 1116TIP3    H224764   1.656   6.551  12.700 -0.8141  0.9521  0.1835
 1117TIP3   OH224765   3.199   2.102  16.460 -0.0416 -0.2187  0.1662
 1117TIP3    H124766   3.230   2.192  16.460  1.6273 -0.7443 -0.9078
 1117TIP3    H224767   3.266   2.053  16.411  0.1441 -2.3927  2.3522
 1118TIP3   OH224768   0.368   2.529  15.773  0.4149 -0.2847  0.3404
 1118TIP3    H124769   0.358   2.458  15.836  0.0961 -0.6091 -0.0721
 1118TIP3    H224770   0.421   2.492  15.702  1.3695  0.2930  0.7425
 1119TIP3   OH224771   3.855   0.641  11.083  0.1662  0.1114  0.5398
 1119TIP3    H124772   3.842   0.651  10.989  0.5962 -0.9063  0.3631
 1119TIP3    H224773   3.769   0.654  11.121  0.2548  2.1599  0.1679
 1120TIP3   OH224774   4.612   0.654  13.096  0.1441  0.0843 -0.1422
 1120TIP3    H124775   4.691   0.696  13.062  1.4878 -1.5305  0.8281
 1120TIP3    H224776   4.644   0.593  13.162 -1.6601 -2.3086 -1.3165
 1121TIP3   OH224777   2.261   5.707  12.396 -0.0454  0.6549  0.1624
 1121TIP3    H124778   2.290   5.786  12.441  1.4886  0.1463  0.1186
 1121TIP3    H224779   2.341   5.655  12.385 -1.2418 -1.7239  1.7822
 1122TIP3   OH224780   5.512   2.739   1.546 -0.3270 -0.4729 -0.1194
 1122TIP3    H124781   5.538   2.828   1.571 -0.4289 -0.3167 -0.5502
 1122TIP3    H224782   5.480   2.699   1.627 -0.1020 -0.1803  0.1154
 1123TIP3   OH224783   1.980   6.253   4.352  1.1281 -0.2269 -0.1895
 1123TIP3    H124784   2.012   6.335   4.313  0.3533 -0.3167 -1.0468
 1123TIP3    H224785   2.001   6.261   4.445  0.9573  1.0074 -0.2375
 1124TIP3   OH224786   3.105   1.800  17.085  0.4066  0.1908 -0.2543
 1124TIP3    H124787   3.196   1.798  17.114 -0.1561 -1.3983  1.5840
 1124TIP3    H224788   3.077   1.890  17.100  1.3743  0.4476  0.0807
 1125TIP3   OH224789   5.363   0.902  12.711  0.2611 -0.6726 -0.0677
 1125TIP3    H124790   5.354   0.881  12.804 -0.7323 -1.9512 -0.4264
 1125TIP3    H224791   5.381   0.996  12.709 -3.2405  0.1862  1.2835
 1126TIP3   OH224792   4.063   5.611  11.934 -0.1749  0.1950  0.1264
 1126TIP3    H124793   4.054   5.689  11.880  0.1853  0.8403  0.9940
 1126TIP3    H224794   4.096   5.642  12.018 -0.2043 -0.8631  0.5510
 1127TIP3   OH224795   6.767   3.357  15.725  0.1143  0.6816 -0.7592
 1127TIP3    H124796   6.828   3.422  15.691 -0.0554  1.4965  0.4026
 1127TIP3    H224797   6.758   3.380  15.818 -0.0119 -0.9619 -0.3346
 1128TIP3   OH224798   2.870   4.255   3.386  0.5000  0.7375  0.1631
 1128TIP3    H124799   2.932   4.298   3.328 -0.6444  2.0271 -0.1805
 1128TIP3    H224800   2.872   4.307   3.466 -0.0160  0.7130  0.1980
 1129TIP3   OH224801   1.504   2.453  11.174 -0.2574  0.7926 -0.2475
 1129TIP3    H124802   1.565   2.395  11.219 -0.9340 -0.5150 -0.9437
 1129TIP3    H224803   1.560   2.514  11.126  0.4724  0.7161  0.4796
 1130TIP3   OH224804   1.340   1.639   2.730  0.0128  0.6276  0.1128
 1130TIP3    H124805   1.260   1.589   2.712  0.7221 -0.1193 -1.1302
 1130TIP3    H224806   1.322   1.727   2.697 -0.5263  0.6517  0.4609
 1131TIP3   OH224807   1.997   6.010   1.415  0.7933  0.0464 -0.1345
 1131TIP3    H124808   1.923   6.009   1.477  0.4824 -0.8046 -0.4970
 1131TIP3    H224809   1.956   5.992   1.330  1.5265 -1.5147 -0.1930
 1132TIP3   OH224810   1.079   1.921  13.367 -0.1916 -0.0507  0.1012
 1132TIP3    H124811   1.029   1.885  13.441  0.5831  0.8094  1.0648
 1132TIP3    H224812   1.135   1.988  13.406  0.8746 -0.1868 -1.1352
 1133TIP3   OH224813   3.061   0.856   6.441 -0.7014  0.0066  0.6334
 1133TIP3    H124814   3.121   0.808   6.497  1.3294  0.8327 -0.7327
 1133TIP3    H224815   3.022   0.790   6.385  0.6193 -0.3284  0.0701
 1134TIP3   OH224816   6.726   4.107   6.333  0.4226  0.2476  0.0718
 1134TIP3    H124817   6.806   4.074   6.291  0.0575 -0.2159 -0.2750
 1134TIP3    H224818   6.732   4.202   6.326  0.4471  0.1826 -0.8978
 1135TIP3   OH224819   0.226   5.389   5.504  0.3794 -0.3399  0.2491
 1135TIP3    H124820   0.175   5.458   5.545  1.6396  0.1977  0.9874
 1135TIP3    H224821   0.307   5.432   5.477  2.1347 -1.8481  2.6447
 1136TIP3   OH224822   2.880   2.041  11.564  0.1001 -0.8412 -0.1187
 1136TIP3    H124823   2.875   2.135  11.581  0.0280 -0.6233 -1.2950
 1136TIP3    H224824   2.973   2.019  11.574 -0.0030 -0.8403  1.0463
 1137TIP3   OH224825   2.855   6.800  13.327 -0.1126  0.3592  0.7615
 1137TIP3    H124826   2.762   6.778  13.333 -0.0176 -0.9201 -1.3965
 1137TIP3    H224827   2.860   6.865  13.257  0.8142 -1.4369 -0.9321
 1138TIP3   OH224828   4.187   2.801  12.350 -0.0477 -0.3852 -0.0538
 1138TIP3    H124829   4.279   2.820  12.366  0.1386 -1.7356  0.7022
 1138TIP3    H224830   4.150   2.883  12.319  1.0632  0.6264  1.1548
 1139TIP3   OH224831   6.292   4.381   4.942 -0.7009  0.2541  0.0807
 1139TIP3    H124832   6.349   4.458   4.937 -0.1208 -0.2147 -0.7469
 1139TIP3    H224833   6.348   4.308   4.917 -1.6341 -0.2305 -0.6717
 1140TIP3   OH224834   4.616   3.029   2.897 -0.8357 -0.1001 -0.6103
 1140TIP3    H124835   4.597   2.954   2.953 -2.5080  0.7189 -0.0178
 1140TIP3    H224836   4.536   3.041   2.845 -0.4899  1.0723 -0.9054
 1141TIP3   OH224837   3.608   5.120  14.657  0.3768  0.5459 -0.2659
 1141TIP3    H124838   3.634   5.154  14.742  2.1271  0.9125 -0.8968
 1141TIP3    H224839   3.513   5.119  14.659  0.3807  1.1418  1.4594
 1142TIP3   OH224840   5.597   2.750  15.275 -0.0287 -0.0158 -0.3537
 1142TIP3    H124841   5.692   2.742  15.263 -0.1048 -2.1357  0.0540
 1142TIP3    H224842   5.560   2.681  15.219 -1.3138  0.5682 -0.2594
 1143TIP3   OH224843   1.046   0.203   5.064  0.1004  0.2850 -0.3922
 1143TIP3    H124844   1.008   0.245   4.987  0.8732 -2.0635 -2.1679
 1143TIP3    H224845   1.140   0.218   5.056  0.3238 -1.1036 -0.7061
 1144TIP3   OH224846   1.363   2.123  10.909  0.6765 -0.1216  0.1451
 1144TIP3    H124847   1.367   2.060  10.837  0.7206 -0.5380  0.5070
 1144TIP3    H224848   1.384   2.207  10.868 -1.0577 -0.0566 -0.6722
 1145TIP3   OH224849   6.699   2.197   5.446  0.2936 -0.1691  0.0258
 1145TIP3    H124850   6.727   2.273   5.395 -0.5184  1.1281  1.4488
 1145TIP3    H224851   6.722   2.218   5.536  1.5603 -2.3530  0.2789
 1146TIP3   OH224852   5.776   3.241   4.890  0.0652 -0.1909  0.1395
 1146TIP3    H124853   5.781   3.332   4.920  1.0333 -0.1691 -0.0594
 1146TIP3    H224854   5.867   3.210   4.892 -0.4738 -1.8418  2.2466
 1147TIP3   OH224855   3.811   1.524  14.630  0.2777 -0.0779 -0.4031
 1147TIP3    H124856   3.875   1.554  14.694  0.2738  2.1261 -1.3295
 1147TIP3    H224857   3.784   1.438  14.660  0.3497  0.8310  2.5106
 1148TIP3   OH224858   5.714   3.984   5.901 -0.0470 -0.3179 -0.0853
 1148TIP3    H124859   5.721   3.938   5.985  1.1575 -1.1714 -0.6151
 1148TIP3    H224860   5.805   3.990   5.870 -0.2812  1.4999 -0.5438
 1149TIP3   OH224861   1.885   6.293  15.503 -0.6939  0.3651  0.6349
 1149TIP3    H124862   1.911   6.207  15.470 -1.1923  1.0843 -1.8443
 1149TIP3    H224863   1.967   6.342  15.512 -0.6003  0.4420 -0.5079
 1150TIP3   OH224864   1.868   1.800   2.281 -0.1798 -0.4214 -0.8303
 1150TIP3    H124865   1.798   1.802   2.216  0.3515  0.5334 -1.3973
 1150TIP3    H224866   1.945   1.771   2.232  0.1541 -0.0042 -0.5665
 1151TIP3   OH224867   6.746   2.869  12.247  0.1184  0.2058  0.4499
 1151TIP3    H124868   6.761   2.783  12.286  0.7498 -0.0252 -0.2926
 1151TIP3    H224869   6.681   2.853  12.178  0.9705  0.1370 -0.3515
 1152TIP3   OH224870   6.313   5.944  16.404 -0.1357 -0.2403  0.6178
 1152TIP3    H124871   6.272   5.985  16.327  0.1697  0.5134  0.8485
 1152TIP3    H224872   6.304   6.010  16.473  0.3421 -0.5803  1.0047
 1153TIP3   OH224873   1.147   5.499   2.932 -0.3098  0.1727 -0.0268
 1153TIP3    H124874   1.062   5.538   2.910  0.9490  2.2803 -1.4980
 1153TIP3    H224875   1.142   5.410   2.896 -2.1359 -0.0518  0.6336
 1154TIP3   OH224876   2.879   3.019   1.984  0.1163 -0.4527  0.1772
 1154TIP3    H124877   2.946   2.985   1.925  0.8443 -2.8933  2.2444
 1154TIP3    H224878   2.827   2.942   2.009 -1.2111  0.7763  1.4012
 1155TIP3   OH224879   6.807   5.281   1.169  0.0724 -0.6172 -0.3597
 1155TIP3    H124880   6.759   5.202   1.147  1.0989 -0.7656 -2.2750
 1155TIP3    H224881   6.872   5.253   1.234 -1.2505 -0.7510  0.9641
 1156TIP3   OH224882   2.174   3.828   2.537 -0.3057  0.7061 -0.1552
 1156TIP3    H124883   2.143   3.886   2.605  0.3360  2.1839 -1.0784
 1156TIP3    H224884   2.267   3.847   2.529 -0.2243  0.0553 -0.9692
 1157TIP3   OH224885   4.261   4.214   2.028 -0.0524 -0.0270 -0.6131
 1157TIP3    H124886   4.309   4.296   2.016  1.6468 -0.9822 -0.6221
 1157TIP3    H224887   4.319   4.160   2.082 -2.0110 -0.5168  1.1518
 1158TIP3   OH224888   2.105   3.935  14.417  0.2383  0.0487 -0.6178
 1158TIP3    H124889   2.086   3.938  14.323  1.8330  0.7858 -0.9466
 1158TIP3    H224890   2.092   4.025  14.447 -2.2938 -0.5716  0.3398
 1159TIP3   OH224891   5.309   0.471   2.094  0.2657  0.3661  0.1493
 1159TIP3    H124892   5.309   0.556   2.052  0.7245  0.1648 -0.2633
 1159TIP3    H224893   5.221   0.437   2.079  0.7546 -0.1942 -1.6704
 1160TIP3   OH224894   2.354   4.610  14.409  0.0320  0.1187 -0.6145
 1160TIP3    H124895   2.318   4.562  14.335  1.8484  0.4699 -1.7782
 1160TIP3    H224896   2.440   4.571  14.424 -1.7082 -2.8347  4.0780
 1161TIP3   OH224897   5.734   5.405   1.646  0.0655 -0.1169  0.6475
 1161TIP3    H124898   5.801   5.408   1.577 -0.9436 -0.4173 -0.3852
 1161TIP3    H224899   5.733   5.313   1.673  0.3993 -0.0169  0.9985
 1162TIP3   OH224900   3.813   0.627  14.660  0.0897  0.5937 -0.3857
 1162TIP3    H124901   3.754   0.678  14.604 -0.3962 -1.1788 -1.5772
 1162TIP3    H224902   3.895   0.622  14.610 -0.2723 -0.8030 -0.8955
 1163TIP3   OH224903   5.135   3.097   5.228  0.4294  0.2654  0.3270
 1163TIP3    H124904   5.191   3.110   5.304 -1.7126  2.0019  1.7351
 1163TIP3    H224905   5.050   3.072   5.265 -0.3386 -0.1893 -1.5927
 1164TIP3   OH224906   3.239   3.756  16.534  0.1672 -0.0734 -0.1554
 1164TIP3    H124907   3.272   3.672  16.503 -0.9211 -0.8664  0.7585
 1164TIP3    H224908   3.270   3.761  16.624 -0.2134  0.2618 -0.0433
 1165TIP3   OH224909   0.418   6.069  12.104 -0.9020  0.0955  0.6572
 1165TIP3    H124910   0.506   6.102  12.125 -1.3471  2.4689 -0.8720
 1165TIP3    H224911   0.369   6.079  12.186 -0.1133  0.0014  1.1548
 1166TIP3   OH224912   3.985   5.421   4.285  0.3369 -0.1479  0.9290
 1166TIP3    H124913   3.944   5.447   4.368 -1.1992  1.0731 -0.1569
 1166TIP3    H224914   4.019   5.502   4.248 -0.9230 -0.2686 -0.6201
 1167TIP3   OH224915   0.378   3.572   0.542 -0.1034  0.2172  0.0314
 1167TIP3    H124916   0.432   3.609   0.612 -1.7228 -1.2462  2.1780
 1167TIP3    H224917   0.357   3.647   0.487  0.5565  1.6253  1.5876
 1168TIP3   OH224918   4.750   3.839  16.287 -0.4520  0.6460 -0.3416
 1168TIP3    H124919   4.814   3.782  16.244  0.4703 -0.0562  1.8401
 1168TIP3    H224920   4.665   3.800  16.266  0.0761 -0.6505 -0.1501
 1169TIP3   OH224921   3.876   5.834   3.315 -0.8853 -0.4914  0.1822
 1169TIP3    H124922   3.874   5.924   3.348 -2.7732 -0.2278 -0.5336
 1169TIP3    H224923   3.853   5.781   3.391  1.6246 -0.5498  0.9752
 1170TIP3   OH224924   3.904   2.829  13.280  0.1808 -0.0322  0.1394
 1170TIP3    H124925   3.995   2.853  13.297 -0.5562  3.1424  0.1288
 1170TIP3    H224926   3.889   2.854  13.188 -0.8342 -0.0579  0.2854
 1171TIP3   OH224927   6.562   6.587  10.737 -0.1409  0.0500 -0.6190
 1171TIP3    H124928   6.552   6.575  10.642 -3.6626  2.7263 -0.8011
 1171TIP3    H224929   6.476   6.565  10.773  0.4458  1.2170  1.6664
 1172TIP3   OH224930   6.754   4.629   2.162  0.4944 -0.7987 -0.2538
 1172TIP3    H124931   6.768   4.576   2.240  0.4146 -0.7072 -0.1787
 1172TIP3    H224932   6.685   4.583   2.113 -2.1903  1.0943  1.5095
 1173TIP3   OH224933   2.184   2.877  12.887 -0.5030  0.4086 -0.2660
 1173TIP3    H124934   2.184   2.972  12.876 -0.1428  1.5488  5.8921
 1173TIP3    H224935   2.260   2.859  12.943 -1.1362 -3.3733 -0.3271
 1174TIP3   OH224936   1.241   4.256   5.345  0.0985 -0.6713 -0.8222
 1174TIP3    H124937   1.158   4.244   5.299  0.5987 -0.2637 -1.8695
 1174TIP3    H224938   1.227   4.216   5.431 -1.3155 -0.2034 -0.8168
 1175TIP3   OH224939   2.953   3.540   4.468  0.5131 -0.2424  0.3497
 1175TIP3    H124940   2.931   3.466   4.525  0.2797 -0.9298 -0.6150
 1175TIP3    H224941   2.882   3.602   4.482 -0.6577 -1.2829 -0.6782
 1176TIP3   OH224942   6.252   2.286   1.288 -0.7478 -0.0709 -0.0347
 1176TIP3    H124943   6.317   2.356   1.275  0.3941 -1.1425 -0.3227
 1176TIP3    H224944   6.303   2.213   1.324 -1.9121 -0.7626  0.2408
 1177TIP3   OH224945   1.815   0.934   5.685  0.5243 -0.3024  0.0232
 1177TIP3    H124946   1.823   1.028   5.671 -0.0900 -0.5812 -2.8369
 1177TIP3    H224947   1.736   0.924   5.738  1.2761  0.8112  1.4126
 1178TIP3   OH224948   6.301   6.755  17.075  0.0753  0.0778  0.0677
 1178TIP3    H124949   6.295   6.700  17.154 -2.0530  1.1355  0.7305
 1178TIP3    H224950   6.211   6.787  17.062 -0.3269 -2.1843 -4.4125
 1179TIP3   OH224951   1.560   0.232   3.581 -0.4749  0.2907  0.4953
 1179TIP3    H124952   1.559   0.319   3.541 -0.8649  0.2080  0.3249
 1179TIP3    H224953   1.634   0.188   3.538 -1.1669  0.0450 -0.4788
 1180TIP3   OH224954   2.985   4.010   1.199 -0.0804 -0.9439 -0.1541
 1180TIP3    H124955   2.934   4.029   1.121 -1.0976 -1.4812  0.3508
 1180TIP3    H224956   2.947   3.929   1.233  0.4658 -0.8239  0.7847
 1181TIP3   OH224957   1.414   3.582  16.686  0.1869 -0.2972  0.2999
 1181TIP3    H124958   1.365   3.570  16.767  2.1746  1.0224  1.7908
 1181TIP3    H224959   1.388   3.669  16.655 -0.3116 -0.6600 -0.3400
 1182TIP3   OH224960   1.381   2.631   0.279  0.2209 -0.3666  0.1807
 1182TIP3    H124961   1.290   2.661   0.285 -0.0927 -1.4710  2.2074
 1182TIP3    H224962   1.418   2.652   0.365  1.1921 -1.9297  0.1771
 1183TIP3   OH224963   6.279   5.691  12.481  0.7183 -0.2335  0.0135
 1183TIP3    H124964   6.352   5.630  12.469  0.4014 -0.2334 -2.2446
 1183TIP3    H224965   6.308   5.773  12.440 -0.1210  0.1251  0.1031
 1184TIP3   OH224966   0.215   2.030   0.721  0.2668  0.2473 -0.4698
 1184TIP3    H124967   0.201   1.943   0.760  1.1713  0.3070  0.0014
 1184TIP3    H224968   0.307   2.049   0.738  0.3508  0.8323 -1.5283
 1185TIP3   OH224969   4.371   3.046   3.195 -0.1354  0.3094  0.0585
 1185TIP3    H124970   4.346   3.058   3.287 -0.6586  1.0329 -0.1664
 1185TIP3    H224971   4.435   2.976   3.196 -0.5990 -0.1141  0.9133
 1186TIP3   OH224972   4.682   5.383   0.289 -0.0053  0.3346 -0.2771
 1186TIP3    H124973   4.622   5.309   0.285 -0.4870  0.6831  0.2488
 1186TIP3    H224974   4.757   5.351   0.339 -0.1512  0.1626 -0.1680
 1187TIP3   OH224975   0.397   0.127  14.849  0.2557 -0.0412 -0.3397
 1187TIP3    H124976   0.445   0.063  14.797 -1.2679  0.2419 -2.2109
 1187TIP3    H224977   0.333   0.076  14.897 -0.7915  0.0088 -1.6378
 1188TIP3   OH224978   4.574   6.081   0.912 -0.4291 -0.1139 -0.2866
 1188TIP3    H124979   4.665   6.058   0.893 -0.6087  0.9524 -2.8527
 1188TIP3    H224980   4.568   6.080   1.008  3.1056  2.7506  0.1578
 1189TIP3   OH224981   0.255   1.223   6.697 -0.0060  0.0597 -0.5693
 1189TIP3    H124982   0.174   1.213   6.648 -0.6794  0.2923  0.4631
 1189TIP3    H224983   0.278   1.134   6.723  0.3704 -0.0681 -1.3166
 1190TIP3   OH224984   0.581   4.196   2.227  0.4344  0.1894  0.3973
 1190TIP3    H124985   0.566   4.231   2.315 -0.3563  0.4151  0.1785
 1190TIP3    H224986   0.652   4.251   2.192  0.1357  0.6935  0.5622
 1191TIP3   OH224987   6.685   3.898   5.727 -0.5251 -0.1548  0.0765
 1191TIP3    H124988   6.683   3.889   5.822 -0.7743 -1.0901 -0.0131
 1191TIP3    H224989   6.731   3.820   5.696  1.3867  1.0984 -0.4700
 1192TIP3   OH224990   0.605   4.859  16.142  0.5097 -0.1748  0.0280
 1192TIP3    H124991   0.670   4.878  16.210  0.5324 -2.8125  0.8432
 1192TIP3    H224992   0.523   4.895  16.178  0.9591  0.5382  0.3585
 1193TIP3   OH224993   6.076   0.819  11.952  0.5989 -0.6451 -0.1243
 1193TIP3    H124994   6.105   0.793  11.865  1.4883  0.9886 -0.3630
 1193TIP3    H224995   6.120   0.903  11.968 -0.5016 -0.3075  1.3978
 1194TIP3   OH224996   1.763   5.427   3.862  0.4283  0.3366 -0.9237
 1194TIP3    H124997   1.852   5.403   3.834  0.1502  0.8609 -2.3194
 1194TIP3    H224998   1.718   5.452   3.782 -0.8308  0.6110 -0.1617
 1195TIP3   OH224999   4.944   3.702   5.787 -0.2682 -0.2026  0.0650
 1195TIP3    H125000   4.907   3.748   5.711  0.9545  1.8463  0.6277
 1195TIP3    H225001   4.987   3.625   5.750 -0.1795  0.4637 -1.2694
 1196TIP3   OH225002   5.393   3.629   4.283  0.3298 -0.1681  0.2877
 1196TIP3    H125003   5.308   3.591   4.304 -0.9380  1.2519 -1.8733
 1196TIP3    H225004   5.405   3.698   4.348  0.0085 -0.6155  0.8254
 1197TIP3   OH225005   3.157   2.986   5.808 -0.3314 -0.4750  0.7887
 1197TIP3    H125006   3.075   3.005   5.763 -0.2441 -1.7777  0.0521
 1197TIP3    H225007   3.143   3.020   5.897 -1.3410  0.0896  0.4317
 1198TIP3   OH225008   1.429   4.270  16.710  0.0827  0.5460 -0.7317
 1198TIP3    H125009   1.428   4.245  16.803 -0.9130  0.8158 -0.6570
 1198TIP3    H225010   1.505   4.224  16.674  0.4756  0.4279  0.2135
 1199TIP3   OH225011   2.348   6.112   2.959 -0.3339  0.2025  0.5232
 1199TIP3    H125012   2.443   6.125   2.970  0.0497 -0.5449 -1.5927
 1199TIP3    H225013   2.328   6.148   2.873 -2.0076  0.3488  0.9349
 1200TIP3   OH225014   0.978   3.284  13.489  0.3844  0.2274 -0.6406
 1200TIP3    H125015   0.926   3.348  13.440 -0.4028  0.0552 -0.0657
 1200TIP3    H225016   0.979   3.206  13.435 -1.8798 -0.5237  0.2647
 1201TIP3   OH225017   1.262   1.073  15.707  0.6332 -0.4945  0.3120
 1201TIP3    H125018   1.321   0.998  15.700 -1.5764 -2.2939 -0.4091
 1201TIP3    H225019   1.274   1.120  15.625  1.6992 -0.3304  0.5582
 1202TIP3   OH225020   2.105   0.023  15.303 -0.4299  0.0110  0.0624
 1202TIP3    H125021   2.155  -0.054  15.330 -1.2484 -0.7489 -0.5429
 1202TIP3    H225022   2.057   0.049  15.381 -0.6259 -0.4732  0.1057
 1203TIP3   OH225023   6.665   2.919   1.461 -0.1131 -0.2053 -0.3057
 1203TIP3    H125024   6.613   2.839   1.454 -0.4435  0.0926 -1.3207
 1203TIP3    H225025   6.716   2.907   1.542  2.6712 -3.1605 -2.2287
 1204TIP3   OH225026   2.897   0.995  14.064  0.3862 -0.0406 -0.1436
 1204TIP3    H125027   2.847   0.928  14.018 -0.7343  0.9363 -0.3867
 1204TIP3    H225028   2.859   1.078  14.035  0.8454  0.6617  1.1672
 1205TIP3   OH225029   1.765   2.302   6.007 -0.1359  0.1113 -0.3062
 1205TIP3    H125030   1.684   2.284   5.959 -0.9419  0.6538  0.8071
 1205TIP3    H225031   1.822   2.227   5.986 -2.6039 -2.8515  2.5174
 1206TIP3   OH225032   4.376   4.864   5.453 -0.3850 -0.1756  0.0425
 1206TIP3    H125033   4.416   4.884   5.369 -1.1629  1.5304  0.0397
 1206TIP3    H225034   4.445   4.880   5.517  0.5387 -2.4864 -0.2737
 1207TIP3   OH225035   1.487   4.695   3.238 -0.3085  0.1448  0.7838
 1207TIP3    H125036   1.449   4.607   3.233 -1.4821  0.6435  0.5261
 1207TIP3    H225037   1.411   4.752   3.251  0.2816  1.2669 -0.5050
 1208TIP3   OH225038   4.760   6.524  11.516 -0.1035 -0.0012  0.5421
 1208TIP3    H125039   4.728   6.521  11.426 -0.5216  0.6392  0.6608
 1208TIP3    H225040   4.682   6.509  11.570 -0.2671  1.7341  0.8414
 1209TIP3   OH225041   1.993   3.099  16.842  0.2448 -0.1253 -0.2219
 1209TIP3    H125042   2.006   3.139  16.928  0.4894 -0.5725 -0.0445
 1209TIP3    H225043   2.072   3.121  16.793  0.6346 -0.8449  0.0626
 1210TIP3   OH225044   5.379   2.562   6.264  0.3137  0.3547 -0.3281
 1210TIP3    H125045   5.298   2.531   6.306  0.6354 -0.3266 -0.1961
 1210TIP3    H225046   5.365   2.545   6.171 -0.9265  3.0369 -0.7251
 1211TIP3   OH225047   2.044   4.768   0.404  0.0131  0.2234 -0.2015
 1211TIP3    H125048   1.991   4.735   0.331  0.9310 -0.6303 -0.5024
 1211TIP3    H225049   1.989   4.753   0.481 -0.5515  0.1897 -0.6030
 1212TIP3   OH225050   6.080   3.733   4.733 -0.7696  0.0630 -0.4276
 1212TIP3    H125051   6.080   3.826   4.756 -0.8421 -0.4311  1.7963
 1212TIP3    H225052   5.989   3.706   4.743 -0.4869 -0.5797  0.5375
 1213TIP3   OH225053   4.089   1.197  17.024 -0.2641 -0.3883  0.0291
 1213TIP3    H125054   4.116   1.262  16.959 -2.1742  1.1354  0.6569
 1213TIP3    H225055   4.134   1.222  17.104 -0.4472 -0.2838  0.0989
 1214TIP3   OH225056   5.306   6.611  13.246  0.2963 -0.1796 -0.2220
 1214TIP3    H125057   5.341   6.699  13.229 -1.9085  0.8747  0.3113
 1214TIP3    H225058   5.233   6.625  13.306 -1.5237 -2.0939 -1.8010
 1215TIP3   OH225059   6.371   0.186  16.328 -0.6876 -0.3369  0.0602
 1215TIP3    H125060   6.366   0.282  16.324  1.9656 -0.0491  1.2814
 1215TIP3    H225061   6.289   0.159  16.368 -1.2040  1.4989  0.3224
 1216TIP3   OH225062   6.556   2.153   3.177 -0.8188  1.2018 -0.2063
 1216TIP3    H125063   6.476   2.150   3.125 -1.3501  0.0545  0.6517
 1216TIP3    H225064   6.527   2.166   3.267 -0.4929 -3.6693  0.8819
 1217TIP3   OH225065   3.004   5.549  16.902 -0.0398 -0.5885 -0.2382
 1217TIP3    H125066   2.958   5.629  16.928  1.4804  0.3474 -0.3144
 1217TIP3    H225067   2.972   5.531  16.813 -1.6800 -1.0867  0.4145
 1218TIP3   OH225068   5.272   4.476  12.833  0.2648 -0.1206  0.0462
 1218TIP3    H125069   5.332   4.541  12.797 -0.5455  1.3218  1.1668
 1218TIP3    H225070   5.228   4.438  12.757 -0.7763  2.2158 -0.5974
 1219TIP3   OH225071   1.761   3.844   4.964  0.6408  0.3432 -0.2118
 1219TIP3    H125072   1.751   3.855   5.059  0.1590 -1.2033 -0.0521
 1219TIP3    H225073   1.679   3.876   4.927 -0.3708 -1.6720  0.1608
 1220TIP3   OH225074   0.161   4.521   5.352 -0.7523  0.0499  0.1128
 1220TIP3    H125075   0.150   4.491   5.261 -1.9083 -0.9508  0.5495
 1220TIP3    H225076   0.215   4.599   5.345 -0.5930 -0.1601 -1.4192
 1221TIP3   OH225077   4.609   1.745   5.230  0.5644  0.3707 -0.8992
 1221TIP3    H125078   4.692   1.790   5.246  1.5218 -1.4866 -0.3701
 1221TIP3    H225079   4.549   1.815   5.205  2.2908  1.7658 -1.3911
 1222TIP3   OH225080   2.817   4.344  15.349 -0.1486 -0.1225 -0.1145
 1222TIP3    H125081   2.791   4.275  15.288 -0.2585 -0.4335  0.2777
 1222TIP3    H225082   2.743   4.405  15.350  0.7983  1.1530 -2.0803
 1223TIP3   OH225083   5.712   4.520   4.329 -0.1028  0.2434 -0.1007
 1223TIP3    H125084   5.643   4.514   4.395 -0.5550  1.1766 -0.4746
 1223TIP3    H225085   5.784   4.565   4.374 -0.2724  0.5498 -0.1379
 1224TIP3   OH225086   3.240   4.403   4.181 -0.1632  0.0408 -0.2622
 1224TIP3    H125087   3.182   4.406   4.257 -1.1918 -0.2819 -1.0296
 1224TIP3    H225088   3.205   4.333   4.126  0.1740  0.7067 -1.3538
 1225TIP3   OH225089   1.367   6.558   4.810  0.7636  0.1932  0.1949
 1225TIP3    H125090   1.271   6.556   4.801  0.7453  0.0068  0.4136
 1225TIP3    H225091   1.399   6.541   4.722  0.5887 -1.4893  0.4208
 1226TIP3   OH225092   2.610   1.233   2.306  0.0256  0.6476 -0.2130
 1226TIP3    H125093   2.600   1.199   2.217  0.1536  2.2468 -0.8906
 1226TIP3    H225094   2.669   1.308   2.295  1.1448  0.0515  1.4437
 1227TIP3   OH225095   5.316   0.183   4.794 -0.0905 -0.4115 -0.2319
 1227TIP3    H125096   5.298   0.277   4.797 -2.6887 -0.8222  0.0766
 1227TIP3    H225097   5.294   0.158   4.704 -2.0002 -1.0775  0.3643
 1228TIP3   OH225098   6.775   4.688  13.182 -0.3829  0.2128  0.3288
 1228TIP3    H125099   6.794   4.745  13.108  0.8972 -0.1236  0.3825
 1228TIP3    H225100   6.726   4.743  13.243  1.3446  1.4744  0.6450
 1229TIP3   OH225101   3.887   0.166   2.394  0.7682 -0.0227 -0.2852
 1229TIP3    H125102   3.810   0.125   2.434  1.3447 -0.8621 -0.0069
 1229TIP3    H225103   3.854   0.202   2.312  0.0570 -0.2720 -0.1225
 1230TIP3   OH225104   4.361   3.127  11.296  0.0269  0.6739  0.3350
 1230TIP3    H125105   4.353   3.219  11.322  1.8577  0.5699  1.3936
 1230TIP3    H225106   4.454   3.114  11.279 -0.2958 -0.8314 -0.4776
 1231TIP3   OH225107   3.777   3.599   1.439  0.1991  0.6911 -0.2718
 1231TIP3    H125108   3.729   3.681   1.442  0.1489  0.6363  0.6102
 1231TIP3    H225109   3.712   3.531   1.457  0.3599  0.5138 -0.3453
 1232TIP3   OH225110   0.314   1.775  13.170 -1.1211 -0.1579 -0.2152
 1232TIP3    H125111   0.278   1.726  13.096 -0.3367  0.1803 -0.8382
 1232TIP3    H225112   0.402   1.740  13.181 -0.8754  0.4836 -0.0876
 1233TIP3   OH225113   3.209   1.210   6.126  0.8309  0.0865 -0.1693
 1233TIP3    H125114   3.294   1.245   6.152  0.1076  1.3089  0.6823
 1233TIP3    H225115   3.172   1.174   6.206 -0.0156  0.8059 -0.2261
 1234TIP3   OH225116   3.083   3.801  16.306 -0.1497 -0.1056  0.4160
 1234TIP3    H125117   3.138   3.797  16.384 -1.3853  0.7601  1.3572
 1234TIP3    H225118   3.129   3.862  16.248  1.3938 -1.6657 -0.0893
 1235TIP3   OH225119   6.638   1.366   1.218  0.3078 -0.3216  0.8712
 1235TIP3    H125120   6.648   1.285   1.269 -0.9879 -0.4313  0.9847
 1235TIP3    H225121   6.595   1.427   1.277 -1.9808 -0.7132 -0.2723
 1236TIP3   OH225122   0.365   5.344   4.592 -0.7918  0.3218  0.8763
 1236TIP3    H125123   0.344   5.253   4.614  0.7178  0.4340  3.0908
 1236TIP3    H225124   0.288   5.376   4.544 -1.5534 -1.9516  0.4924
 1237TIP3   OH225125   2.902   2.368   1.271  0.2407 -0.2082  0.0493
 1237TIP3    H125126   2.974   2.305   1.263  0.1497 -0.1820 -1.1260
 1237TIP3    H225127   2.945   2.454   1.273  0.2876 -0.2360  0.2946
 1238TIP3   OH225128   4.269   0.247  11.038 -0.1757 -0.5601  0.2396
 1238TIP3    H125129   4.293   0.225  10.948  0.9197  1.0845  0.0709
 1238TIP3    H225130   4.349   0.286  11.075 -1.2638  0.8739  1.1845
 1239TIP3   OH225131   5.089   4.796   4.613 -0.3263  0.4181 -0.0882
 1239TIP3    H125132   5.063   4.842   4.692 -0.2618  1.5464 -0.7034
 1239TIP3    H225133   5.007   4.765   4.574 -0.2882 -1.0883  0.9511
 1240TIP3   OH225134   1.321   2.331  14.167  0.0142  0.0167  0.1299
 1240TIP3    H125135   1.245   2.286  14.130 -2.6533  2.4590  2.0880
 1240TIP3    H225136   1.346   2.279  14.243  0.7128 -1.1002 -0.8443
 1241TIP3   OH225137   2.229   6.104   1.265  0.0644  0.2335  0.1601
 1241TIP3    H125138   2.315   6.089   1.305 -0.0887  1.3962  0.9769
 1241TIP3    H225139   2.167   6.064   1.327 -0.0370  0.0886 -0.0345
 1242TIP3   OH225140   6.690   3.663   4.828  1.0829  0.3587 -0.0177
 1242TIP3    H125141   6.781   3.656   4.798  1.5713 -2.2336  1.7046
 1242TIP3    H225142   6.685   3.604   4.904 -2.1154  0.1469 -0.2493
 1243TIP3   OH225143   5.930   4.750   0.180 -0.4442 -0.2613  0.6964
 1243TIP3    H125144   5.847   4.749   0.228 -0.0194  0.4370  1.4874
 1243TIP3    H225145   5.987   4.805   0.234  1.0430 -2.0510  1.0185
 1244TIP3   OH225146   4.300   5.911   0.142  0.1242  0.3848  0.1171
 1244TIP3    H125147   4.373   5.957   0.100  0.1004  0.1784 -0.1538
 1244TIP3    H225148   4.317   5.818   0.125  0.8056  0.1889  1.6631
 1245TIP3   OH225149   0.120   3.832   1.291 -0.3483  0.2289 -0.8593
 1245TIP3    H125150   0.041   3.866   1.331 -1.4310  1.0521 -3.4812
 1245TIP3    H225151   0.182   3.821   1.364 -1.9928  2.0058  0.9033
 1246TIP3   OH225152   3.056   6.688  11.505  0.5481 -0.4622 -0.2538
 1246TIP3    H125153   3.057   6.775  11.464  3.2675 -0.3620 -0.1577
 1246TIP3    H225154   3.030   6.629  11.434  0.0775  0.2665 -0.7041
 1247TIP3   OH225155   5.606   4.533   1.681  0.2103  0.9916  0.4432
 1247TIP3    H125156   5.587   4.484   1.761 -0.7207  0.0978 -0.2982
 1247TIP3    H225157   5.625   4.622   1.711  2.0227  0.2134  1.8311
 1248TIP3   OH225158   0.507   1.298   0.202 -0.3411  0.0856  0.6932
 1248TIP3    H125159   0.519   1.365   0.134  1.4986 -1.9254 -1.1273
 1248TIP3    H225160   0.413   1.282   0.202 -0.7037  1.9191  0.4714
 1249TIP3   OH225161   0.654   1.710  15.107  0.1498  0.0319  0.9435
 1249TIP3    H125162   0.601   1.655  15.049 -0.0377  0.5177  0.6460
 1249TIP3    H225163   0.742   1.703  15.072 -0.2451  1.7548 -0.5516
 1250TIP3   OH225164   2.356   4.679  12.401  0.2459  0.4700 -0.0828
 1250TIP3    H125165   2.439   4.717  12.431  0.7109 -0.2108 -0.4789
 1250TIP3    H225166   2.342   4.604  12.459  0.0106  0.4607 -0.1504
 1251TIP3   OH225167   1.631   1.540   1.589  0.3714 -0.0359 -0.1661
 1251TIP3    H125168   1.704   1.599   1.606 -0.3431  0.0602  3.2842
 1251TIP3    H225169   1.556   1.598   1.574  0.3417 -0.1073 -0.2977
 1252TIP3   OH225170   0.246   1.754   3.141  0.0960 -0.4454  0.0069
 1252TIP3    H125171   0.226   1.831   3.193 -0.0854 -0.4161 -0.1029
 1252TIP3    H225172   0.300   1.699   3.197  0.2768 -0.2098  0.0626
 1253TIP3   OH225173   4.963   1.589  16.667 -0.4234 -0.5071 -0.2847
 1253TIP3    H125174   4.882   1.555  16.705  0.6482 -0.1507  2.5598
 1253TIP3    H225175   5.030   1.526  16.693  0.5044  0.1409 -1.0407
 1254TIP3   OH225176   0.796   2.515  10.324  0.1124  0.9501 -0.2400
 1254TIP3    H125177   0.853   2.542  10.395  1.6335 -0.8806 -0.7105
 1254TIP3    H225178   0.853   2.507  10.248 -1.0922  0.7928 -1.1710
 1255TIP3   OH225179   6.704   5.485  15.506 -0.6106  0.0475 -0.6161
 1255TIP3    H125180   6.622   5.534  15.511 -0.2928  0.6553 -1.2108
 1255TIP3    H225181   6.766   5.537  15.558 -0.3055  0.2094 -1.1354
 1256TIP3   OH225182   1.358   4.778   2.318 -0.2074  0.1357 -0.1205
 1256TIP3    H125183   1.274   4.766   2.362 -0.6099  0.1116 -0.8888
 1256TIP3    H225184   1.349   4.733   2.235  0.9642 -0.8526  0.2560
 1257TIP3   OH225185   0.690   6.721   6.007 -0.2192 -0.2850 -0.4355
 1257TIP3    H125186   0.702   6.685   6.095 -0.1968  0.2212 -0.2241
 1257TIP3    H225187   0.727   6.810   6.012  0.7019 -0.6010 -1.2319
 1258TIP3   OH225188   0.676   3.612   3.598  0.1493  0.8276  0.3017
 1258TIP3    H125189   0.627   3.662   3.532 -1.3138  2.0988  2.2543
 1258TIP3    H225190   0.615   3.545   3.627  1.2666 -0.6094 -0.5688
 1259TIP3   OH225191   0.560   1.450   1.221  0.2045  0.1207  0.0207
 1259TIP3    H125192   0.627   1.457   1.153  0.2886 -1.2050 -0.0527
 1259TIP3    H225193   0.515   1.534   1.219 -0.2181 -0.1164 -2.1248
 1260TIP3   OH225194   0.717   3.517   1.183  0.0626  0.3674  0.2439
 1260TIP3    H125195   0.645   3.568   1.220 -0.6442  0.1775 -0.8310
 1260TIP3    H225196   0.714   3.536   1.089  3.1530  2.5487  0.4203
 1261TIP3   OH225197   0.832   0.594  12.316 -0.6900  0.3772 -0.4058
 1261TIP3    H125198   0.870   0.526  12.260 -0.6532 -2.1742  2.4048
 1261TIP3    H225199   0.907   0.631  12.363 -0.9440  0.5886 -0.1650
 1262TIP3   OH225200   4.891   5.017   4.592 -0.0515 -0.0550  0.0474
 1262TIP3    H125201   4.868   4.934   4.550 -0.5216  0.4932 -0.8149
 1262TIP3    H225202   4.854   5.084   4.534  0.9220  0.7796  0.3593
 1263TIP3   OH225203   4.938   0.054   0.561  0.0757  0.4889  0.4723
 1263TIP3    H125204   4.925  -0.040   0.547 -0.6529  0.4168  1.5200
 1263TIP3    H225205   4.951   0.063   0.656 -2.8051  1.7333  0.8605
 1264TIP3   OH225206   5.695   0.661  14.360 -0.1099 -0.4681 -0.3366
 1264TIP3    H125207   5.603   0.651  14.338 -0.3616 -2.1616  1.1541
 1264TIP3    H225208   5.719   0.748  14.329 -1.7422 -0.6252 -2.2422
 1265TIP3   OH225209   3.698   1.557   2.978  0.3078  0.4014  0.2545
 1265TIP3    H125210   3.724   1.477   2.931  0.4077 -0.4999  1.7843
 1265TIP3    H225211   3.671   1.617   2.909  1.1237 -0.6170 -1.0091
 1266TIP3   OH225212   1.592   1.096  15.921 -0.1533  0.3923 -0.2629
 1266TIP3    H125213   1.534   1.019  15.924 -0.0496  0.2908 -0.7351
 1266TIP3    H225214   1.536   1.168  15.948  0.0596 -0.0208  1.3562
 1267TIP3   OH225215   3.873   3.253   0.339 -0.1945 -0.5283  0.2761
 1267TIP3    H125216   3.825   3.253   0.421 -0.5856 -1.3646  0.0561
 1267TIP3    H225217   3.870   3.162   0.308  2.3790 -0.8689  0.7514
 1268TIP3   OH225218   6.597   6.371  13.737  0.0949 -0.3866 -0.0308
 1268TIP3    H125219   6.682   6.328  13.729  0.9543  1.1369  0.4012
 1268TIP3    H225220   6.573   6.393  13.647  0.9182  0.5179 -0.0487
 1269TIP3   OH225221   5.158   5.243   1.303  0.2662 -0.3057  0.5733
 1269TIP3    H125222   5.207   5.325   1.304 -0.2920  0.0392  0.4533
 1269TIP3    H225223   5.085   5.258   1.364 -0.3740 -0.3670 -0.1607
 1270TIP3   OH225224   1.592   3.806   5.948  0.0209 -0.3721 -0.0348
 1270TIP3    H125225   1.686   3.818   5.965 -0.1068  1.1265 -0.2394
 1270TIP3    H225226   1.556   3.779   6.033  0.3654  0.9346  0.5601
 1271TIP3   OH225227   0.250   0.628   3.965 -0.4225  0.0237 -0.4835
 1271TIP3    H125228   0.309   0.628   4.041 -1.4751  1.1396  0.3707
 1271TIP3    H225229   0.186   0.559   3.984  0.3404 -0.9141 -1.2218
 1272TIP3   OH225230   6.544   1.220   4.344  0.3249 -0.1817  0.6454
 1272TIP3    H125231   6.633   1.186   4.345  0.1303 -0.6844  0.8879
 1272TIP3    H225232   6.544   1.287   4.412  0.0917 -1.2923  1.7719
 1273TIP3   OH225233   3.948   3.096   3.134 -0.0019 -0.4861 -0.1915
 1273TIP3    H125234   3.902   3.013   3.145  1.1172 -1.0626  0.2181
 1273TIP3    H225235   3.974   3.122   3.222 -0.0967  0.1692 -0.3455
 1274TIP3   OH225236   6.191   1.566   1.617 -0.0030 -0.0976 -0.0922
 1274TIP3    H125237   6.167   1.492   1.673 -0.3525  0.0217 -0.0810
 1274TIP3    H225238   6.209   1.527   1.531  2.5463 -0.5549  0.5770
 1275TIP3   OH225239   4.071   3.538   0.628  0.6241 -0.1863 -0.0263
 1275TIP3    H125240   4.042   3.572   0.543 -0.9478 -1.2347  0.0596
 1275TIP3    H225241   4.091   3.446   0.612  2.0764  0.0208  0.3819
 1276TIP3   OH225242   4.473   2.861   0.668 -0.4961 -0.6582  0.8668
 1276TIP3    H125243   4.414   2.929   0.701  3.0729  3.1285  0.2332
 1276TIP3    H225244   4.536   2.848   0.738  2.1348  1.0518 -1.0059
 1277TIP3   OH225245   2.349   4.586   5.502 -0.0782 -0.1760  0.0557
 1277TIP3    H125246   2.335   4.598   5.408  0.1864 -1.7045 -0.2036
 1277TIP3    H225247   2.265   4.610   5.541 -0.6775 -0.9505 -0.7131
 1278TIP3   OH225248   3.925   5.880  14.879  0.4567 -0.3411  0.5780
 1278TIP3    H125249   3.855   5.932  14.839  1.4139  1.1353  0.7314
 1278TIP3    H225250   3.970   5.839  14.805 -0.1979 -0.8318  0.4422
 1279TIP3   OH225251   2.338   5.704   0.954 -0.3547  0.7494  0.8055
 1279TIP3    H125252   2.245   5.720   0.943 -0.4325  0.5706  1.2057
 1279TIP3    H225253   2.353   5.708   1.048  0.3047  2.2132  0.6672
 1280TIP3   OH225254   1.951   2.663  15.357 -0.0376  0.0708  0.1328
 1280TIP3    H125255   1.963   2.758  15.362 -1.5952  0.2577  0.5604
 1280TIP3    H225256   2.037   2.630  15.329  0.7804  1.5150  0.8489
 1281TIP3   OH225257   3.041   0.266   2.517 -0.0697 -0.3134  0.1054
 1281TIP3    H125258   3.055   0.349   2.470 -0.0781 -0.9771 -1.0981
 1281TIP3    H225259   3.011   0.205   2.450  3.5629 -2.3688  0.0801
 1282TIP3   OH225260   6.285   5.947  13.128 -0.3714 -0.1519  0.5904
 1282TIP3    H125261   6.303   5.961  13.035  0.2820 -2.2780  0.3254
 1282TIP3    H225262   6.372   5.935  13.167 -0.4999  2.5095  1.8791
 1283TIP3   OH225263   5.226   0.179  12.687  0.2007 -0.4777  0.1762
 1283TIP3    H125264   5.305   0.174  12.635  0.1652  0.2182  0.0488
 1283TIP3    H225265   5.221   0.095  12.733  0.2599 -1.0698 -0.8872
 1284TIP3   OH225266   3.749   3.713  16.734  0.2593 -0.1315 -0.1639
 1284TIP3    H125267   3.797   3.764  16.799  1.9855 -1.6032 -0.2033
 1284TIP3    H225268   3.772   3.622  16.753 -1.1319 -0.7741 -1.3351
 1285TIP3   OH225269   2.211   6.728  16.711 -0.2329  0.3428  0.3856
 1285TIP3    H125270   2.223   6.664  16.641  2.6314  1.3739 -0.2123
 1285TIP3    H225271   2.123   6.763  16.697 -0.9012 -1.6624 -0.7676
 1286TIP3   OH225272   0.220   3.585   3.938  0.8116  0.3318  0.3184
 1286TIP3    H125273   0.219   3.598   4.033 -1.1450 -0.6923  0.4903
 1286TIP3    H225274   0.139   3.537   3.919  1.9854 -1.0199 -1.6677
 1287TIP3   OH225275   4.722   5.647  13.800 -0.0500  0.0835 -0.3939
 1287TIP3    H125276   4.657   5.634  13.869  0.8618 -0.3503  0.4074
 1287TIP3    H225277   4.736   5.559  13.764 -0.7359  0.3485 -1.3605
 1288TIP3   OH225278   6.444   0.370   6.230  0.5265 -0.6802  0.1417
 1288TIP3    H125279   6.513   0.427   6.264  1.6938 -1.8339 -0.2229
 1288TIP3    H225280   6.377   0.371   6.298  1.1217  0.0592  0.7415
 1289TIP3   OH225281   2.684   2.974   4.443  0.0023 -0.0337  0.1468
 1289TIP3    H125282   2.694   3.045   4.507  1.3291  0.4232 -0.5154
 1289TIP3    H225283   2.753   2.991   4.379 -0.1798 -1.4741 -0.4592
 1290TIP3   OH225284   5.548   5.584  15.631 -0.5230  0.2561  0.0482
 1290TIP3    H125285   5.601   5.651  15.674  0.6487  0.6620 -1.9180
 1290TIP3    H225286   5.594   5.565  15.550 -3.0474  0.1421 -1.4702
 1291TIP3   OH225287   4.903   5.960  14.251  0.1673 -0.8021  0.0318
 1291TIP3    H125288   4.827   5.993  14.203  0.8618  1.7534  0.5400
 1291TIP3    H225289   4.907   5.867  14.227 -0.7305 -0.1621 -3.2087
 1292TIP3   OH225290   5.695   2.040   4.009 -0.7091 -0.5171  0.4628
 1292TIP3    H125291   5.790   2.043   4.000 -0.6009  0.9199  1.6777
 1292TIP3    H225292   5.681   2.024   4.103 -1.6480  0.6799  0.5476
 1293TIP3   OH225293   2.657   1.461  11.098 -0.1561  1.0386  0.4909
 1293TIP3    H125294   2.579   1.440  11.149  0.3466 -1.7224  0.2857
 1293TIP3    H225295   2.623   1.486  11.012 -0.8551  1.0209  0.7561
 1294TIP3   OH225296   6.190   5.915   4.446 -0.1579 -0.5466  0.5579
 1294TIP3    H125297   6.110   5.912   4.497 -0.0550  0.8075  0.8466
 1294TIP3    H225298   6.162   5.946   4.360 -0.1392 -1.4770  0.2135
 1295TIP3   OH225299   0.062   1.539   3.963 -0.2253  1.0476 -0.0610
 1295TIP3    H125300   0.149   1.525   3.926 -1.1641 -0.3296 -1.8869
 1295TIP3    H225301   0.069   1.508   4.054  1.2075  1.1077 -0.1389
 1296TIP3   OH225302   0.540   5.407  13.388 -0.9125 -0.4685  0.0402
 1296TIP3    H125303   0.455   5.445  13.367 -1.1735 -1.3187 -0.5269
 1296TIP3    H225304   0.577   5.464  13.455 -2.2025 -0.4317  0.7417
 1297TIP3   OH225305   1.560   3.226   4.736  0.2021  0.4703 -0.3430
 1297TIP3    H125306   1.495   3.163   4.705  0.4119 -0.4027  0.9014
 1297TIP3    H225307   1.510   3.289   4.788  0.2575  0.1753  0.0708
 1298TIP3   OH225308   5.920   0.037  14.380  0.1522  0.1952  0.5404
 1298TIP3    H125309   5.842  -0.017  14.365  1.4173 -1.5827  0.0270
 1298TIP3    H225310   5.887   0.127  14.380 -1.7463 -0.4283 -0.7465
 1299TIP3   OH225311   2.831   6.206   3.438 -0.3103 -0.4612  0.8776
 1299TIP3    H125312   2.891   6.219   3.364 -0.2361  0.5639  1.1003
 1299TIP3    H225313   2.867   6.132   3.486 -1.5292 -2.6184 -1.2783
 1300TIP3   OH225314   3.016   2.819   0.119  0.8775 -0.0597  0.1476
 1300TIP3    H125315   3.041   2.888   0.058  0.6164  0.0452  0.1614
 1300TIP3    H225316   2.922   2.829   0.130  0.8822 -0.2481  0.3597
 1301TIP3   OH225317   4.661   3.689  12.115  0.4441 -0.0160  0.4503
 1301TIP3    H125318   4.608   3.765  12.092 -1.0929 -1.2906 -0.4648
 1301TIP3    H225319   4.700   3.661  12.032  3.3137  1.3354  1.2043
 1302TIP3   OH225320   4.505   4.978   5.236  0.7242  0.3719 -0.1711
 1302TIP3    H125321   4.463   4.970   5.150  1.7084  2.4546 -0.9240
 1302TIP3    H225322   4.559   4.899   5.244  0.9914  0.3707 -1.7037
 1303TIP3   OH225323   1.358   0.060  12.881  0.7143 -0.1110  0.5928
 1303TIP3    H125324   1.382   0.122  12.813 -2.1641  0.0323 -0.4511
 1303TIP3    H225325   1.288   0.103  12.930  1.0854 -1.1591  2.1339
 1304TIP3   OH225326   5.772   5.121   6.378  0.6360 -0.3495  0.3273
 1304TIP3    H125327   5.717   5.160   6.310 -0.1418 -2.3585 -0.2715
 1304TIP3    H225328   5.745   5.163   6.459  1.5737  2.0908 -0.5501
 1305TIP3   OH225329   0.484   6.376  15.864 -0.3794 -0.7224 -0.2998
 1305TIP3    H125330   0.556   6.436  15.844  0.5533 -2.4139 -2.5137
 1305TIP3    H225331   0.520   6.318  15.931 -0.7447  0.1885  0.7130
 1306TIP3   OH225332   4.346   1.123   5.271  0.2579 -0.3852  0.6092
 1306TIP3    H125333   4.311   1.103   5.184  0.1162 -2.4377  1.0728
 1306TIP3    H225334   4.270   1.120   5.329  0.5253 -0.1942  0.9722
 1307TIP3   OH225335   1.433   4.507  15.079 -0.1980  0.1623 -0.0460
 1307TIP3    H125336   1.471   4.421  15.100  1.5393  1.2906  1.8278
 1307TIP3    H225337   1.456   4.521  14.987 -0.7013 -1.4508 -0.4462
 1308TIP3   OH225338   6.800   1.300   1.980 -0.2500  0.6402 -0.7507
 1308TIP3    H125339   6.755   1.385   1.981 -0.5132  0.4999  0.0859
 1308TIP3    H225340   6.888   1.319   2.012 -0.2951  0.6032 -0.6053
 1309TIP3   OH225341   3.568   3.115  15.954 -0.1017  0.3916 -0.3345
 1309TIP3    H125342   3.575   3.137  16.047 -1.0757 -0.5186 -0.0181
 1309TIP3    H225343   3.546   3.198  15.912  1.5645  1.0646  0.0583
 1310TIP3   OH225344   3.157   4.401   2.574 -0.4351 -0.1973  0.2556
 1310TIP3    H125345   3.065   4.389   2.600 -0.2643  0.1214  1.0401
 1310TIP3    H225346   3.182   4.316   2.537 -1.1839 -0.1379 -0.4131
 1311TIP3   OH225347   3.902   5.042   4.623  0.4391  0.2112  0.4466
 1311TIP3    H125348   3.861   4.960   4.651 -2.4923  1.4074  0.0222
 1311TIP3    H225349   3.970   5.015   4.560 -0.3785 -1.8778  0.3919
 1312TIP3   OH225350   3.908   6.134  15.961  0.0349  0.3915 -0.5476
 1312TIP3    H125351   3.851   6.092  15.897  0.2994 -2.2108  0.7586
 1312TIP3    H225352   3.849   6.167  16.028 -0.0889 -0.6209 -0.1307
 1313TIP3   OH225353   0.570   5.978  14.306 -0.0236 -0.3181  0.3462
 1313TIP3    H125354   0.565   6.064  14.348  0.7641 -0.1127  0.0438
 1313TIP3    H225355   0.630   5.991  14.233  0.0343 -1.1111  0.2461
 1314TIP3   OH225356   6.604   2.873   5.606  0.4484  0.0776 -0.0213
 1314TIP3    H125357   6.647   2.940   5.659  2.1952 -0.8273 -0.1985
 1314TIP3    H225358   6.514   2.870   5.639  1.1554  0.3400  2.1233
 1315TIP3   OH225359   1.363   0.051   0.345 -0.3033  0.6785  0.0315
 1315TIP3    H125360   1.345  -0.025   0.400 -0.1322  0.5225 -0.1243
 1315TIP3    H225361   1.402   0.116   0.404  1.2257 -0.0121 -0.1719
 1316TIP3   OH225362   1.459   6.268   1.327  0.5675  0.3557  0.0151
 1316TIP3    H125363   1.440   6.230   1.241  0.3075  1.3430 -0.3787
 1316TIP3    H225364   1.397   6.340   1.335  0.9383  0.5955  0.8124
 1317TIP3   OH225365   1.830   6.353   3.240  0.6795 -0.2943 -1.0117
 1317TIP3    H125366   1.901   6.330   3.181  1.2451 -0.1923 -0.3808
 1317TIP3    H225367   1.873   6.378   3.322 -0.0558  0.2816 -0.7854
 1318TIP3   OH225368   5.514   0.611  13.738  0.2255  0.0746 -0.4306
 1318TIP3    H125369   5.525   0.682  13.802  0.7680  0.4516 -0.9322
 1318TIP3    H225370   5.487   0.536  13.791 -0.8354  0.7643  0.0592
 1319TIP3   OH225371   0.308   3.568   1.661  0.0295 -0.2427  0.8069
 1319TIP3    H125372   0.329   3.560   1.568 -0.3344  0.2046  0.6810
 1319TIP3    H225373   0.242   3.637   1.665 -0.4707 -0.7405  1.3223
 1320TIP3   OH225374   4.875   4.749  16.534  0.1104  0.5770 -0.3083
 1320TIP3    H125375   4.784   4.763  16.558  0.3937 -0.8760  1.8763
 1320TIP3    H225376   4.910   4.693  16.602  1.9889 -1.0760 -2.4574
 1321TIP3   OH225377   5.147   2.809   0.822 -0.2558 -0.0719  0.7788
 1321TIP3    H125378   5.221   2.754   0.848  1.1983  0.6791 -1.4160
 1321TIP3    H225379   5.140   2.876   0.890  1.2061 -0.0932  0.9726
 1322TIP3   OH225380   6.026   1.511   3.974 -0.3756 -0.6545 -0.1711
 1322TIP3    H125381   5.936   1.505   4.008 -0.6183 -2.4008 -1.0341
 1322TIP3    H225382   6.064   1.425   3.991  0.4097 -0.6554 -1.7470
 1323TIP3   OH225383   1.574   1.681   2.868 -0.1047  0.0193 -0.0147
 1323TIP3    H125384   1.544   1.769   2.892  0.2759  0.7173 -1.9485
 1323TIP3    H225385   1.504   1.646   2.813  0.6501 -0.0429 -0.9675
 1324TIP3   OH225386   3.279   1.780  10.634 -0.2434 -0.0255 -0.9048
 1324TIP3    H125387   3.199   1.827  10.610  0.0190  1.6000  1.0864
 1324TIP3    H225388   3.248   1.712  10.694 -0.1182  1.3207  0.7850
 1325TIP3   OH225389   2.859   6.188  13.829  0.0897 -0.1190  0.4789
 1325TIP3    H125390   2.860   6.093  13.831  1.9317 -0.1240  1.7414
 1325TIP3    H225391   2.948   6.214  13.854 -0.1668  1.9289 -0.4891
 1326TIP3   OH225392   2.623   1.036   2.522 -0.2179 -0.0741 -0.7222
 1326TIP3    H125393   2.646   1.087   2.444  1.2959 -1.3929 -1.1970
 1326TIP3    H225394   2.707   1.004   2.555 -0.9222 -0.3333  0.9142
 1327TIP3   OH225395   4.963   0.661   0.886 -0.1089  0.0449  0.2664
 1327TIP3    H125396   4.885   0.680   0.938 -1.2818 -0.7467 -1.1222
 1327TIP3    H225397   4.988   0.572   0.911  0.9095  0.6008  1.3369
 1328TIP3   OH225398   4.561   5.173  11.170  0.1892 -0.0939 -0.2139
 1328TIP3    H125399   4.527   5.111  11.106 -0.1496 -0.0490 -0.0815
 1328TIP3    H225400   4.497   5.170  11.242 -0.0890  0.7678 -0.4181
 1329TIP3   OH225401   5.128   1.411  16.483  0.2291  0.1877 -0.0589
 1329TIP3    H125402   5.116   1.407  16.388 -0.3383 -1.7281  0.0597
 1329TIP3    H225403   5.048   1.372  16.519  0.6590  0.4315  1.1904
 1330TIP3   OH225404   2.243   3.888  13.863 -0.6502 -0.5319 -0.3582
 1330TIP3    H125405   2.338   3.890  13.875 -0.6746 -1.1307 -0.0718
 1330TIP3    H225406   2.230   3.838  13.783 -0.6911  0.1749 -0.7996
 1331TIP3   OH225407   5.519   3.289   5.313 -0.3539  0.4170  0.1907
 1331TIP3    H125408   5.593   3.350   5.318 -1.5053  1.9739 -0.7799
 1331TIP3    H225409   5.524   3.252   5.225 -0.2893 -0.0748  0.3980
 1332TIP3   OH225410   1.295   3.918  12.595 -0.4978 -0.3779  0.0293
 1332TIP3    H125411   1.265   3.829  12.612  0.2678 -0.8227 -0.8016
 1332TIP3    H225412   1.387   3.907  12.568 -0.7039  0.5509 -1.1199
 1333TIP3   OH225413   0.499   3.691  16.502 -0.0924 -0.5109  0.6223
 1333TIP3    H125414   0.534   3.772  16.538  0.7015 -1.0114  1.0107
 1333TIP3    H225415   0.434   3.719  16.438  1.4376  0.4485 -0.5549
 1334TIP3   OH225416   6.630   4.341   5.212 -0.5819  0.5952  0.0307
 1334TIP3    H125417   6.710   4.356   5.163  0.7795  0.4976  2.0760
 1334TIP3    H225418   6.609   4.249   5.195 -0.7097  0.8192 -1.1003
 1335TIP3   OH225419   5.678   5.939   2.370 -0.2016  0.0267 -0.2109
 1335TIP3    H125420   5.658   6.031   2.387 -0.9920 -0.2255  0.2828
 1335TIP3    H225421   5.749   5.941   2.306 -1.0565  0.9820 -1.1631
 1336TIP3   OH225422   0.776   5.648  11.000  0.1910 -0.0491 -0.4881
 1336TIP3    H125423   0.725   5.612  11.073  2.0108  0.7024  1.2362
 1336TIP3    H225424   0.731   5.730  10.978  0.3910  0.4104  0.7502
 1337TIP3   OH225425   6.712   4.834   2.381  0.1027 -0.1208 -0.4513
 1337TIP3    H125426   6.772   4.762   2.364  1.7461  1.0504  0.1792
 1337TIP3    H225427   6.736   4.901   2.317 -0.3748  0.4520 -0.0432
 1338TIP3   OH225428   3.498   0.739  11.458 -0.1415 -0.0861  0.2684
 1338TIP3    H125429   3.539   0.726  11.543  1.4195  0.5434 -0.3553
 1338TIP3    H225430   3.407   0.760  11.479  0.5918  1.8331  1.9062
 1339TIP3   OH225431   6.148   4.624  13.129 -0.0298  0.1411 -0.2351
 1339TIP3    H125432   6.068   4.587  13.092  0.1564 -0.5854  0.0645
 1339TIP3    H225433   6.138   4.718  13.119 -0.9824  0.0663 -0.0871
 1340TIP3   OH225434   1.737   2.995   1.159  0.0467  0.1597 -0.2580
 1340TIP3    H125435   1.782   3.079   1.147  0.7145  0.6479  4.0092
 1340TIP3    H225436   1.681   3.009   1.236 -1.0473 -2.8701 -0.3775
 1341TIP3   OH225437   6.219   3.553  13.511  0.0252  0.4038  0.1536
 1341TIP3    H125438   6.302   3.594  13.488 -0.4283  0.9568 -0.5172
 1341TIP3    H225439   6.171   3.548  13.429 -0.1372 -1.0283  0.3061
 1342TIP3   OH225440   3.803   0.354   5.633 -0.3872 -0.0920 -0.1859
 1342TIP3    H125441   3.819   0.315   5.719 -1.1094  0.1260  0.0584
 1342TIP3    H225442   3.828   0.286   5.570  1.6668  0.3173  0.1459
 1343TIP3   OH225443   1.262   3.007  12.087  0.0750  0.0052  0.2089
 1343TIP3    H125444   1.171   3.038  12.087 -0.9684 -2.6633  2.2791
 1343TIP3    H225445   1.255   2.912  12.088  3.0133 -0.3727 -2.0379
 1344TIP3   OH225446   6.504   3.866   5.309  0.0901 -0.2695  0.1481
 1344TIP3    H125447   6.498   3.771   5.320 -1.7207 -0.1646  0.3571
 1344TIP3    H225448   6.421   3.899   5.344  0.5340  1.3584 -0.2720
 1345TIP3   OH225449   2.320   1.544   5.178 -0.8329 -0.0813 -0.0790
 1345TIP3    H125450   2.330   1.638   5.192  0.4564 -0.4032  1.4742
 1345TIP3    H225451   2.330   1.533   5.084  1.5767  1.1149 -0.0553
 1346TIP3   OH225452   2.389   3.000   5.542  0.0590  0.2810 -0.3005
 1346TIP3    H125453   2.384   2.921   5.489 -2.6287 -1.2400  1.9336
 1346TIP3    H225454   2.483   3.014   5.555  0.6349 -2.2948 -1.1379
 1347TIP3   OH225455   4.701   3.266  16.058  0.0890  0.0424  0.7542
 1347TIP3    H125456   4.755   3.194  16.026  2.3932  0.2516  3.7251
 1347TIP3    H225457   4.624   3.225  16.095 -0.5986 -0.4904 -1.1631
 1348TIP3   OH225458   3.462   2.771   3.372  0.2043  0.5095 -0.7037
 1348TIP3    H125459   3.405   2.768   3.295 -0.1684  0.9381 -0.4472
 1348TIP3    H225460   3.524   2.699   3.359 -0.7253 -0.3144 -0.7297
 1349TIP3   OH225461   2.594   1.517  16.580 -0.1515 -0.4411 -0.5384
 1349TIP3    H125462   2.526   1.554  16.524  0.2576  1.0044 -0.1219
 1349TIP3    H225463   2.674   1.523  16.527  0.1154  0.3221 -0.0603
 1350TIP3   OH225464   4.351   0.181  14.609 -0.4952  0.0861  0.4214
 1350TIP3    H125465   4.272   0.225  14.641 -0.0677 -0.1460  1.8858
 1350TIP3    H225466   4.412   0.185  14.683  0.8922  0.2858 -0.6822
 1351TIP3   OH225467   4.699   2.668   1.970 -0.0025 -0.1816  0.1894
 1351TIP3    H125468   4.704   2.573   1.961 -0.9882 -0.4881  2.2060
 1351TIP3    H225469   4.616   2.692   1.929 -0.3591 -0.3956  0.7609
 1352TIP3   OH225470   4.461   3.058   4.400  0.6042 -0.0168 -0.1185
 1352TIP3    H125471   4.478   3.000   4.473 -1.2391  1.6340  1.7618
 1352TIP3    H225472   4.457   3.145   4.438  0.5109  1.0477 -2.3627
 1353TIP3   OH225473   6.464   4.584  16.450  0.5498  0.5051  0.1540
 1353TIP3    H125474   6.523   4.520  16.491  0.9328  1.3591  0.9712
 1353TIP3    H225475   6.382   4.575  16.498  0.9855  1.4750  1.1172
 1354TIP3   OH225476   3.376   4.287   4.943 -1.0848 -0.7012 -0.2463
 1354TIP3    H125477   3.304   4.238   4.981 -0.0406 -1.3270  1.0119
 1354TIP3    H225478   3.370   4.269   4.849 -2.4202 -0.8940 -0.1447
 1355TIP3   OH225479   5.678   6.330   5.450  0.1703 -0.3013 -0.0835
 1355TIP3    H125480   5.647   6.242   5.426  0.3303 -0.5302  0.5244
 1355TIP3    H225481   5.598   6.380   5.463 -0.0198 -1.0780  2.1625
 1356TIP3   OH225482   1.137   1.395   4.609  0.2662 -0.1458 -0.1132
 1356TIP3    H125483   1.144   1.489   4.596  0.7110 -0.1552  0.0392
 1356TIP3    H225484   1.104   1.384   4.698  2.2317 -0.1547  0.6566
 1357TIP3   OH225485   6.673   0.459  16.272  0.0837 -0.4039  0.5878
 1357TIP3    H125486   6.649   0.509  16.194 -0.4118 -1.5718 -0.0313
 1357TIP3    H225487   6.602   0.476  16.334 -0.9215 -1.5572 -0.1970
 1358TIP3   OH225488   4.094   4.574  14.250  0.1983  0.1126  0.6673
 1358TIP3    H125489   4.071   4.484  14.275 -1.6246  0.6295  1.0131
 1358TIP3    H225490   4.114   4.617  14.334 -1.0387  0.5671  0.7409
 1359TIP3   OH225491   1.754   2.945  10.859  0.1280 -0.4031 -0.5442
 1359TIP3    H125492   1.820   2.884  10.826  0.0964 -1.1931  0.8274
 1359TIP3    H225493   1.776   2.959  10.951 -0.7055  0.5486 -0.4625
 1360TIP3   OH225494   0.296   6.399  12.507 -0.0212 -0.7674  0.0134
 1360TIP3    H125495   0.294   6.493  12.524  3.6555 -0.4141 -0.6919
 1360TIP3    H225496   0.287   6.391  12.412  0.5293 -1.0704 -0.0151
 1361TIP3   OH225497   4.776   1.941  13.858 -0.0707  0.2703 -0.1311
 1361TIP3    H125498   4.790   1.862  13.806 -3.5648 -1.6798  1.5589
 1361TIP3    H225499   4.703   1.919  13.916 -0.5020  4.4250  1.2041
 1362TIP3   OH225500   6.081   2.686   0.949  0.1350 -0.7173 -0.5346
 1362TIP3    H125501   6.036   2.733   0.879  1.6449  0.2801 -0.8782
 1362TIP3    H225502   6.085   2.749   1.021  1.3783 -0.6001 -0.6841
 1363TIP3   OH225503   6.636   0.076  12.064  0.6627 -0.2850 -0.7593
 1363TIP3    H125504   6.658  -0.009  12.026 -1.9025 -1.7883  0.7838
 1363TIP3    H225505   6.641   0.137  11.990  2.1680 -1.8223 -2.0061
 1364TIP3   OH225506   2.920   2.947   0.928 -0.1462 -0.2268  0.9052
 1364TIP3    H125507   2.904   2.990   1.012 -3.4307  0.2126  0.1635
 1364TIP3    H225508   2.848   2.886   0.917  1.2410 -1.6881 -0.7672
 1365TIP3   OH225509   2.843   3.160  11.971 -0.0604  0.0586  0.1565
 1365TIP3    H125510   2.939   3.157  11.972  0.0074  0.0419 -2.0558
 1365TIP3    H225511   2.817   3.069  11.956 -0.2688  0.4663 -2.3041
 1366TIP3   OH225512   5.007   4.784   3.725  0.4955 -0.1422 -0.2422
 1366TIP3    H125513   5.080   4.845   3.724  1.2419 -0.8347  2.4070
 1366TIP3    H225514   5.048   4.697   3.732 -0.5042 -0.5301  1.5425
 1367TIP3   OH225515   3.026   1.059   2.792  1.0153 -0.1933 -0.5119
 1367TIP3    H125516   3.116   1.088   2.807  0.2791  1.1301  1.7392
 1367TIP3    H225517   2.997   1.025   2.876 -1.0345  0.6495 -0.8218
 1368TIP3   OH225518   1.439   3.806   6.475 -0.0582  0.0987  0.4852
 1368TIP3    H125519   1.478   3.789   6.561 -0.5470 -1.2606  0.4612
 1368TIP3    H225520   1.507   3.853   6.427  0.4953  0.2373  1.3682
 1369TIP3   OH225521   5.447   2.925   3.273 -0.3039 -0.0099  0.3751
 1369TIP3    H125522   5.526   2.898   3.227 -0.2354 -0.2153  0.6131
 1369TIP3    H225523   5.464   3.016   3.298  0.3489 -0.4238  1.4773
 1370TIP3   OH225524   3.094   1.897  11.086  0.1360  0.6703  0.7160
 1370TIP3    H125525   3.188   1.912  11.096  0.5360 -1.3829  0.3861
 1370TIP3    H225526   3.085   1.855  11.001 -0.9474 -0.0748  1.1750
 1371TIP3   OH225527   4.197   1.366   2.963  0.7553  0.3284  0.3186
 1371TIP3    H125528   4.268   1.333   3.017 -0.6745 -1.6509  1.1301
 1371TIP3    H225529   4.164   1.289   2.917  2.0048  1.9000 -3.6901
 1372TIP3   OH225530   2.982   4.674  14.961  0.3793  0.3372 -0.0773
 1372TIP3    H125531   3.018   4.762  14.973 -1.2521  1.2267 -1.2304
 1372TIP3    H225532   2.917   4.666  15.031  0.1713  0.2553 -0.2796
 1373TIP3   OH225533   0.674   6.351  16.521 -0.1321 -0.2780  0.5366
 1373TIP3    H125534   0.739   6.357  16.451 -1.1380  0.1447 -0.3952
 1373TIP3    H225535   0.690   6.428  16.575 -0.1548  0.0708  0.0507
 1374TIP3   OH225536   5.708   1.210  15.383  0.1644 -0.1526  0.4131
 1374TIP3    H125537   5.724   1.117  15.393  0.9778 -0.1642 -0.7906
 1374TIP3    H225538   5.613   1.218  15.374  0.1450 -0.9434 -0.1563
 1375TIP3   OH225539   1.831   5.812  16.649 -0.7134  0.4696  0.2678
 1375TIP3    H125540   1.889   5.737  16.662  0.4501  1.3835  0.5060
 1375TIP3    H225541   1.760   5.799  16.712 -1.3386 -1.1791 -0.7045
 1376TIP3   OH225542   0.779   1.280   1.434 -0.2297  0.6175  0.0846
 1376TIP3    H125543   0.870   1.297   1.462 -1.0641  1.8663  2.3570
 1376TIP3    H225544   0.771   1.326   1.351  2.8136 -4.4335 -3.5619
 1377TIP3   OH225545   0.965   6.329   1.034  0.3933  0.2079  0.1375
 1377TIP3    H125546   0.954   6.412   0.989 -0.7557 -0.0673 -0.1155
 1377TIP3    H225547   0.894   6.274   1.002  0.5151 -0.5333  1.0742
 1378TIP3   OH225548   5.925   5.473  15.192  0.4281  0.7312  0.3661
 1378TIP3    H125549   6.006   5.486  15.242  1.0272 -1.0812 -0.0580
 1378TIP3    H225550   5.879   5.557  15.198  2.1935  1.7091  0.8688
 1379TIP3   OH225551   4.066   1.622  13.503 -0.1287  0.1488 -0.1508
 1379TIP3    H125552   4.160   1.625  13.521  0.0327 -2.1638 -0.2831
 1379TIP3    H225553   4.026   1.632  13.589  0.2582  0.5465 -0.0110
 1380TIP3   OH225554   2.171   2.312   5.392  0.2214  0.1980 -0.0001
 1380TIP3    H125555   2.261   2.343   5.386  0.5874 -0.9384 -0.6505
 1380TIP3    H225556   2.175   2.237   5.452 -0.3798  0.4334  0.3503
 1381TIP3   OH225557   6.283   0.241  14.315  0.2399  0.0908 -0.0793
 1381TIP3    H125558   6.217   0.191  14.267  1.2961 -1.3083 -0.1515
 1381TIP3    H225559   6.345   0.269  14.247  0.1012  0.7964  0.0779
 1382TIP3   OH225560   5.272   0.647   3.429 -0.3012  0.2167 -0.8464
 1382TIP3    H125561   5.352   0.684   3.392 -0.7733  0.0473 -2.0748
 1382TIP3    H225562   5.237   0.591   3.360 -0.5915 -1.0814  0.2930
 1383TIP3   OH225563   3.327   4.603  14.873 -0.3011 -0.0899  0.1072
 1383TIP3    H125564   3.387   4.649  14.815  1.5010 -0.9607  1.1902
 1383TIP3    H225565   3.333   4.511  14.846 -0.6510 -0.2808  0.6490
 1384TIP3   OH225566   2.219   3.690   1.653 -0.0713  0.0591 -0.1418
 1384TIP3    H125567   2.263   3.632   1.715 -0.0854  0.2371  0.0348
 1384TIP3    H225568   2.139   3.643   1.629  0.2977 -0.3461 -0.6028
 1385TIP3   OH225569   6.771   4.246   3.186  0.2953  0.1193  0.8023
 1385TIP3    H125570   6.722   4.223   3.107  1.5413  0.2104 -0.0263
 1385TIP3    H225571   6.724   4.321   3.222 -0.8563 -0.5334  0.7035
 1386TIP3   OH225572   5.033   1.186  14.981  0.0883 -0.4038 -0.1585
 1386TIP3    H125573   5.002   1.221  15.064  0.7425 -1.8556  0.7493
 1386TIP3    H225574   5.127   1.203  14.981  0.0306 -0.0204 -0.8251
 1387TIP3   OH225575   0.493   5.297   0.144 -0.5091 -0.4217  0.0499
 1387TIP3    H125576   0.533   5.312   0.059  3.0761  0.2013  1.6788
 1387TIP3    H225577   0.422   5.362   0.149  0.9482  1.3869 -1.4224
 1388TIP3   OH225578   1.396   3.998   0.740  0.2279 -0.1853 -0.6269
 1388TIP3    H125579   1.436   3.954   0.815  0.5651  0.7080 -0.2623
 1388TIP3    H225580   1.359   4.078   0.777 -0.0906 -0.0066 -1.3233
 1389TIP3   OH225581   6.638   2.921   5.319  0.0705 -0.4367  0.1292
 1389TIP3    H125582   6.697   2.885   5.386 -0.6769 -1.5755  0.1928
 1389TIP3    H225583   6.696   2.969   5.260  1.2055 -2.2259 -0.2745
 1390TIP3   OH225584   4.569   5.285  15.041 -0.0565  0.1218 -0.0515
 1390TIP3    H125585   4.630   5.328  15.101 -0.9419 -0.8079  1.5796
 1390TIP3    H225586   4.575   5.192  15.064 -3.7041  0.1942  1.8137
 1391TIP3   OH225587   4.585   3.341   4.790 -0.0760  0.1069  0.3720
 1391TIP3    H125588   4.558   3.253   4.815 -0.3914 -0.3126 -1.3050
 1391TIP3    H225589   4.577   3.393   4.870 -0.4337 -1.2509  1.2458
 1392TIP3   OH225590   5.043   5.660  16.799  0.0345 -0.2493 -0.2865
 1392TIP3    H125591   4.954   5.625  16.791 -0.2344 -0.3719  2.2776
 1392TIP3    H225592   5.099   5.595  16.756 -0.7637 -2.3138  1.6016
 1393TIP3   OH225593   2.833   2.415   0.275 -0.0123 -0.0123  0.4263
 1393TIP3    H125594   2.790   2.363   0.344 -2.6976 -0.8728 -1.6940
 1393TIP3    H225595   2.916   2.371   0.260  0.1687 -0.4123  2.3842
 1394TIP3   OH225596   1.109   5.695   2.335 -0.0822  0.0947  0.4315
 1394TIP3    H125597   1.129   5.643   2.258 -0.9480 -1.7447  1.3970
 1394TIP3    H225598   1.150   5.648   2.407 -2.7116 -0.5348  1.6252
 1395TIP3   OH225599   1.845   2.960  14.299 -0.0846 -0.2313  0.0677
 1395TIP3    H125600   1.894   2.959  14.216 -0.1980  1.2601 -0.0605
 1395TIP3    H225601   1.825   3.053  14.313 -0.7353 -0.5473  1.3854
 1396TIP3   OH225602   3.123   0.818   5.150  0.2814  0.3100  0.4751
 1396TIP3    H125603   3.178   0.807   5.072 -0.2224  1.9360 -0.1597
 1396TIP3    H225604   3.155   0.898   5.191 -2.0774  1.8164 -0.3853
 1397TIP3   OH225605   0.589   0.983  13.560 -0.5421  0.1942 -0.0219
 1397TIP3    H125606   0.671   1.001  13.513 -1.0757  1.9885 -0.3660
 1397TIP3    H225607   0.535   0.936  13.497 -0.8519  1.6353 -0.8860
 1398TIP3   OH225608   5.755   2.260   0.391 -0.2462  0.0022  0.3565
 1398TIP3    H125609   5.814   2.333   0.372 -0.8541  1.7573  4.3000
 1398TIP3    H225610   5.667   2.297   0.380 -0.6233 -1.2423 -1.0389
 1399TIP3   OH225611   0.064   4.284  14.023  0.2524 -0.0240  0.6464
 1399TIP3    H125612   0.043   4.341  14.097  1.0458 -0.5543  1.3105
 1399TIP3    H225613   0.001   4.213  14.029 -0.5373  0.6078  0.0043
 1400TIP3   OH225614   3.736   3.302   5.877  0.1935 -0.1800  0.4315
 1400TIP3    H125615   3.814   3.329   5.925 -0.7077  0.5872  1.5271
 1400TIP3    H225616   3.765   3.291   5.787  1.4463  0.6537  0.7142
 1401TIP3   OH225617   4.843   1.699  10.457 -0.6892 -0.2164  0.1804
 1401TIP3    H125618   4.854   1.623  10.399 -2.9863  0.1442 -0.8299
 1401TIP3    H225619   4.763   1.680  10.506 -0.0620  0.5788  1.5504
 1402TIP3   OH225620   3.278   0.242   4.658 -0.2667  0.1484  0.1008
 1402TIP3    H125621   3.343   0.308   4.683 -0.7365  0.7393 -0.2127
 1402TIP3    H225622   3.330   0.173   4.617  0.1360  0.7965 -0.5108
 1403TIP3   OH225623   4.035   0.477  15.412  0.3735  0.3472  0.2646
 1403TIP3    H125624   3.976   0.541  15.371  1.2432  0.5886 -0.6631
 1403TIP3    H225625   4.113   0.479  15.357  0.9968 -0.4338  1.1010
 1404TIP3   OH225626   1.034   4.620  12.065 -0.3325  0.1754 -0.5432
 1404TIP3    H125627   1.064   4.587  11.981 -1.7479 -0.0314 -0.9895
 1404TIP3    H225628   1.092   4.694  12.084 -1.1772  1.4646 -2.6435
 1405TIP3   OH225629   4.501   2.730  10.649  0.0595  0.7420 -0.2642
 1405TIP3    H125630   4.520   2.795  10.581  2.0532  1.3917  0.8489
 1405TIP3    H225631   4.419   2.762  10.689  1.2977  3.0031  0.6589
 1406TIP3   OH225632   0.944   0.299   4.837 -0.9324 -0.3331  0.1454
 1406TIP3    H125633   0.961   0.247   4.759  1.0450 -0.5106  0.6352
 1406TIP3    H225634   0.950   0.390   4.807  2.5086 -0.3113  0.4405
 1407TIP3   OH225635   2.261   1.909   4.600 -0.0426  0.0571 -0.3082
 1407TIP3    H125636   2.310   1.900   4.682  1.0702  3.6558 -0.4066
 1407TIP3    H225637   2.273   1.825   4.556  1.5984 -1.0378  2.0233
 1408TIP3   OH225638   5.764   4.680   4.834 -0.6700 -0.2530 -0.1137
 1408TIP3    H125639   5.754   4.774   4.823 -2.0676 -0.4021 -0.3343
 1408TIP3    H225640   5.709   4.659   4.910 -1.5309 -1.0772 -0.9330
 1409TIP3   OH225641   6.561   1.055   5.467  0.2983  0.1456 -0.5206
 1409TIP3    H125642   6.582   1.078   5.376  1.6785  1.7160  0.1342
 1409TIP3    H225643   6.617   0.980   5.487  1.5307  1.0743 -0.3772
 1410TIP3   OH225644   3.289   0.557  13.474 -0.2109  0.5894  0.3325
 1410TIP3    H125645   3.351   0.623  13.444  1.1930 -0.8272 -0.0581
 1410TIP3    H225646   3.231   0.604  13.535  1.3517  1.9525  0.8498
 1411TIP3   OH225647   5.737   1.253  11.473 -0.1057  0.3093  0.5298
 1411TIP3    H125648   5.710   1.318  11.408  0.3618 -1.0885 -1.1260
 1411TIP3    H225649   5.681   1.271  11.549 -2.1990  0.6703 -1.0025
 1412TIP3   OH225650   0.811   3.766  15.326  0.6884 -0.1799 -0.3706
 1412TIP3    H125651   0.727   3.742  15.364  1.1432 -0.6144  0.3752
 1412TIP3    H225652   0.798   3.756  15.231 -0.6361  1.5003 -0.4133
 1413TIP3   OH225653   5.998   0.015  11.856  0.2709 -0.2831 -0.1205
 1413TIP3    H125654   6.050   0.080  11.905 -0.0000 -0.1186 -0.0525
 1413TIP3    H225655   6.060  -0.056  11.839  0.1436 -0.7473  1.2405
 1414TIP3   OH225656   1.374   2.707   1.901  0.0871 -0.4765  0.4381
 1414TIP3    H125657   1.425   2.629   1.921 -0.1447 -0.2784  1.8890
 1414TIP3    H225658   1.331   2.687   1.818  1.5570 -1.1104 -0.2146
 1415TIP3   OH225659   0.118   5.026   0.810  0.4184 -0.4347  0.4494
 1415TIP3    H125660   0.074   4.941   0.822 -1.6412  0.6651  1.1093
 1415TIP3    H225661   0.104   5.048   0.718  0.4733 -0.5479  0.4137
 1416TIP3   OH225662   3.427   5.544   5.872  0.6979 -0.1091 -0.2435
 1416TIP3    H125663   3.378   5.464   5.888 -0.6531  0.5431 -0.9284
 1416TIP3    H225664   3.470   5.530   5.788 -1.6119  0.7691 -1.6782
 1417TIP3   OH225665   2.555   6.248  13.403 -0.1785  0.3346 -0.1416
 1417TIP3    H125666   2.598   6.249  13.488 -0.9024 -2.0386  0.3326
 1417TIP3    H225667   2.627   6.244  13.340  0.3382  0.1676  0.4438
 1418TIP3   OH225668   2.557   3.614   4.138 -0.2068 -0.2763  0.4306
 1418TIP3    H125669   2.496   3.570   4.079  0.8261  1.1903 -1.8579
 1418TIP3    H225670   2.642   3.575   4.117  0.4489  1.4805 -0.4160
 1419TIP3   OH225671   0.900   1.030   5.020  0.0123 -0.1444 -0.0138
 1419TIP3    H125672   0.938   1.025   4.932 -0.0668  0.5272 -0.0884
 1419TIP3    H225673   0.961   1.085   5.070 -0.4459  0.2916  0.0790
 1420TIP3   OH225674   2.241   2.155   0.507  0.8656  0.7449  0.1438
 1420TIP3    H125675   2.172   2.214   0.477  1.1427  0.6857 -0.6361
 1420TIP3    H225676   2.205   2.067   0.496 -0.1536  0.7307  2.7669
 1421TIP3   OH225677   1.621   6.600   6.378  0.0394 -0.0832 -0.0068
 1421TIP3    H125678   1.688   6.665   6.358 -0.3778  0.3230 -0.1205
 1421TIP3    H225679   1.538   6.646   6.362 -0.2664 -0.4750  0.4375
 1422TIP3   OH225680   0.549   4.378  16.158  1.1128 -0.1227  0.7470
 1422TIP3    H125681   0.522   4.308  16.217 -0.6135  0.3362  0.5358
 1422TIP3    H225682   0.585   4.445  16.216  1.4641 -0.5714  1.0648
 1423TIP3   OH225683   2.936   3.174  12.834  0.0959 -0.3190  0.3720
 1423TIP3    H125684   2.960   3.267  12.837 -0.2823 -0.2393  1.5059
 1423TIP3    H225685   3.011   3.129  12.872  0.0271 -0.4200  0.3869
 1424TIP3   OH225686   0.809   2.771   2.451  0.2115 -0.2750 -0.2731
 1424TIP3    H125687   0.803   2.774   2.356  0.7130 -1.5584 -0.3662
 1424TIP3    H225688   0.778   2.857   2.480 -0.1149  0.0663 -1.5766
 1425TIP3   OH225689   3.552   3.867  11.618  0.1447  1.1476  0.7701
 1425TIP3    H125690   3.475   3.921  11.635 -0.7073 -0.0172  0.7093
 1425TIP3    H225691   3.554   3.858  11.522 -0.9609 -0.6512  0.8831
 1426TIP3   OH225692   1.323   5.989   5.481  0.1636 -0.1708 -0.4142
 1426TIP3    H125693   1.386   6.060   5.481  0.2195 -0.2204 -0.6601
 1426TIP3    H225694   1.331   5.949   5.568 -0.2803  0.4814 -0.0660
 1427TIP3   OH225695   0.398   4.253   3.151 -0.0928  0.0492  0.5486
 1427TIP3    H125696   0.416   4.267   3.244  2.2674 -0.9136  0.3119
 1427TIP3    H225697   0.469   4.297   3.106 -0.7273 -0.2441 -0.7753
 1428TIP3   OH225698   1.569   2.447   0.120 -0.1893 -0.0792 -0.3435
 1428TIP3    H125699   1.624   2.459   0.043 -0.5022 -0.0526 -0.5644
 1428TIP3    H225700   1.542   2.536   0.145 -1.4423 -0.1916 -1.2006
 1429TIP3   OH225701   0.197   5.166  14.525  0.1745 -1.0184  0.0346
 1429TIP3    H125702   0.289   5.141  14.511  1.2262  2.2215  0.3102
 1429TIP3    H225703   0.177   5.226  14.452 -0.3607  1.3691  2.0137
 1430TIP3   OH225704   5.678   0.717   1.539 -0.3240 -0.8592  0.7525
 1430TIP3    H125705   5.598   0.686   1.496 -0.6638  0.3383  0.4757
 1430TIP3    H225706   5.735   0.641   1.541 -1.7477 -1.9537  1.6315
 1431TIP3   OH225707   1.704   3.492  15.256  0.0156 -0.2912 -0.0363
 1431TIP3    H125708   1.617   3.451  15.256  0.0212 -0.3186 -0.6654
 1431TIP3    H225709   1.744   3.465  15.339 -1.6998  2.1411  1.7345
 1432TIP3   OH225710   5.825   0.737   4.735 -0.2549  0.0611 -0.1453
 1432TIP3    H125711   5.808   0.828   4.759 -0.5992  0.2598 -1.1122
 1432TIP3    H225712   5.780   0.725   4.652  0.9719 -0.5943 -0.7352
 1433TIP3   OH225713   3.296   6.198  15.916 -0.0701  0.5608 -0.0220
 1433TIP3    H125714   3.212   6.228  15.951 -0.1211  0.9230 -0.4493
 1433TIP3    H225715   3.278   6.179  15.824  0.3121  0.6098 -0.1075
 1434TIP3   OH225716   5.895   0.110  12.182 -0.3791 -0.4934  0.2055
 1434TIP3    H125717   5.952   0.033  12.182 -0.7496 -0.8598  2.8925
 1434TIP3    H225718   5.820   0.085  12.128  0.7290 -0.9717 -1.1879
 1435TIP3   OH225719   2.790   0.759  11.360 -0.1204  0.2290  0.2910
 1435TIP3    H125720   2.833   0.684  11.399  1.0906  0.4872 -0.5022
 1435TIP3    H225721   2.779   0.736  11.268  2.6548  1.9496 -0.6054
 1436TIP3   OH225722   3.396   3.092  11.598  1.0975 -0.3512 -0.2367
 1436TIP3    H125723   3.454   3.155  11.640  2.0340 -0.3461 -1.4931
 1436TIP3    H225724   3.309   3.115  11.630  1.4759  1.3037 -0.3220
 1437TIP3   OH225725   3.639   5.502   4.201  0.4371  0.2264  0.2296
 1437TIP3    H125726   3.558   5.501   4.149  0.6993  0.8047 -0.1991
 1437TIP3    H225727   3.707   5.480   4.138  0.8326  1.5165  0.1847
 1438TIP3   OH225728   4.892   2.004   2.258  0.0611  0.0728  0.0006
 1438TIP3    H125729   4.807   2.050   2.262 -0.2942 -0.5927  0.3015
 1438TIP3    H225730   4.921   2.001   2.349 -0.6138 -1.5447  0.2025
 1439TIP3   OH225731   4.972   4.156   5.076  0.0526 -0.0796  0.0345
 1439TIP3    H125732   4.977   4.204   4.994  1.5305 -1.5813 -0.8204
 1439TIP3    H225733   4.941   4.069   5.052 -0.6672 -0.1764  1.2453
 1440TIP3   OH225734   2.527   3.176   0.814  0.0444  0.1316 -0.0837
 1440TIP3    H125735   2.519   3.204   0.906 -0.4933  1.1667 -0.4286
 1440TIP3    H225736   2.500   3.084   0.815 -0.6796  0.3346  0.6866
 1441TIP3   OH225737   6.075   4.669   1.774 -0.1841 -0.2815  0.0250
 1441TIP3    H125738   6.141   4.681   1.705  0.2071  0.7215  0.5355
 1441TIP3    H225739   6.026   4.592   1.748 -0.3617  0.3561 -1.6281
 1442TIP3   OH225740   3.014   4.909   3.211 -0.4217  0.1269 -0.3876
 1442TIP3    H125741   3.010   4.952   3.296 -0.6205 -0.4436 -0.1049
 1442TIP3    H225742   3.102   4.871   3.207  0.1207  1.3611 -1.0479
 1443TIP3   OH225743   2.136   4.452   1.504 -0.0951 -0.2974  0.5897
 1443TIP3    H125744   2.204   4.453   1.571 -0.5177  0.5599  1.0215
 1443TIP3    H225745   2.078   4.524   1.528 -0.2992 -0.0236 -0.6597
 1444TIP3   OH225746   3.120   1.287  15.746  0.3010  0.3747 -0.1013
 1444TIP3    H125747   3.122   1.300  15.841  1.4936 -1.0694  0.1099
 1444TIP3    H225748   3.068   1.360  15.713  0.0218  1.0151  1.6402
 1445TIP3   OH225749   2.087   3.232  14.645  0.4701 -0.5850 -0.5043
 1445TIP3    H125750   2.115   3.189  14.565  1.2971  1.4358 -1.3768
 1445TIP3    H225751   1.992   3.233  14.641  0.5062  0.9056 -2.3280
 1446TIP3   OH225752   3.642   2.385   3.716 -0.1966 -0.2137  0.3002
 1446TIP3    H125753   3.627   2.318   3.783  1.3230 -1.0643 -0.1669
 1446TIP3    H225754   3.557   2.396   3.673 -0.9051 -0.5053  1.5679
 1447TIP3   OH225755   3.793   3.096  14.477  0.2111 -0.0141 -0.4299
 1447TIP3    H125756   3.871   3.152  14.476  0.8362 -0.8648 -0.5588
 1447TIP3    H225757   3.823   3.013  14.442 -0.2105 -1.0616  1.5693
 1448TIP3   OH225758   2.626   0.415  10.870  0.1991 -0.0666  0.0928
 1448TIP3    H125759   2.679   0.337  10.856  0.0834 -0.0214 -0.6133
 1448TIP3    H225760   2.546   0.399  10.819 -0.2888  0.0486  0.8005
 1449TIP3   OH225761   5.884   5.748   2.098 -0.8051 -0.4948 -0.6095
 1449TIP3    H125762   5.904   5.840   2.114 -1.3512 -0.6532  1.1916
 1449TIP3    H225763   5.802   5.750   2.048 -0.9919 -0.0165 -0.2890
 1450TIP3   OH225764   3.556   0.668  15.094  0.8159 -0.0569  0.5276
 1450TIP3    H125765   3.555   0.763  15.103 -1.4214  0.1407 -0.9648
 1450TIP3    H225766   3.626   0.650  15.032  1.4051  0.5783  0.9914
 1451TIP3   OH225767   6.545   1.503  15.939 -0.1689  0.7538  0.2608
 1451TIP3    H125768   6.535   1.596  15.919 -0.6248  0.7726  0.5576
 1451TIP3    H225769   6.501   1.492  16.024 -0.4704  0.1942  0.0385
 1452TIP3   OH225770   5.134   2.803   5.636  0.2314 -0.2410 -0.3788
 1452TIP3    H125771   5.128   2.897   5.652 -0.1591 -0.2302 -0.5661
 1452TIP3    H225772   5.102   2.762   5.716  1.5143 -0.2398  0.1635
 1453TIP3   OH225773   6.301   3.572   1.884 -0.3265 -0.2943  0.0185
 1453TIP3    H125774   6.274   3.550   1.973 -0.9161 -3.5867 -0.8298
 1453TIP3    H225775   6.280   3.494   1.832  0.4446  1.2874 -2.9387
 1454TIP3   OH225776   2.035   2.435  12.105 -0.2303 -0.1165  0.7057
 1454TIP3    H125777   2.045   2.404  12.015 -0.8936  1.9679 -0.1284
 1454TIP3    H225778   1.950   2.402  12.133 -1.0794  1.1702 -0.2850
 1455TIP3   OH225779   1.591   0.000   1.597  0.1087 -0.1526  0.1746
 1455TIP3    H125780   1.630  -0.058   1.662  0.1240 -0.7225 -0.3382
 1455TIP3    H225781   1.556  -0.058   1.530 -0.7283  0.3924  0.1180
 1456TIP3   OH225782   3.278   4.516  14.416 -0.0580 -0.0408 -0.2039
 1456TIP3    H125783   3.278   4.449  14.347  0.4484 -0.8612  0.5554
 1456TIP3    H225784   3.193   4.506  14.459  0.4150 -0.9601  0.5801
 1457TIP3   OH225785   0.349   0.484   4.598 -0.1387  0.4149 -0.1032
 1457TIP3    H125786   0.404   0.431   4.655  0.9594  0.9098 -0.6702
 1457TIP3    H225787   0.260   0.451   4.612  0.1450  0.3315  1.6337
 1458TIP3   OH225788   0.875   0.480   3.272 -0.1544 -0.3246 -0.2289
 1458TIP3    H125789   0.825   0.428   3.209  0.3075 -0.3942 -0.5354
 1458TIP3    H225790   0.919   0.415   3.327 -0.4370 -0.2632  0.0733
 1459TIP3   OH225791   6.628   2.664  11.366 -0.4281  0.0231  0.5004
 1459TIP3    H125792   6.670   2.749  11.359  0.3546 -0.5104 -2.6782
 1459TIP3    H225793   6.577   2.654  11.286 -1.3222 -2.1012  1.2346
 1460TIP3   OH225794   4.162   2.337  11.987 -0.7716  0.0368  0.6406
 1460TIP3    H125795   4.249   2.371  11.970 -0.4938 -1.8080 -2.3444
 1460TIP3    H225796   4.111   2.414  12.013  1.3089  1.4631  0.7205
 1461TIP3   OH225797   1.252   0.294  10.612  0.0047  0.0278 -0.3398
 1461TIP3    H125798   1.230   0.387  10.612 -0.5844 -0.1083 -0.2497
 1461TIP3    H225799   1.172   0.250  10.640  0.1444 -0.5351 -0.7977
 1462TIP3   OH225800   2.937   4.417   0.985 -0.9211 -0.1270  0.0595
 1462TIP3    H125801   2.998   4.351   0.952 -1.2545 -1.2582  1.5707
 1462TIP3    H225802   2.899   4.456   0.906 -0.2234 -1.2742 -0.8888
 1463TIP3   OH225803   4.810   6.060  11.911 -0.5080 -0.3752  0.5323
 1463TIP3    H125804   4.815   6.015  11.995 -0.8281 -1.4014  0.0192
 1463TIP3    H225805   4.722   6.097  11.909 -0.3585  0.0016  0.8170
 1464TIP3   OH225806   3.526   3.812  12.872  0.2904  0.2839 -0.0914
 1464TIP3    H125807   3.508   3.741  12.933  0.1917 -0.1365 -0.5933
 1464TIP3    H225808   3.457   3.805  12.806  1.8430 -0.9665 -1.7223
 1465TIP3   OH225809   2.241   4.280   0.615  0.7463 -0.2273 -0.0071
 1465TIP3    H125810   2.324   4.241   0.587  2.0903  2.9068 -0.8894
 1465TIP3    H225811   2.266   4.358   0.664 -1.7257 -1.2608  3.2586
 1466TIP3   OH225812   2.719   1.210  14.732 -0.2002  0.0332 -0.0185
 1466TIP3    H125813   2.753   1.297  14.709 -0.1659  0.1247  0.3778
 1466TIP3    H225814   2.637   1.203  14.682 -0.1575  0.2547 -0.1230
 1467TIP3   OH225815   1.633   3.076  13.471  0.8303  0.7449  0.1867
 1467TIP3    H125816   1.691   3.106  13.541  0.2016 -0.6225  1.3239
 1467TIP3    H225817   1.645   2.981  13.468 -0.2460  0.6172 -0.5649
 1468TIP3   OH225818   0.762   3.232  15.500  0.0056 -0.5810 -0.7028
 1468TIP3    H125819   0.844   3.282  15.509  0.2562 -0.7643 -1.7499
 1468TIP3    H225820   0.696   3.299  15.483 -0.1946 -0.3773  0.7361
 1469TIP3   OH225821   4.895   3.744   4.839 -0.2799 -0.3976  0.2562
 1469TIP3    H125822   4.800   3.734   4.845 -0.3820 -0.9722 -1.5615
 1469TIP3    H225823   4.908   3.820   4.782  0.3005 -1.3832 -0.9760
 1470TIP3   OH225824   0.315   1.017  16.248 -0.2646 -0.0846 -0.3952
 1470TIP3    H125825   0.305   1.089  16.184  2.0071  0.8896  0.2212
 1470TIP3    H225826   0.380   0.959  16.208 -1.2056 -1.1983 -0.3509
 1471TIP3   OH225827   4.419   5.785  12.966 -0.4623  0.4350 -0.2428
 1471TIP3    H125828   4.380   5.794  12.879 -1.0206 -1.7189 -0.2666
 1471TIP3    H225829   4.362   5.836  13.024 -0.3818  1.4569 -1.0257
 1472TIP3   OH225830   2.418   3.145   4.776  0.1881 -0.3551 -0.3088
 1472TIP3    H125831   2.507   3.157   4.808  0.0586 -1.6807  0.6333
 1472TIP3    H225832   2.385   3.234   4.763  0.7538  0.2426  1.9120
 1473TIP3   OH225833   3.203   3.956  16.053 -0.2183 -0.2702  0.1367
 1473TIP3    H125834   3.191   4.040  16.009 -1.4298 -0.6236 -0.2367
 1473TIP3    H225835   3.134   3.900  16.018  0.1847 -1.2385  0.8400
 1474TIP3   OH225836   4.778   1.753   4.569  0.3368 -0.1615 -0.9491
 1474TIP3    H125837   4.786   1.810   4.492  0.6009  1.8864  0.5020
 1474TIP3    H225838   4.705   1.791   4.618  1.2931 -0.3204  0.6534
 1475TIP3   OH225839   3.301   6.268   1.810  0.2584 -0.1704 -0.1208
 1475TIP3    H125840   3.343   6.236   1.730 -1.4417  1.5063 -1.8053
 1475TIP3    H225841   3.288   6.362   1.794 -2.1043 -0.1994  1.1743
 1476TIP3   OH225842   2.099   5.989   4.252  0.3324  0.3170 -0.2168
 1476TIP3    H125843   2.074   5.964   4.163  3.1862  1.6553 -1.5173
 1476TIP3    H225844   2.051   6.069   4.269 -1.8250 -1.0162  0.3604
 1477TIP3   OH225845   2.481   4.286  12.884  0.1140 -0.8411  0.6432
 1477TIP3    H125846   2.495   4.244  12.969  0.4451 -0.4596  0.7792
 1477TIP3    H225847   2.569   4.300  12.849 -0.0098 -0.6962  0.3830
 1478TIP3   OH225848   5.729   1.756  11.342  0.3826  0.0780  0.0100
 1478TIP3    H125849   5.819   1.736  11.367  0.3669 -2.2409 -1.4874
 1478TIP3    H225850   5.736   1.788  11.252 -0.3352 -1.4091 -0.6115
 1479TIP3   OH225851   5.689   5.911   1.674 -0.3580  0.0815 -0.2903
 1479TIP3    H125852   5.601   5.947   1.668 -0.6773 -0.7017 -0.4158
 1479TIP3    H225853   5.680   5.819   1.649  0.6114  0.1546 -0.9911
 1480TIP3   OH225854   6.452   4.775   4.018 -0.2516 -0.0727 -0.2144
 1480TIP3    H125855   6.478   4.846   3.959 -3.4698 -0.0911 -1.9122
 1480TIP3    H225856   6.533   4.748   4.062  1.4688  3.0915 -1.1745
 1481TIP3   OH225857   5.446   4.608   3.484  0.2655  0.5074 -0.1771
 1481TIP3    H125858   5.411   4.681   3.434 -1.8200  0.5680  1.2232
 1481TIP3    H225859   5.423   4.530   3.433 -2.5302  0.5123  0.9189
 1482TIP3   OH225860   0.222   2.640   4.553 -0.1975  0.2228  0.0290
 1482TIP3    H125861   0.237   2.727   4.590  0.0236 -0.5172  1.7740
 1482TIP3    H225862   0.310   2.607   4.534  0.0837 -1.1143  3.0980
 1483TIP3   OH225863   4.549   2.798  15.772 -0.0086 -0.7286  0.2416
 1483TIP3    H125864   4.523   2.888  15.790  3.4808  0.8198 -1.4985
 1483TIP3    H225865   4.523   2.784  15.681  0.3397 -1.0853  0.1925
 1484TIP3   OH225866   6.618   6.449   1.300 -0.9350 -0.2082 -0.1710
 1484TIP3    H125867   6.656   6.513   1.361  1.3299  0.4834 -2.1101
 1484TIP3    H225868   6.553   6.401   1.352 -1.0581  2.0915  1.9984
 1485TIP3   OH225869   0.414   1.715  11.758 -0.0288  0.1474 -0.0213
 1485TIP3    H125870   0.333   1.725  11.709 -0.1722  0.0803  0.1968
 1485TIP3    H225871   0.394   1.751  11.845  0.1924  0.1883  0.0135
 1486TIP3   OH225872   3.751   1.296   1.500 -0.0265 -0.9381 -0.6559
 1486TIP3    H125873   3.800   1.303   1.581 -1.7337  2.0420  0.2780
 1486TIP3    H225874   3.689   1.224   1.515  0.5213 -1.2443  0.1663
 1487TIP3   OH225875   2.157   5.082   1.241  0.2210  0.4171 -0.6175
 1487TIP3    H125876   2.088   5.077   1.308  0.7791 -0.0199 -0.0652
 1487TIP3    H225877   2.164   4.992   1.208  0.8274  0.3695 -0.3638
 1488TIP3   OH225878   6.278   3.548   4.591 -0.1605 -0.3645 -0.4254
 1488TIP3    H125879   6.256   3.476   4.533 -1.2864 -1.2154  0.9901
 1488TIP3    H225880   6.196   3.594   4.605  0.4664  0.9822 -0.9823
 1489TIP3   OH225881   3.402   6.336  11.555 -0.1215  0.3488 -0.3268
 1489TIP3    H125882   3.396   6.257  11.501 -1.7936 -0.1567  0.5364
 1489TIP3    H225883   3.381   6.408  11.495 -2.1482 -0.2197 -0.3890
 1490TIP3   OH225884   1.586   6.691  11.961  0.0691  0.2542  0.2513
 1490TIP3    H125885   1.570   6.705  11.868 -0.8395 -0.0905  0.3420
 1490TIP3    H225886   1.528   6.618  11.985  1.6766 -0.9473  0.6704
 1491TIP3   OH225887   0.425   2.683   3.292 -0.1747  0.2199 -0.0528
 1491TIP3    H125888   0.398   2.761   3.341  1.0501  1.3647 -1.0774
 1491TIP3    H225889   0.426   2.712   3.201 -0.3256 -1.2084 -0.5290
 1492TIP3   OH225890   4.760   1.065  13.420 -0.6364  0.7453  0.4690
 1492TIP3    H125891   4.703   1.076  13.496  0.3574 -0.2115  1.3844
 1492TIP3    H225892   4.721   0.992  13.372 -0.4827  0.4356  0.8122
 1493TIP3   OH225893   6.579   0.054   0.708  0.2282  0.3130  0.3743
 1493TIP3    H125894   6.592  -0.029   0.661  0.8541  0.6104  0.0022
 1493TIP3    H225895   6.593   0.121   0.642  0.4809  0.7274  0.8417
 1494TIP3   OH225896   4.432   5.038  13.389 -0.2071 -0.4738 -0.3606
 1494TIP3    H125897   4.480   5.110  13.348 -0.5230  0.5921  1.0613
 1494TIP3    H225898   4.482   5.017  13.467 -0.3709 -1.5101 -0.5219
 1495TIP3   OH225899   1.988   1.391  15.582 -0.2975 -0.1627 -0.0885
 1495TIP3    H125900   1.918   1.329  15.603 -0.0080 -0.6743 -0.6163
 1495TIP3    H225901   2.061   1.364  15.637  0.3688 -1.3287 -1.5098
 1496TIP3   OH225902   0.293   6.660   0.537 -0.3130  0.2415  0.1216
 1496TIP3    H125903   0.370   6.614   0.569 -0.3527  0.5871  0.7197
 1496TIP3    H225904   0.308   6.670   0.443  0.1528 -0.1002  0.1587
 1497TIP3   OH225905   3.962   2.845   1.025  0.1188 -0.3262 -0.0912
 1497TIP3    H125906   3.903   2.770   1.030 -0.0276 -0.1974  0.1680
 1497TIP3    H225907   3.935   2.901   1.098 -0.3486  0.3906 -0.7853
 1498TIP3   OH225908   2.795   1.718  15.094  0.2382 -0.0371 -0.1693
 1498TIP3    H125909   2.850   1.723  15.015  1.3774  1.6821  0.6763
 1498TIP3    H225910   2.727   1.655  15.071  2.0116 -1.5703 -1.5995
 1499TIP3   OH225911   1.935   0.922  12.681  0.4004  0.0679  0.0547
 1499TIP3    H125912   1.918   0.842  12.631 -0.1185  0.5972 -0.6389
 1499TIP3    H225913   2.018   0.905  12.725 -0.3312 -1.3668  0.9979
 1500TIP3   OH225914   3.805   3.188   6.238  0.2027 -0.2224  0.2223
 1500TIP3    H125915   3.757   3.141   6.171 -0.1111  0.1414  0.1899
 1500TIP3    H225916   3.832   3.270   6.196  0.3149 -0.1518  0.4283
 1501TIP3   OH225917   2.375   5.263  14.184  0.5753  0.1603 -0.4122
 1501TIP3    H125918   2.453   5.310  14.154  1.6126 -0.7969  0.7390
 1501TIP3    H225919   2.392   5.242  14.275  0.0358 -2.2153 -0.8014
 1502TIP3   OH225920   5.842   2.134  11.846 -0.2069 -0.5525  0.1286
 1502TIP3    H125921   5.918   2.177  11.885 -0.1968  0.7644 -1.2521
 1502TIP3    H225922   5.810   2.075  11.914  1.8829 -0.9481  0.8272
 1503TIP3   OH225923   1.796   4.992   1.071 -0.3321 -0.2374 -0.1356
 1503TIP3    H125924   1.859   4.957   1.134  0.4205  1.6087  0.2191
 1503TIP3    H225925   1.726   4.928   1.069  0.1713 -0.9199  1.7139
 1504TIP3   OH225926   0.902   4.580   5.846 -0.4792 -0.6867  0.6246
 1504TIP3    H125927   0.815   4.561   5.882 -0.2493 -2.3581  0.3415
 1504TIP3    H225928   0.956   4.600   5.923 -0.5870 -1.8319  1.0155
 1505TIP3   OH225929   2.437   4.976  16.721 -0.2577  0.2830 -0.2608
 1505TIP3    H125930   2.375   4.903  16.718  0.9145 -0.7836  0.4119
 1505TIP3    H225931   2.446   4.996  16.815 -0.0498  0.8447 -0.3955
 1506TIP3   OH225932   3.591   4.989  15.081  0.3270 -0.0400  0.0579
 1506TIP3    H125933   3.644   5.045  15.025 -0.1754 -0.2717 -0.6567
 1506TIP3    H225934   3.501   5.007  15.055  0.0660  0.1073  1.0366
 1507TIP3   OH225935   3.596   3.044  14.080 -0.0422 -0.5982  0.3728
 1507TIP3    H125936   3.686   3.025  14.054  1.3202 -0.1493  4.1591
 1507TIP3    H225937   3.580   3.133  14.048  2.0318  0.4667  2.0426
 1508TIP3   OH225938   6.061   5.848   4.954  0.2458  0.0772 -0.3821
 1508TIP3    H125939   6.015   5.785   4.898  0.4961 -0.8109  0.3741
 1508TIP3    H225940   6.004   5.925   4.955 -1.2648 -0.9790  0.4897
 1509TIP3   OH225941   3.424   2.546   3.692 -0.2186 -0.3149  0.0338
 1509TIP3    H125942   3.371   2.626   3.692 -1.2646 -0.8995  2.7414
 1509TIP3    H225943   3.367   2.480   3.653 -0.2032 -0.2362 -0.1250
 1510TIP3   OH225944   1.252   4.559   3.705  0.0239 -0.7433  0.4935
 1510TIP3    H125945   1.310   4.557   3.628 -1.0110  1.1501 -0.4263
 1510TIP3    H225946   1.200   4.639   3.692 -0.3757 -0.5259  3.0539
 1511TIP3   OH225947   4.268   6.047  16.801 -0.6410 -0.9682  0.2798
 1511TIP3    H125948   4.241   5.967  16.755 -1.8453 -1.2010  1.3530
 1511TIP3    H225949   4.343   6.079  16.750 -0.8120 -2.1821 -0.7964
 1512TIP3   OH225950   6.793   0.953   3.725  0.3531 -0.1858 -0.3163
 1512TIP3    H125951   6.879   0.916   3.743  0.4904 -0.1732 -0.9308
 1512TIP3    H225952   6.750   0.889   3.669  0.1341  0.0248 -0.3913
 1513TIP3   OH225953   6.177   5.358   4.661 -0.5802  0.2437 -0.1277
 1513TIP3    H125954   6.158   5.430   4.721 -0.4062  1.1344 -1.1146
 1513TIP3    H225955   6.271   5.363   4.645 -0.2874 -1.1481  0.9531
 1514TIP3   OH225956   2.847   6.340   3.180  0.2719 -0.2498 -0.7877
 1514TIP3    H125957   2.771   6.391   3.154  0.1655 -1.0746 -2.1742
 1514TIP3    H225958   2.852   6.268   3.116  1.6580 -0.7538 -0.1705
 1515TIP3   OH225959   4.401   4.057  12.785  0.4444 -0.0510  0.3186
 1515TIP3    H125960   4.387   3.962  12.782  0.4003 -0.0438  0.3016
 1515TIP3    H225961   4.466   4.074  12.717 -0.1734  0.0435 -0.2608
 1516TIP3   OH225962   4.901   4.827   4.154  0.2130  0.0154  0.2950
 1516TIP3    H125963   4.865   4.772   4.085 -0.6721  1.2421 -0.2515
 1516TIP3    H225964   4.860   4.912   4.141  0.4849  0.4388  1.9675
 1517TIP3   OH225965   4.231   6.283  12.993  0.0175 -0.4201 -1.0496
 1517TIP3    H125966   4.315   6.311  12.956  0.5116 -2.0593 -1.2623
 1517TIP3    H225967   4.166   6.337  12.948  0.9721  1.4357 -0.3250
 1518TIP3   OH225968   5.283   2.761   5.036  0.6996  0.3488 -0.4111
 1518TIP3    H125969   5.267   2.699   4.966 -0.4444  0.5985 -0.3889
 1518TIP3    H225970   5.210   2.749   5.097  0.5795  1.5385 -0.2904
 1519TIP3   OH225971   1.854   3.399  14.690 -0.3076  0.1478  0.2348
 1519TIP3    H125972   1.946   3.420  14.706  0.0079  0.9599 -2.2412
 1519TIP3    H225973   1.806   3.457  14.748  0.6963 -1.3606  2.7181
 1520TIP3   OH225974   4.886   5.868   1.617 -0.0261 -0.0202  0.1432
 1520TIP3    H125975   4.885   5.870   1.713  0.7267  1.1864  0.1523
 1520TIP3    H225976   4.876   5.960   1.592  4.6392  0.4816 -0.8137
 1521TIP3   OH225977   1.485   0.669  16.989  0.3666 -0.1860  0.2369
 1521TIP3    H125978   1.482   0.574  17.000  1.0573 -0.1921  0.3962
 1521TIP3    H225979   1.483   0.704  17.078 -0.7817 -0.0137  0.1602
 1522TIP3   OH225980   3.409   1.532   0.612 -0.1122 -0.2740 -0.1022
 1522TIP3    H125981   3.323   1.569   0.593  0.7893  1.0437 -1.8803
 1522TIP3    H225982   3.417   1.458   0.553  0.1865 -0.0653 -0.3242
 1523TIP3   OH225983   6.423   6.630  13.224 -0.3250  0.8340  0.2882
 1523TIP3    H125984   6.516   6.608  13.226 -0.6200 -0.5458  0.3649
 1523TIP3    H225985   6.400   6.628  13.131 -0.4233  0.4499  0.3181
 1524TIP3   OH225986   4.055   0.710   2.073  0.0022  0.4220  0.1924
 1524TIP3    H125987   4.119   0.757   2.019  0.1113  0.2543  0.1746
 1524TIP3    H225988   4.003   0.661   2.010 -1.1177  1.7013  0.0640
 1525TIP3   OH225989   6.769   3.178  14.481  0.5839 -0.0823  0.5538
 1525TIP3    H125990   6.704   3.139  14.538 -1.2198  2.8651  0.7344
 1525TIP3    H225991   6.731   3.175  14.393  0.9526  0.1309  0.3803
 1526TIP3   OH225992   2.656   5.232  12.449  0.0327 -0.6460 -0.1678
 1526TIP3    H125993   2.677   5.281  12.370 -0.5164 -0.4730 -0.2092
 1526TIP3    H225994   2.717   5.265  12.515 -0.4869  0.2750 -0.1295
 1527TIP3   OH225995   0.425   2.787   5.496 -0.2360  0.2863 -0.1497
 1527TIP3    H125996   0.381   2.856   5.546  0.6063 -1.0470  2.6053
 1527TIP3    H225997   0.375   2.708   5.515  0.2102 -0.3049 -1.3605
 1528TIP3   OH225998   3.921   1.869   2.450  0.5512 -0.7784 -0.2366
 1528TIP3    H125999   3.935   1.962   2.435 -0.7220 -0.4140  0.6622
 1528TIP3    H226000   4.007   1.836   2.478  0.3192  0.8267  2.7162
 1529TIP3   OH226001   6.515   6.110  14.919  0.2067  0.5010  0.4124
 1529TIP3    H126002   6.432   6.158  14.919 -0.5602 -0.7231  1.3348
 1529TIP3    H226003   6.554   6.130  15.004  1.0203  1.3028 -0.1366
 1530TIP3   OH226004   6.174   5.428  13.684  0.1168 -0.1544  0.0138
 1530TIP3    H126005   6.213   5.490  13.623 -1.4846 -1.3885 -2.4772
 1530TIP3    H226006   6.092   5.469  13.711 -1.8724 -1.6427 -3.0647
 1531TIP3   OH226007   2.389   5.098   2.054  0.1139 -0.4853 -0.0144
 1531TIP3    H126008   2.443   5.176   2.065 -1.2325  0.5704 -0.5513
 1531TIP3    H226009   2.433   5.047   1.986  0.6074  0.1819 -0.1958
 1532TIP3   OH226010   1.900   5.199   0.883 -0.4316  0.7540 -0.0716
 1532TIP3    H126011   1.948   5.270   0.924  0.8301 -0.6621  1.0234
 1532TIP3    H226012   1.856   5.155   0.956  1.2127 -1.3355 -0.2449
 1533TIP3   OH226013   4.064   0.749   0.223  0.2389 -0.2988  0.1124
 1533TIP3    H126014   3.996   0.711   0.168 -1.2349  0.8044  1.0950
 1533TIP3    H226015   4.124   0.677   0.241 -0.3271 -1.1453 -1.2957
 1534TIP3   OH226016   5.315   1.487  13.775 -0.0568  0.3554  0.4129
 1534TIP3    H126017   5.364   1.447  13.847  0.5864  0.4527  0.0340
 1534TIP3    H226018   5.285   1.413  13.722  1.4270  0.3449 -0.4809
 1535TIP3   OH226019   6.200   0.781   4.583 -0.1276  0.3044  0.2425
 1535TIP3    H126020   6.162   0.700   4.546 -0.7096  0.4474  0.5130
 1535TIP3    H226021   6.175   0.849   4.521 -2.4850  0.8170  1.6409
 1536TIP3   OH226022   6.351   0.340  16.803 -0.4492  0.1106  0.1557
 1536TIP3    H126023   6.389   0.416  16.758 -0.6589  0.4199  0.4955
 1536TIP3    H226024   6.354   0.269  16.738  1.4335 -0.0890  0.4099
 1537TIP3   OH226025   4.750   6.727   3.925  0.2099 -0.3425  0.2233
 1537TIP3    H126026   4.803   6.647   3.918 -1.7176 -1.6034 -1.3063
 1537TIP3    H226027   4.708   6.721   4.010 -0.4196 -1.3397 -0.1369
 1538TIP3   OH226028   2.545   1.143   3.277  0.1606 -0.5694  0.2413
 1538TIP3    H126029   2.555   1.061   3.326  0.7290 -0.6687 -0.0284
 1538TIP3    H226030   2.541   1.211   3.344 -0.1863 -0.8085  0.4626
 1539TIP3   OH226031   1.527   3.427   1.268 -0.6983  0.2460 -0.0527
 1539TIP3    H126032   1.441   3.384   1.271 -0.1225 -1.1326 -1.7138
 1539TIP3    H226033   1.540   3.448   1.176  0.5902  0.8070  0.2430
 1540TIP3   OH226034   6.798   0.492  14.533 -0.6337 -0.6094  0.0348
 1540TIP3    H126035   6.745   0.472  14.610  0.4933 -1.1722  0.6812
 1540TIP3    H226036   6.871   0.545  14.566  0.1682 -1.3214 -0.5311
 1541TIP3   OH226037   3.664   0.906  15.057  0.2642 -0.2689 -0.3712
 1541TIP3    H126038   3.661   0.939  14.967 -0.2012 -0.7903 -0.5571
 1541TIP3    H226039   3.734   0.840  15.056 -0.6845 -1.3131 -0.7374
 1542TIP3   OH226040   3.948   3.950  12.690  0.3630  0.2475  0.1689
 1542TIP3    H126041   3.991   4.033  12.668 -2.0461  1.6992  0.5016
 1542TIP3    H226042   4.019   3.893  12.717  2.1087  2.3563  0.3590
 1543TIP3   OH226043   0.008   0.844  14.645  0.0558 -0.3642 -0.0278
 1543TIP3    H126044  -0.081   0.833  14.679  0.2466  0.0557  0.6194
 1543TIP3    H226045   0.054   0.893  14.712  0.2906  0.9709 -1.1074
 1544TIP3   OH226046   6.231   0.100  12.219 -0.6556 -0.5273  0.3494
 1544TIP3    H126047   6.184   0.017  12.229  0.9608 -1.6939 -1.1376
 1544TIP3    H226048   6.191   0.140  12.142  1.1000 -1.8590 -1.3617
 1545TIP3   OH226049   4.562   0.819  12.647  0.1085 -1.2222 -0.0114
 1545TIP3    H126050   4.646   0.856  12.673  0.4357 -0.9404 -1.3733
 1545TIP3    H226051   4.517   0.801  12.729  0.1560  1.7020  0.7627
 1546TIP3   OH226052   2.913   4.278  10.706  0.5004 -0.1765 -0.6470
 1546TIP3    H126053   2.997   4.243  10.676  0.5738  0.6811 -1.5174
 1546TIP3    H226054   2.923   4.373  10.696 -1.0434 -0.1191 -2.0863
 1547TIP3   OH226055   5.365   6.037  11.144 -0.3256  0.0060  0.5068
 1547TIP3    H126056   5.378   5.946  11.119 -0.7564  0.2389 -0.6155
 1547TIP3    H226057   5.405   6.088  11.074 -3.1196  0.6798 -0.7764
 1548TIP3   OH226058   3.065   1.109   4.485 -0.1721  0.0950 -0.0947
 1548TIP3    H126059   3.045   1.150   4.400  1.6204 -0.8758 -1.0392
 1548TIP3    H226060   3.084   1.182   4.543 -0.9052  0.7500 -0.6494
 1549TIP3   OH226061   0.942   2.931   3.338  0.6582 -0.0363 -0.1718
 1549TIP3    H126062   0.923   2.921   3.431  2.4139  1.3978  0.4042
 1549TIP3    H226063   0.999   3.008   3.333 -0.0672  0.4433 -2.5360
 1550TIP3   OH226064   2.636   3.393   4.438  0.0415 -0.5495  0.2999
 1550TIP3    H126065   2.672   3.393   4.349 -0.4797 -0.2472  0.0858
 1550TIP3    H226066   2.542   3.380   4.426  0.0135 -0.8555  0.8296
 1551TIP3   OH226067   4.718   3.061  10.940 -0.3152  0.1355  0.1859
 1551TIP3    H126068   4.741   3.141  10.986  0.6636 -0.0054 -0.0340
 1551TIP3    H226069   4.652   3.019  10.996 -0.5417  0.8833  0.4980
 1552TIP3   OH226070   4.768   1.791  11.701 -0.8922  0.3013 -0.0030
 1552TIP3    H126071   4.787   1.797  11.795 -1.0092 -0.6416  0.0953
 1552TIP3    H226072   4.821   1.718  11.671 -1.6491 -0.0744 -0.4537
 1553TIP3   OH226073   0.986   3.021  11.841 -0.2765 -0.0229 -0.5135
 1553TIP3    H126074   0.953   3.092  11.896  0.1395  0.2195 -0.5782
 1553TIP3    H226075   1.019   2.956  11.903 -0.1664  0.0751 -0.4709
 1554TIP3   OH226076   4.375   0.823   3.166  0.3126  0.1338 -0.0865
 1554TIP3    H126077   4.470   0.812   3.163  0.3673  0.6554 -0.2912
 1554TIP3    H226078   4.344   0.781   3.086  0.3198 -0.4923  0.2309
 1555TIP3   OH226079   2.116   1.000  13.652  0.3724 -0.0166 -0.0850
 1555TIP3    H126080   2.051   1.001  13.583  2.7219 -0.3080 -2.4729
 1555TIP3    H226081   2.153   0.911  13.649  1.9874  0.6109  0.0309
 1556TIP3   OH226082   5.508   2.779  11.073 -0.1250  0.1423  0.4322
 1556TIP3    H126083   5.594   2.769  11.115  0.8953  0.8443 -1.3713
 1556TIP3    H226084   5.449   2.801  11.145  1.2206 -0.2192  1.7079
 1557TIP3   OH226085   2.635   1.199   4.811 -0.0646  0.1065 -0.5512
 1557TIP3    H126086   2.647   1.119   4.760 -1.9745 -0.4426 -0.2173
 1557TIP3    H226087   2.580   1.255   4.755  1.6894  1.4387 -1.0086
 1558TIP3   OH226088   6.682   3.871  15.049  0.0766 -0.1641  0.1901
 1558TIP3    H126089   6.668   3.828  15.134  0.8076 -1.6395 -0.3985
 1558TIP3    H226090   6.616   3.833  14.992  1.1482 -1.0286 -0.5102
 1559TIP3   OH226091   4.402   6.720  16.767 -0.2976 -0.3432 -0.0243
 1559TIP3    H126092   4.371   6.661  16.835  1.1817  0.6782  1.6387
 1559TIP3    H226093   4.496   6.728  16.783 -0.0794  0.7617 -1.5509
 1560TIP3   OH226094   6.507   1.769  10.726  0.3177  0.1882  0.2030
 1560TIP3    H126095   6.518   1.736  10.637  2.8082 -0.1337  0.5529
 1560TIP3    H226096   6.582   1.828  10.740  0.3154 -0.2042  2.2502
 1561TIP3   OH226097   2.818   0.976   0.676  0.8763 -0.2429 -0.2655
 1561TIP3    H126098   2.791   1.005   0.589 -1.4091 -0.4018  0.3350
 1561TIP3    H226099   2.822   1.056   0.728  0.6165 -0.3264 -0.1157
 1562TIP3   OH226100   2.641   0.589  13.148 -0.0809 -0.2742  0.0433
 1562TIP3    H126101   2.675   0.563  13.063 -0.2566 -1.1636  0.2316
 1562TIP3    H226102   2.546   0.587  13.138 -0.1008  0.4554  0.0247
 1563TIP3   OH226103   0.640   0.255  14.153 -0.6551 -0.5609 -0.0683
 1563TIP3    H126104   0.597   0.225  14.233 -1.8361  2.0818  0.3826
 1563TIP3    H226105   0.686   0.334  14.179 -1.7864  0.8490 -2.1436
 1564TIP3   OH226106   5.657   3.015  11.766 -0.3799 -0.0841 -0.1988
 1564TIP3    H126107   5.583   2.975  11.720 -0.1106  1.7696 -2.4460
 1564TIP3    H226108   5.735   2.980  11.723  0.0062 -0.4940  0.8079
 1565TIP3   OH226109   2.864   3.720  15.194  0.1454  0.3986 -0.4607
 1565TIP3    H126110   2.817   3.795  15.231 -0.6159  0.6487 -1.8559
 1565TIP3    H226111   2.956   3.742  15.204 -0.0612  1.2713 -0.3519
 1566TIP3   OH226112   6.586   3.949   0.880  0.1880 -0.3169  0.1591
 1566TIP3    H126113   6.643   4.024   0.899 -0.6661  0.9322 -1.8216
 1566TIP3    H226114   6.511   3.960   0.938 -0.1091  0.6165 -0.3800
 1567TIP3   OH226115   4.727   4.568  13.347 -0.1904  0.2905  0.4277
 1567TIP3    H126116   4.793   4.539  13.284 -2.4064 -0.7259 -1.5940
 1567TIP3    H226117   4.678   4.489  13.369 -2.1606  1.3269  0.0293
 1568TIP3   OH226118   6.030   0.376   3.146 -0.2096  0.4390  0.3526
 1568TIP3    H126119   6.030   0.401   3.053  0.4925 -3.1422 -0.7715
 1568TIP3    H226120   6.111   0.413   3.181 -1.5138  3.7536  0.3011
 1569TIP3   OH226121   2.648   4.160   4.839 -0.0832 -0.5598  0.5313
 1569TIP3    H126122   2.614   4.127   4.756 -1.1495 -0.5569  0.9408
 1569TIP3    H226123   2.743   4.151   4.832 -0.2145 -1.5015 -0.2889
 1570TIP3   OH226124   2.855   0.163   5.990  0.1252 -0.3218 -0.3018
 1570TIP3    H126125   2.821   0.249   5.965  1.2330 -0.2320 -1.6113
 1570TIP3    H226126   2.947   0.179   6.012  0.8564 -1.4102 -2.3148
 1571TIP3   OH226127   5.948   3.625   0.201 -0.3549 -0.1364 -0.1203
 1571TIP3    H126128   5.883   3.559   0.178  0.0648 -0.9128  0.8294
 1571TIP3    H226129   5.963   3.612   0.295 -0.8812  1.8681  0.2963
 1572TIP3   OH226130   1.268   0.951  14.985 -0.0828 -0.4032 -0.0864
 1572TIP3    H126131   1.186   0.922  14.947 -0.7953 -1.0816  1.8166
 1572TIP3    H226132   1.254   1.044  15.006  0.0241 -0.2461 -0.6872
 1573TIP3   OH226133   3.670   3.239   5.213 -0.5734  0.0587 -0.0370
 1573TIP3    H126134   3.611   3.281   5.276  1.5564  0.4455  1.8081
 1573TIP3    H226135   3.712   3.312   5.167  0.9288 -0.0630  1.0745
 1574TIP3   OH226136   6.083   0.167   0.263  0.2315 -0.0613 -0.0694
 1574TIP3    H126137   6.039   0.145   0.181  2.5312 -0.0752 -1.3822
 1574TIP3    H226138   6.172   0.136   0.252  0.5313 -0.4051  2.6338
 1575TIP3   OH226139   3.090   3.296   2.585 -0.6145 -0.2806 -0.1054
 1575TIP3    H126140   3.121   3.209   2.560 -0.6583 -0.2110 -0.4140
 1575TIP3    H226141   3.028   3.281   2.656  1.7548 -0.2860  2.0976
 1576TIP3   OH226142   5.997   3.713  15.784  0.8035 -0.3926  0.1198
 1576TIP3    H126143   6.087   3.742  15.800  0.0546  0.6436  3.0679
 1576TIP3    H226144   5.980   3.650  15.854 -1.5697  1.4718  1.3604
 1577TIP3   OH226145   3.343   2.186  13.511  0.0938 -0.0788 -0.0777
 1577TIP3    H126146   3.271   2.250  13.512  0.4518  0.3730 -1.5668
 1577TIP3    H226147   3.301   2.102  13.494 -0.0679  0.2181 -1.1789
 1578TIP3   OH226148   1.267   0.091  12.515  0.4551  0.0149 -0.2169
 1578TIP3    H126149   1.274   0.004  12.554 -0.5400 -0.2623 -0.6063
 1578TIP3    H226150   1.320   0.148  12.572  1.9456 -1.0088 -0.5407
 1579TIP3   OH226151   0.893   4.241  11.012 -0.3206 -0.3632  0.9048
 1579TIP3    H126152   0.949   4.290  10.953 -1.1931  0.7703  0.9875
 1579TIP3    H226153   0.901   4.150  10.983  1.4753 -0.2290  0.8814
 1580TIP3   OH226154   5.968   1.667  13.692 -0.1367 -0.3021 -0.1378
 1580TIP3    H126155   6.027   1.594  13.670 -0.4803 -0.2394 -1.3319
 1580TIP3    H226156   5.921   1.636  13.769  2.3133  0.1398  1.6729
 1581TIP3   OH226157   1.582   0.092   4.436 -0.0927  0.3306 -0.2286
 1581TIP3    H126158   1.558   0.182   4.411 -1.9253 -0.1093 -0.1637
 1581TIP3    H226159   1.611   0.100   4.527 -0.3124  0.8531 -0.2003
 1582TIP3   OH226160   3.140   3.862   1.405 -0.2072  0.0010  0.5720
 1582TIP3    H126161   3.224   3.879   1.364 -0.5513  0.8931  0.2018
 1582TIP3    H226162   3.107   3.949   1.427 -0.1182 -0.4275  2.5839
 1583TIP3   OH226163   2.703   1.622   3.135  0.2259  0.2752 -0.4423
 1583TIP3    H126164   2.712   1.529   3.153  2.9957  0.3566 -1.0292
 1583TIP3    H226165   2.701   1.628   3.040 -1.8240  0.7321 -0.4095
 1584TIP3   OH226166   2.899   6.475  12.639 -0.1311 -0.0621  0.1408
 1584TIP3    H126167   2.815   6.437  12.663 -0.3220 -0.2278 -0.7774
 1584TIP3    H226168   2.939   6.499  12.723 -0.6576 -0.8964  0.6370
 1585TIP3   OH226169   2.097   1.435  14.586 -0.8084 -0.1951 -0.6526
 1585TIP3    H126170   2.022   1.451  14.530 -1.3795 -1.7022 -0.3746
 1585TIP3    H226171   2.139   1.357  14.549 -1.1922 -1.2127  0.9512
 1586TIP3   OH226172   5.931   3.615  11.748 -0.3631 -0.2917 -0.1887
 1586TIP3    H126173   6.012   3.610  11.799  0.3924 -0.8251 -1.3781
 1586TIP3    H226174   5.863   3.634  11.812  0.7856  0.7618  0.7712
 1587TIP3   OH226175   0.602   3.722  15.904 -0.6725  0.1350  0.0295
 1587TIP3    H126176   0.674   3.754  15.957  0.0006  0.7087 -1.1867
 1587TIP3    H226177   0.590   3.631  15.931  0.2441  0.1531  0.5100
 1588TIP3   OH226178   3.000   5.986   5.694 -0.2506  0.4608  0.2113
 1588TIP3    H126179   2.953   5.980   5.778 -1.6588  1.3338 -0.4764
 1588TIP3    H226180   2.959   5.919   5.639 -0.2628  0.8073 -0.2010
 1589TIP3   OH226181   3.161   2.206   0.513  0.7850  0.3911  0.2573
 1589TIP3    H126182   3.124   2.130   0.468  0.6506  0.5259  0.1358
 1589TIP3    H226183   3.167   2.180   0.604 -0.6183  0.7375  0.4751
 1590TIP3   OH226184   1.875   0.023  16.953 -0.2286 -0.5187 -0.4753
 1590TIP3    H126185   1.931   0.020  16.875 -1.2336 -1.9167 -1.1936
 1590TIP3    H226186   1.800  -0.032  16.931 -0.4448 -1.1427  1.5680
 1591TIP3   OH226187   4.136   2.272   5.664 -0.4823  0.5392 -0.1327
 1591TIP3    H126188   4.071   2.207   5.692 -2.2382  1.7237 -1.2447
 1591TIP3    H226189   4.220   2.229   5.676 -1.3254 -0.4497  3.0349
 1592TIP3   OH226190   5.903   6.803   2.897 -0.2791 -0.2723  0.0222
 1592TIP3    H126191   5.953   6.808   2.979  1.5654 -0.4080 -1.0300
 1592TIP3    H226192   5.886   6.894   2.874 -2.0887 -0.2416  1.2296
 1593TIP3   OH226193   0.114   0.357   1.333  0.3122  0.0366  0.5521
 1593TIP3    H126194   0.194   0.378   1.381  0.6899  0.9482 -0.4454
 1593TIP3    H226195   0.105   0.427   1.269  0.8925 -2.0612 -2.0269
 1594TIP3   OH226196   5.468   3.266  13.024 -0.4099  0.6682  0.4122
 1594TIP3    H126197   5.379   3.279  12.991 -0.0896  1.6335 -0.0888
 1594TIP3    H226198   5.475   3.328  13.097 -0.0412  0.8077  0.2563
 1595TIP3   OH226199   4.505   4.226  16.588  0.3035  0.0074 -0.3601
 1595TIP3    H126200   4.433   4.164  16.600  0.1009  0.3098  0.0127
 1595TIP3    H226201   4.528   4.253  16.677 -0.5572  1.5449 -0.5644
 1596TIP3   OH226202   0.467   3.769   3.052  0.0120  0.7502 -0.6756
 1596TIP3    H126203   0.423   3.810   2.978 -1.2978 -0.4184 -0.5790
 1596TIP3    H226204   0.495   3.842   3.107 -0.8342  1.5627 -1.2971
 1597TIP3   OH226205   4.377   3.330  14.657 -0.0264 -0.0944  0.0589
 1597TIP3    H126206   4.420   3.253  14.695 -0.4423 -0.6150 -0.5015
 1597TIP3    H226207   4.428   3.350  14.579  0.1514  0.2752  0.2696
 1598TIP3   OH226208   4.573   5.064   4.962 -0.0071 -0.4200 -1.0854
 1598TIP3    H126209   4.533   4.980   4.940  0.0407 -0.8971  0.5167
 1598TIP3    H226210   4.642   5.042   5.024  0.8231  0.6935 -1.5872
 1599TIP3   OH226211   2.801   2.232  10.773  0.4917 -0.6731 -0.0246
 1599TIP3    H126212   2.814   2.230  10.678  0.5289  2.0875 -0.1575
 1599TIP3    H226213   2.889   2.219  10.809  0.5478 -1.3042 -0.3788
 1600TIP3   OH226214   5.721   1.842  13.559  0.5091 -0.2846  0.6109
 1600TIP3    H126215   5.661   1.900  13.607  1.6706  0.0832  1.6756
 1600TIP3    H226216   5.713   1.758  13.602 -1.0346 -0.9294 -0.8176
 1601TIP3   OH226217   3.514   6.550  12.616 -0.1784  0.1388  0.2063
 1601TIP3    H126218   3.513   6.613  12.544 -1.6722  1.2329  1.1366
 1601TIP3    H226219   3.422   6.530  12.632  0.1163 -0.1070  1.7765
 1602TIP3   OH226220   0.931   5.932   0.985 -0.0091  0.3867  0.1625
 1602TIP3    H126221   0.838   5.911   0.992 -0.0263 -0.1444 -1.2198
 1602TIP3    H226222   0.933   6.022   0.952 -0.0240  0.4874  0.4337
 1603TIP3   OH226223   3.617   1.709  17.001 -0.1659 -0.1344 -0.0763
 1603TIP3    H126224   3.547   1.707  17.067 -0.3914 -2.4914 -0.2900
 1603TIP3    H226225   3.690   1.663  17.042 -0.2170 -1.4092 -1.3391
 1604TIP3   OH226226   5.359   3.186  16.797 -0.0385 -0.2383 -0.2848
 1604TIP3    H126227   5.301   3.227  16.733  0.9422  1.4502 -0.1502
 1604TIP3    H226228   5.444   3.228  16.783  0.2410  0.0653  1.9972
 1605TIP3   OH226229   6.645   0.082   1.737 -0.3203 -0.7160 -0.0486
 1605TIP3    H126230   6.671   0.168   1.771  0.5784 -0.6230 -0.9181
 1605TIP3    H226231   6.609   0.100   1.650 -0.6051 -1.1676 -0.0285
 1606TIP3   OH226232   1.497   4.693   1.999  0.0471  0.0613  0.1753
 1606TIP3    H126233   1.554   4.685   1.923 -1.2228 -0.4925 -0.7632
 1606TIP3    H226234   1.459   4.605   2.010 -2.4859  0.9341 -0.7878
 1607TIP3   OH226235   2.249   3.198  16.790 -0.2691 -0.4891 -0.0313
 1607TIP3    H126236   2.327   3.190  16.736 -0.3614 -2.0940  0.0053
 1607TIP3    H226237   2.244   3.290  16.813  1.0934 -0.2031 -0.7945
 1608TIP3   OH226238   1.740   4.669  13.439 -0.5784 -0.1342  0.6017
 1608TIP3    H126239   1.709   4.585  13.404 -2.0252  0.2760  0.8259
 1608TIP3    H226240   1.682   4.734  13.399 -0.6003  0.5939  1.7766
 1609TIP3   OH226241   5.975   4.209   0.990  0.2422  0.1527 -0.0806
 1609TIP3    H126242   5.905   4.211   0.924  0.1855 -0.7990 -0.0605
 1609TIP3    H226243   6.055   4.195   0.939 -0.0015 -2.5580  0.1465
 1610TIP3   OH226244   6.358   0.543  10.511  0.4040  0.0534  0.0370
 1610TIP3    H126245   6.405   0.624  10.491 -0.9093  0.5937 -1.0433
 1610TIP3    H226246   6.268   0.571  10.526 -0.1460 -1.2315 -0.6941
 1611TIP3   OH226247   0.659   4.566   3.655 -0.2749 -0.2428 -0.1732
 1611TIP3    H126248   0.684   4.657   3.637 -2.2104  0.4835  0.5980
 1611TIP3    H226249   0.650   4.526   3.568  2.0212 -0.1791 -0.5168
 1612TIP3   OH226250   6.511   5.486   3.615  0.0185 -0.8923  0.2654
 1612TIP3    H126251   6.484   5.451   3.700 -2.2316  0.9262  0.4101
 1612TIP3    H226252   6.519   5.409   3.559  0.1302 -2.0044  1.7430
 1613TIP3   OH226253   6.527   2.152  14.561 -0.0109  0.3675 -0.4998
 1613TIP3    H126254   6.507   2.157  14.654 -1.7262  1.8689 -0.9023
 1613TIP3    H226255   6.608   2.203  14.552  1.6040 -1.8515  0.4602
 1614TIP3   OH226256   0.740   2.361   1.607  0.4371 -0.3530  0.0942
 1614TIP3    H126257   0.716   2.272   1.632  3.0184 -1.0909  0.2742
 1614TIP3    H226258   0.733   2.362   1.512 -1.2349 -0.1817  0.1951
 1615TIP3   OH226259   1.355   3.028   3.104 -0.4246  0.1910  0.0287
 1615TIP3    H126260   1.291   3.030   3.033 -0.5427  0.9264  0.1524
 1615TIP3    H226261   1.434   2.991   3.065 -0.4155  0.8130 -0.5497
 1616TIP3   OH226262   5.300   0.425   1.749  0.0779  0.2985  0.1696
 1616TIP3    H126263   5.254   0.342   1.749  1.7407 -0.6871  1.3900
 1616TIP3    H226264   5.319   0.443   1.657 -0.0322 -0.8400 -0.0826
 1617TIP3   OH226265   6.181   2.864  16.476 -0.9480 -0.8148 -0.1448
 1617TIP3    H126266   6.268   2.837  16.508 -1.0125  1.4939  2.4103
 1617TIP3    H226267   6.121   2.798  16.511 -0.6810  0.1928  2.4360
 1618TIP3   OH226268   5.046   6.223  11.794  0.3152 -0.3483 -0.1209
 1618TIP3    H126269   5.136   6.220  11.827  0.3470  0.8588 -0.0620
 1618TIP3    H226270   5.032   6.137  11.756  1.3269 -0.7259  0.3166
 1619TIP3   OH226271   2.066   0.666  15.850 -0.3086 -0.0190 -0.2370
 1619TIP3    H126272   2.085   0.736  15.913  2.2117 -0.4482 -0.4140
 1619TIP3    H226273   2.094   0.586  15.895  1.1761 -0.3753 -1.7023
 1620TIP3   OH226274   2.761   5.338   3.239 -0.0399 -0.3457  0.0188
 1620TIP3    H126275   2.835   5.313   3.184 -0.7680 -1.0239 -0.6754
 1620TIP3    H226276   2.711   5.400   3.186  0.4646  0.7806  0.8108
 1621TIP3   OH226277   0.855   1.127   5.792 -0.1850 -0.2712  0.6713
 1621TIP3    H126278   0.897   1.070   5.857 -0.2144  0.2868  1.1882
 1621TIP3    H226279   0.909   1.117   5.713  1.7401  1.3604  1.6625
 1622TIP3   OH226280   5.590   0.313  15.661  0.2240  0.0395  0.2724
 1622TIP3    H126281   5.547   0.260  15.594 -0.6074 -0.6384  1.3247
 1622TIP3    H226282   5.559   0.279  15.744 -1.3440  2.9615  1.0337
 1623TIP3   OH226283   4.732   0.083   6.342  0.0715  0.4973 -0.3821
 1623TIP3    H126284   4.675   0.144   6.295 -0.0854  1.5330  1.0674
 1623TIP3    H226285   4.807   0.135   6.369 -0.1337  0.1380  1.0213
 1624TIP3   OH226286   4.865   5.647   3.871 -0.5687  0.0562 -0.1157
 1624TIP3    H126287   4.785   5.665   3.821 -0.3259  0.8021 -0.2467
 1624TIP3    H226288   4.890   5.732   3.908 -1.5444 -0.7026  2.5086
 1625TIP3   OH226289   5.995   0.962   5.532 -0.0222  0.4292  0.2154
 1625TIP3    H126290   6.069   1.018   5.557  1.5666 -0.2867 -2.4727
 1625TIP3    H226291   5.958   1.004   5.454 -1.7276  0.1052  0.8100
 1626TIP3   OH226292   3.545   6.362  15.775  0.1047 -0.2201  0.0656
 1626TIP3    H126293   3.564   6.391  15.864 -1.3519 -1.9182  0.9881
 1626TIP3    H226294   3.501   6.278  15.786 -2.9695  0.9210 -2.0737
 1627TIP3   OH226295   1.419   2.032   4.180  0.4956 -0.0917  0.3571
 1627TIP3    H126296   1.417   1.943   4.144  1.6214  0.0439 -0.0758
 1627TIP3    H226297   1.512   2.053   4.187  0.2466  0.9252  0.7890
 1628TIP3   OH226298   3.469   3.513  12.961 -0.5891  0.2095 -0.4235
 1628TIP3    H126299   3.484   3.479  12.873 -1.3636  2.0982 -1.3482
 1628TIP3    H226300   3.550   3.495  13.009  0.5600  0.7982 -2.0858
 1629TIP3   OH226301   1.016   2.648  16.089  0.0486 -0.0409 -0.0916
 1629TIP3    H126302   0.950   2.674  16.025 -0.4847 -0.8092  0.1259
 1629TIP3    H226303   0.967   2.631  16.169  0.4044 -1.2510 -0.1020
 1630TIP3   OH226304   2.844   0.851  11.966  0.1639 -0.7172 -0.1628
 1630TIP3    H126305   2.820   0.761  11.988  0.1382 -0.4412  1.0184
 1630TIP3    H226306   2.858   0.893  12.051  1.0821  0.1504 -0.7274
 1631TIP3   OH226307   1.087   0.922  11.922  0.3021 -0.4909  0.1184
 1631TIP3    H126308   1.059   0.982  11.853 -0.5158  1.4729  2.0231
 1631TIP3    H226309   1.038   0.842  11.906  0.3417 -0.1884 -1.7061
 1632TIP3   OH226310   6.762   1.874   0.263  0.3239 -0.1003 -0.1413
 1632TIP3    H126311   6.736   1.907   0.176 -0.0012  0.5479  0.1938
 1632TIP3    H226312   6.847   1.915   0.279  2.0974 -2.8921 -1.6106
 1633TIP3   OH226313   1.819   3.639  15.045 -0.0214  0.3462  0.3756
 1633TIP3    H126314   1.764   3.599  15.113  0.0403 -1.7863 -0.7438
 1633TIP3    H226315   1.907   3.638  15.083 -0.2612  0.8426  0.9558
 1634TIP3   OH226316   3.957   4.215   4.683 -0.1982 -0.1091  0.4639
 1634TIP3    H126317   3.884   4.250   4.734  0.9560  0.2309  1.9152
 1634TIP3    H226318   4.030   4.210   4.744  0.9243 -0.7678 -0.8713
 1635TIP3   OH226319   2.144   2.834  14.558 -0.0902 -0.1447  0.2958
 1635TIP3    H126320   2.147   2.829  14.463  0.2629 -2.0479  0.3676
 1635TIP3    H226321   2.177   2.749  14.588  1.1261  0.9026  2.1503
 1636TIP3   OH226322   2.437   4.039   2.675  0.4140  0.3924 -0.3321
 1636TIP3    H126323   2.424   4.026   2.581  0.3568 -0.5370 -0.2035
 1636TIP3    H226324   2.521   4.084   2.681 -0.8783  3.1170 -0.9686
 1637TIP3   OH226325   6.353   3.631   3.497 -0.2208  0.2409  0.3555
 1637TIP3    H126326   6.444   3.657   3.510 -0.0466 -0.9386  1.8211
 1637TIP3    H226327   6.355   3.535   3.497 -1.5207  0.1851  1.0378
 1638TIP3   OH226328   0.660   3.404  13.546 -0.5427  0.4695 -0.3419
 1638TIP3    H126329   0.726   3.421  13.478 -1.0818  1.5878 -0.6053
 1638TIP3    H226330   0.710   3.406  13.628 -0.1126  0.5017 -0.5976
 1639TIP3   OH226331   3.858   3.451  11.832  0.1852  0.0925  0.5317
 1639TIP3    H126332   3.783   3.506  11.857 -1.1719 -1.2051 -0.4703
 1639TIP3    H226333   3.916   3.510  11.784 -1.1198  0.7266 -0.3149
 1640TIP3   OH226334   1.494   4.608   0.929 -0.5047 -0.1473  1.0704
 1640TIP3    H126335   1.478   4.693   0.970 -0.3954 -1.8546  5.0867
 1640TIP3    H226336   1.582   4.585   0.957 -1.1731 -2.2760  1.5752
 1641TIP3   OH226337   3.598   1.153   1.257  0.4347  0.0336 -0.1092
 1641TIP3    H126338   3.614   1.077   1.202  0.5351  1.0077 -1.4841
 1641TIP3    H226339   3.586   1.118   1.345 -0.8018 -1.6822 -0.9209
 1642TIP3   OH226340   5.700   6.413   1.887  0.0914  0.4731 -0.0184
 1642TIP3    H126341   5.725   6.399   1.796 -0.0217 -0.1809  0.0486
 1642TIP3    H226342   5.611   6.449   1.883 -0.6967 -1.3820 -0.1195
 1643TIP3   OH226343   1.318   1.382  13.783 -0.2145  0.5053 -0.5358
 1643TIP3    H126344   1.367   1.460  13.809 -0.1759  0.2934  0.0509
 1643TIP3    H226345   1.285   1.347  13.866  1.4256 -1.2250 -0.5566
 1644TIP3   OH226346   0.746   4.878   4.876 -0.1878 -0.4264 -0.2096
 1644TIP3    H126347   0.707   4.829   4.949  0.9739 -0.1161  0.6446
 1644TIP3    H226348   0.798   4.947   4.918 -1.5460  1.3964 -1.3733
 1645TIP3   OH226349   0.896   0.447   4.155 -0.2119  0.0056  0.1268
 1645TIP3    H126350   0.825   0.407   4.104  1.1233 -1.0875 -0.9727
 1645TIP3    H226351   0.853   0.484   4.232 -1.8969 -1.1284 -0.2223
 1646TIP3   OH226352   6.365   4.077   3.167 -0.3155 -0.1040  0.1338
 1646TIP3    H126353   6.329   4.033   3.244  2.3705 -0.9491  1.0241
 1646TIP3    H226354   6.420   4.011   3.125 -0.0779  0.9851 -1.3275
 1647TIP3   OH226355   6.147   0.590  15.916  0.6549  0.1202  0.7959
 1647TIP3    H126356   6.085   0.661  15.902  1.3505  0.5046 -0.4408
 1647TIP3    H226357   6.137   0.534  15.839  1.2730 -0.2528  0.9798
 1648TIP3   OH226358   6.666   2.043   4.399 -0.3144  0.0375 -0.1353
 1648TIP3    H126359   6.682   1.966   4.453  0.7173  0.4220  0.1421
 1648TIP3    H226360   6.579   2.073   4.425 -0.2164 -0.3239  0.6443
 1649TIP3   OH226361   5.550   2.043  11.135  0.3178 -0.2064  0.6140
 1649TIP3    H126362   5.476   2.044  11.075  0.2592  1.3858  0.6763
 1649TIP3    H226363   5.598   1.963  11.113  0.0801  0.1329 -1.2832
 1650TIP3   OH226364   4.257   5.766  15.350 -0.4863 -0.1394  0.5613
 1650TIP3    H126365   4.332   5.780  15.291 -0.9463 -0.0925 -0.0193
 1650TIP3    H226366   4.202   5.843  15.337 -0.6607 -0.1941  0.9600
 1651TIP3   OH226367   6.742   1.339  11.637  0.3247  0.2240 -0.8095
 1651TIP3    H126368   6.681   1.356  11.708 -0.0736 -1.1726 -0.7862
 1651TIP3    H226369   6.711   1.394  11.565 -0.1769  0.5054 -0.3811
 1652TIP3   OH226370   0.748   5.866   3.320 -0.0377 -0.1714  0.4041
 1652TIP3    H126371   0.753   5.776   3.287  0.2864 -0.0918  0.2218
 1652TIP3    H226372   0.764   5.920   3.242  0.7114  0.0207  0.6764
 1653TIP3   OH226373   0.069   6.039  13.081  0.2861 -0.3428  0.6238
 1653TIP3    H126374   0.048   6.111  13.022 -1.6037 -0.7420  0.7571
 1653TIP3    H226375   0.043   5.961  13.033  0.4617 -0.7987  1.2662
 1654TIP3   OH226376   3.960   2.586   0.837 -0.1859  0.2668  0.5967
 1654TIP3    H126377   3.970   2.493   0.814 -0.7184  0.2913  0.2468
 1654TIP3    H226378   3.928   2.584   0.927  0.7347  0.1412  0.9318
 1655TIP3   OH226379   1.591   2.451  15.773  0.0257 -0.0394 -0.3089
 1655TIP3    H126380   1.680   2.450  15.809  0.2090  0.0216 -0.7609
 1655TIP3    H226381   1.536   2.418  15.845  0.3438  0.3957  0.1452
 1656TIP3   OH226382   4.859   0.427   2.206  0.6890 -0.2299  0.3607
 1656TIP3    H126383   4.766   0.408   2.222  0.6914 -0.3969  0.1701
 1656TIP3    H226384   4.877   0.388   2.121  0.0146  2.9020 -1.3716
 1657TIP3   OH226385   0.217   3.958  13.390  0.0107  0.3764  0.0975
 1657TIP3    H126386   0.308   3.929  13.389 -0.6299 -1.9439  1.3985
 1657TIP3    H226387   0.212   4.019  13.463  0.5234  0.5573 -0.0153
 1658TIP3   OH226388   1.886   6.244  14.478 -0.1888 -0.1461 -0.2241
 1658TIP3    H126389   1.970   6.260  14.521  1.6294 -1.1822 -3.1048
 1658TIP3    H226390   1.837   6.188  14.539  1.6498 -0.4394  1.0501
 1659TIP3   OH226391   5.764   2.153  14.400 -0.1030 -0.1243 -0.3480
 1659TIP3    H126392   5.696   2.139  14.466  0.0054 -1.4126 -0.4902
 1659TIP3    H226393   5.808   2.069  14.393 -1.5292 -0.7417 -3.6478
 1660TIP3   OH226394   5.466   4.446   5.532  0.4107  0.0063 -0.0534
 1660TIP3    H126395   5.427   4.394   5.603 -1.6155 -1.1906 -1.9239
 1660TIP3    H226396   5.457   4.391   5.454  1.7952  1.6147 -1.4285
 1661TIP3   OH226397   6.309   6.245  11.429 -0.4132  0.4703  0.7555
 1661TIP3    H126398   6.349   6.301  11.496  1.1406 -0.6283  0.7866
 1661TIP3    H226399   6.286   6.306  11.359  2.2574  1.0910  0.3160
 1662TIP3   OH226400   6.809   4.574  14.033 -0.5418 -0.0566 -0.3747
 1662TIP3    H126401   6.800   4.655  14.084 -0.2833  0.6500 -1.4043
 1662TIP3    H226402   6.827   4.506  14.098 -1.0106  0.6646  0.5405
 1663TIP3   OH226403   2.852   0.051  12.576 -0.0258 -0.5225  0.3670
 1663TIP3    H126404   2.871   0.015  12.489  0.9368 -0.1039  0.3840
 1663TIP3    H226405   2.874   0.144  12.568  2.1674 -0.8738  1.6154
 1664TIP3   OH226406   0.102   1.043   2.963  0.3762  0.0789 -0.3699
 1664TIP3    H126407   0.152   1.125   2.971 -2.3680  1.8654 -0.3287
 1664TIP3    H226408   0.019   1.062   3.005 -0.8312 -2.3442 -1.5180
 1665TIP3   OH226409   2.698   0.266   1.373 -0.1947  0.5720 -0.0079
 1665TIP3    H126410   2.764   0.265   1.442 -0.3083 -0.0594  0.0958
 1665TIP3    H226411   2.744   0.297   1.295  0.2319  0.1077  0.0563
 1666TIP3   OH226412   3.007   6.353  15.988 -0.1473 -0.1809  0.2946
 1666TIP3    H126413   3.049   6.401  15.916  1.5266 -0.3066  1.1396
 1666TIP3    H226414   3.043   6.393  16.067 -0.7626 -1.0878  1.0544
 1667TIP3   OH226415   3.543   5.906  16.395  0.7136  0.6338  0.0825
 1667TIP3    H126416   3.562   5.978  16.335  1.1780 -0.5105 -1.1777
 1667TIP3    H226417   3.562   5.827  16.345 -0.1467 -0.3904  1.3135
 1668TIP3   OH226418   2.145   6.575   0.952  0.4768 -0.0793  0.2948
 1668TIP3    H126419   2.097   6.642   0.904 -1.7363 -1.0549  0.9929
 1668TIP3    H226420   2.089   6.555   1.027  1.7718 -1.6612  0.8927
 1669TIP3   OH226421   2.260   4.060  11.146 -0.8110  0.0795  0.0286
 1669TIP3    H126422   2.186   4.104  11.104 -0.3639 -0.6209 -1.5950
 1669TIP3    H226423   2.337   4.099  11.104 -0.3597 -1.1118 -0.2803
 1670TIP3   OH226424   6.473   0.308   4.300 -0.0635 -0.1044  0.1324
 1670TIP3    H126425   6.382   0.280   4.311 -0.0220 -0.3204 -0.0647
 1670TIP3    H226426   6.471   0.403   4.316 -0.2954 -0.1361  0.2870
 1671TIP3   OH226427   4.043   1.777   1.893 -0.3837  0.4521  0.0011
 1671TIP3    H126428   4.006   1.701   1.847  0.4295  0.5387 -0.8119
 1671TIP3    H226429   4.089   1.739   1.968 -2.1778  0.3492  1.1153
 1672TIP3   OH226430   5.734   1.536  12.653  0.1964 -0.3860 -0.1250
 1672TIP3    H126431   5.701   1.446  12.647 -0.1084 -0.2467 -0.6386
 1672TIP3    H226432   5.827   1.527  12.670  0.4669 -0.8242 -1.7043
 1673TIP3   OH226433   5.687   2.305  12.544  0.2155  0.1749 -0.0736
 1673TIP3    H126434   5.617   2.361  12.508  2.0196  0.6531 -3.2681
 1673TIP3    H226435   5.674   2.220  12.501 -1.1875 -1.3449  3.0723
 1674TIP3   OH226436   4.459   3.180  16.131 -0.3612 -0.1030 -0.0171
 1674TIP3    H126437   4.379   3.134  16.155 -1.2639  1.2640 -0.3259
 1674TIP3    H226438   4.430   3.253  16.076  0.9757  1.0851  0.7869
 1675TIP3   OH226439   6.122   6.151   2.824 -0.2208  0.2583 -0.5716
 1675TIP3    H126440   6.135   6.228   2.879 -1.2547  0.1256 -0.1095
 1675TIP3    H226441   6.177   6.083   2.863  0.5724  0.7168 -0.8877
 1676TIP3   OH226442   6.032   2.164   3.489  0.6952  0.1310 -0.0795
 1676TIP3    H126443   6.057   2.096   3.428 -0.4281 -0.3432 -0.0415
 1676TIP3    H226444   6.034   2.122   3.575  0.2726  0.2126 -0.0259
 1677TIP3   OH226445   0.199   5.925  13.420  0.0037  0.3160 -0.0147
 1677TIP3    H126446   0.243   5.950  13.502 -2.2370  1.5030  0.9324
 1677TIP3    H226447   0.112   5.966  13.427  0.1916  1.6438 -3.6379
 1678TIP3   OH226448   0.095   4.286  15.601  0.6106  0.1545  0.1718
 1678TIP3    H126449   0.046   4.216  15.643 -0.4524  0.0823 -1.1187
 1678TIP3    H226450   0.122   4.250  15.516  0.7029  1.0545 -0.1954
 1679TIP3   OH226451   6.656   0.521  14.788 -0.2536  0.7910 -0.0150
 1679TIP3    H126452   6.687   0.536  14.877  0.0929 -1.8355  0.3786
 1679TIP3    H226453   6.561   0.510  14.797 -0.0849 -0.6003  0.2362
 1680TIP3   OH226454   1.296   0.734   1.696 -0.3750  0.0562 -0.4265
 1680TIP3    H126455   1.283   0.797   1.768  0.3375  1.4401 -1.4678
 1680TIP3    H226456   1.348   0.782   1.632  0.1030 -1.5890 -1.3116
 1681TIP3   OH226457   4.526   6.342  16.688  0.3666  0.1450 -0.0525
 1681TIP3    H126458   4.430   6.346  16.678  0.0686 -1.2741  1.6620
 1681TIP3    H226459   4.546   6.248  16.683  1.5804  0.3669  0.3224
 1682TIP3   OH226460   2.075   5.083   4.886  0.5790  0.7896 -0.2780
 1682TIP3    H126461   2.010   5.094   4.955  1.1852  0.6264  0.3208
 1682TIP3    H226462   2.078   5.168   4.842 -0.1691  0.7434 -0.4294
 1683TIP3   OH226463   3.178   5.913  14.493 -0.0179  0.6119 -0.2536
 1683TIP3    H126464   3.098   5.945  14.534 -0.0608  1.2834 -0.8431
 1683TIP3    H226465   3.167   5.933  14.400  0.1589 -0.6941 -0.5817
 1684TIP3   OH226466   0.620   2.331   1.311  0.8886 -0.4328  0.1721
 1684TIP3    H126467   0.613   2.343   1.216  1.3561  1.4586  0.3275
 1684TIP3    H226468   0.531   2.315   1.340  0.6036 -0.1458 -0.5058
 1685TIP3   OH226469   2.073   2.323   2.714 -0.6829  0.4298  0.4880
 1685TIP3    H126470   2.107   2.247   2.761  1.3734 -0.1776 -1.8157
 1685TIP3    H226471   1.983   2.300   2.692 -0.3523 -0.9826  0.5453
 1686TIP3   OH226472   1.555   3.544  12.670  0.5787 -0.1602 -0.1509
 1686TIP3    H126473   1.556   3.512  12.580  3.1312  1.4822 -0.8143
 1686TIP3    H226474   1.463   3.541  12.696 -0.7550  1.9617 -3.8358
 1687TIP3   OH226475   0.951   3.775   0.387  0.3932  0.4122 -0.0758
 1687TIP3    H126476   0.866   3.737   0.409 -0.1251  0.4576 -1.7919
 1687TIP3    H226477   0.935   3.823   0.305  2.2910 -0.4625 -1.0336
 1688TIP3   OH226478   4.534   1.601  14.379  0.0231 -0.5953  0.0967
 1688TIP3    H126479   4.484   1.523  14.353  0.5193 -0.6282 -0.7810
 1688TIP3    H226480   4.477   1.645  14.442 -0.5128 -1.3647  0.1730
 1689TIP3   OH226481   4.472   6.560  13.125  0.4967 -0.3174 -0.0448
 1689TIP3    H126482   4.536   6.491  13.109  3.1093  2.1693 -1.3349
 1689TIP3    H226483   4.430   6.573  13.040 -0.7642 -0.9591  0.4511
 1690TIP3   OH226484   1.025   2.919   3.604 -0.5934  0.7673  0.0991
 1690TIP3    H126485   1.034   2.838   3.653 -2.5616  1.2622  1.4007
 1690TIP3    H226486   1.114   2.943   3.579  0.3620 -0.1624  2.3898
 1691TIP3   OH226487   6.166   1.090   4.748  0.1104 -0.2496  0.3430
 1691TIP3    H126488   6.218   1.046   4.815  1.0864 -0.4731 -0.5346
 1691TIP3    H226489   6.186   1.183   4.760  0.3170 -0.2922  0.3272
 1692TIP3   OH226490   5.295   3.428   3.268 -0.0698  1.1634  0.1880
 1692TIP3    H126491   5.361   3.485   3.308 -0.0170  1.4952 -0.3648
 1692TIP3    H226492   5.307   3.439   3.174 -0.7333  1.0170  0.0791
 1693TIP3   OH226493   5.735   5.734  15.742 -0.1826  0.1224 -0.1761
 1693TIP3    H126494   5.787   5.692  15.810  1.2662  2.1188  0.0302
 1693TIP3    H226495   5.798   5.790  15.695 -1.6778  0.7870 -1.4736
 1694TIP3   OH226496   2.165   1.168   2.930  0.3577 -0.5043  0.8040
 1694TIP3    H126497   2.107   1.093   2.923  1.0751 -1.1776  1.8339
 1694TIP3    H226498   2.106   1.242   2.948 -0.3531 -0.7826 -0.2930
 1695TIP3   OH226499   1.002   2.807   6.085  0.3613  0.1021 -0.0612
 1695TIP3    H126500   1.024   2.780   6.174  0.1712  0.3955  0.0771
 1695TIP3    H226501   1.051   2.748   6.029  1.2147  0.5130  0.2383
 1696TIP3   OH226502   2.476   6.677   1.181  0.4618  0.5663 -0.6182
 1696TIP3    H126503   2.452   6.770   1.182 -0.3234  0.3723 -1.1391
 1696TIP3    H226504   2.452   6.646   1.094 -2.6387 -0.9523  0.5938
 1697TIP3   OH226505   4.881   2.270   1.494  0.7429  0.0131 -0.1656
 1697TIP3    H126506   4.944   2.208   1.529  0.4109 -1.8336 -2.5355
 1697TIP3    H226507   4.797   2.244   1.533  0.8552  0.0201  0.0826
 1698TIP3   OH226508   2.686   5.598  14.812 -0.4317 -0.2662  0.3350
 1698TIP3    H126509   2.712   5.690  14.812 -5.3069  1.4679 -1.7860
 1698TIP3    H226510   2.596   5.598  14.844 -1.2341 -4.0576 -1.2546
 1699TIP3   OH226511   1.843   4.997   3.233  0.1175  0.8728  0.3288
 1699TIP3    H126512   1.747   5.006   3.238 -0.0423  0.0375 -0.8789
 1699TIP3    H226513   1.859   4.961   3.146  1.2886 -2.2154  1.6783
 1700TIP3   OH226514   4.344   1.519  13.364  0.4312  0.2841 -0.1896
 1700TIP3    H126515   4.389   1.602  13.344 -1.0621  1.1934  0.0876
 1700TIP3    H226516   4.315   1.529  13.454 -2.3143  0.7267 -1.0255
 1701TIP3   OH226517   3.859   1.145  15.857 -0.3284  0.4665  0.0865
 1701TIP3    H126518   3.944   1.162  15.817 -0.4010 -1.8431 -1.2398
 1701TIP3    H226519   3.880   1.104  15.941 -0.0677 -0.8958 -0.6129
 1702TIP3   OH226520   5.369   4.709   2.777 -0.3051  0.8770  0.0235
 1702TIP3    H126521   5.396   4.749   2.859 -0.4318  1.2067 -0.0950
 1702TIP3    H226522   5.421   4.629   2.771 -2.1044 -0.5321  1.6839
 1703TIP3   OH226523   2.695   0.357  16.381 -0.0942  0.1730  0.0681
 1703TIP3    H126524   2.749   0.304  16.439 -0.9126  1.3642  1.9927
 1703TIP3    H226525   2.619   0.301  16.363  0.1195 -0.1719  0.2271
 1704TIP3   OH226526   4.091   0.013  12.400 -0.4245 -0.2517 -0.3271
 1704TIP3    H126527   4.029  -0.039  12.349  1.0153 -1.1246 -1.2646
 1704TIP3    H226528   4.109   0.089  12.345  1.0336 -1.1324 -1.1478
 1705TIP3   OH226529   3.065   6.679  13.926 -0.0946 -0.3682  0.6603
 1705TIP3    H126530   3.115   6.758  13.904 -1.5801  0.4372  0.0043
 1705TIP3    H226531   3.074   6.623  13.849 -0.2749 -0.1682  0.4885
 1706TIP3   OH226532   1.189   4.173   1.152 -0.1907 -0.4300  0.1368
 1706TIP3    H126533   1.259   4.238   1.156 -0.6712  0.0974  0.0088
 1706TIP3    H226534   1.179   4.142   1.242 -0.7384  0.5009  0.4016
 1707TIP3   OH226535   0.884   4.170  16.574  0.2155 -0.3947 -0.3951
 1707TIP3    H126536   0.796   4.201  16.552  0.2367  0.0294  0.0992
 1707TIP3    H226537   0.869   4.096  16.632  0.1825 -0.3825 -0.3869
 1708TIP3   OH226538   0.247   5.965  14.039  0.6172  0.1752  0.5669
 1708TIP3    H126539   0.317   6.017  13.999  0.3813 -1.3393 -2.0612
 1708TIP3    H226540   0.169   6.019  14.031  0.4143 -0.3644 -1.9356
 1709TIP3   OH226541   5.070   2.732   5.969 -0.0207 -0.1782  0.5174
 1709TIP3    H126542   5.166   2.733   5.961 -0.0292  1.0152  0.3216
 1709TIP3    H226543   5.053   2.755   6.060 -0.1218 -0.6863  0.6291
 1710TIP3   OH226544   3.090   5.197  12.750 -0.0390 -0.0695  0.4391
 1710TIP3    H126545   3.035   5.125  12.718  0.0065  0.4661 -0.9317
 1710TIP3    H226546   3.031   5.250  12.803 -0.2613 -0.7106  0.8457
 1711TIP3   OH226547   6.178   3.338   0.451 -0.7239 -0.0077  0.0284
 1711TIP3    H126548   6.257   3.348   0.505 -0.6674  1.2938 -0.2576
 1711TIP3    H226549   6.135   3.260   0.485  1.2427 -1.4124 -0.5189
 1712TIP3   OH226550   1.385   2.908   5.202 -1.2781 -0.9023 -0.0673
 1712TIP3    H126551   1.301   2.899   5.157 -1.5763  0.8215  0.0842
 1712TIP3    H226552   1.379   2.991   5.248  1.0158 -0.0523 -1.1522
 1713TIP3   OH226553   1.686   6.666  16.848  0.1966 -0.0330 -0.2640
 1713TIP3    H126554   1.736   6.596  16.807 -0.8863 -0.3594 -1.0736
 1713TIP3    H226555   1.643   6.625  16.923  0.1596 -0.0604 -0.2995
 1714TIP3   OH226556   3.736   5.362  16.812 -0.5522 -0.1237 -0.3294
 1714TIP3    H126557   3.681   5.426  16.767 -1.8706 -0.8580  0.1799
 1714TIP3    H226558   3.734   5.285  16.756 -0.6632 -0.4127  0.0742
 1715TIP3   OH226559   5.539   3.959   5.696 -0.6857 -0.1930  0.1748
 1715TIP3    H126560   5.584   3.968   5.779 -0.4727  1.3253 -0.0879
 1715TIP3    H226561   5.583   4.021   5.638 -1.9074 -0.0363 -0.6068
 1716TIP3   OH226562   4.143   6.633  15.196  0.0392 -0.6226  0.2209
 1716TIP3    H126563   4.049   6.650  15.191 -0.1202 -0.9794  1.6633
 1716TIP3    H226564   4.152   6.539  15.175  0.0497 -0.6497  0.3481
 1717TIP3   OH226565   3.567   1.092  12.119  0.1084 -0.5684 -0.1903
 1717TIP3    H126566   3.600   1.068  12.032  0.4016  1.8118 -0.8165
 1717TIP3    H226567   3.475   1.111  12.105 -0.2766 -1.8667  0.4245
 1718TIP3   OH226568   1.628   2.763  16.283 -0.3060 -0.0027  0.3024
 1718TIP3    H126569   1.560   2.707  16.245 -0.0992 -0.2035  0.2286
 1718TIP3    H226570   1.593   2.788  16.369 -0.3644 -0.3064  0.3662
 1719TIP3   OH226571   2.293   6.388   4.617  0.1766  0.9866  0.1385
 1719TIP3    H126572   2.340   6.319   4.663 -1.0392  0.8690  1.2623
 1719TIP3    H226573   2.321   6.381   4.526  0.6860 -0.4467  0.3959
 1720TIP3   OH226574   4.044   2.424   0.598  0.4260 -0.1710 -0.1395
 1720TIP3    H126575   4.055   2.514   0.630 -1.4265 -0.3498  1.1809
 1720TIP3    H226576   4.036   2.433   0.503 -1.1393  1.2728  0.0719
 1721TIP3   OH226577   0.102   1.196   3.738  0.5364  0.4316 -0.2644
 1721TIP3    H126578   0.048   1.119   3.721  0.3975  0.3433  0.5264
 1721TIP3    H226579   0.044   1.270   3.720  0.2905  0.3387  0.1258
 1722TIP3   OH226580   3.675   5.019   3.443  0.2322  0.0038 -0.5506
 1722TIP3    H126581   3.743   4.952   3.434  0.6236  0.1651  0.8809
 1722TIP3    H226582   3.610   4.979   3.500 -1.0576 -0.2481 -2.1213
 1723TIP3   OH226583   2.366   2.425   0.410  0.1545  0.4979 -0.0818
 1723TIP3    H126584   2.382   2.331   0.421 -0.1934  0.3889 -0.4738
 1723TIP3    H226585   2.409   2.448   0.328  0.8793  0.8467  0.3845
 1724TIP3   OH226586   1.317   3.389   2.302  0.3699 -0.0072  0.1866
 1724TIP3    H126587   1.227   3.419   2.294  0.6403  0.5082 -1.2298
 1724TIP3    H226588   1.341   3.362   2.213  2.1544  1.4851  0.1630
 1725TIP3   OH226589   3.334   6.338  11.100  0.3000  0.2755 -0.1388
 1725TIP3    H126590   3.387   6.333  11.021  0.6304 -1.0726  0.1451
 1725TIP3    H226591   3.255   6.290  11.079  0.0238  0.6274  0.0844
 1726TIP3   OH226592   0.568   5.083   3.525  0.2015 -0.0471 -0.1317
 1726TIP3    H126593   0.498   5.074   3.589 -0.1076 -1.5968 -0.6521
 1726TIP3    H226594   0.545   5.161   3.475 -0.2159  0.4527  0.8190
 1727TIP3   OH226595   1.553   0.096  11.742  0.3228  0.3756  0.1618
 1727TIP3    H126596   1.543   0.002  11.728  1.2161 -0.0042  1.8367
 1727TIP3    H226597   1.646   0.108  11.761 -0.1429  1.2524  2.1629
 1728TIP3   OH226598   5.002   4.020  16.179 -0.3998  0.7894 -0.0172
 1728TIP3    H126599   5.083   3.981  16.212 -0.4021 -0.8262 -1.7919
 1728TIP3    H226600   5.030   4.077  16.107 -0.8474 -0.3874 -1.1684
 1729TIP3   OH226601   2.383   0.701  12.525 -0.1277 -1.2193  0.7142
 1729TIP3    H126602   2.426   0.621  12.555  0.4942 -0.7265  1.1421
 1729TIP3    H226603   2.415   0.770  12.583 -1.8110 -0.8944  1.3156
 1730TIP3   OH226604   2.132   2.009   3.121 -0.4645  0.0108 -0.1663
 1730TIP3    H126605   2.080   1.976   3.194  1.2934  0.9077  1.5888
 1730TIP3    H226606   2.112   2.102   3.117 -0.1445  0.0718 -0.4604
 1731TIP3   OH226607   0.932   2.914   1.372 -0.1883 -0.4899 -0.3969
 1731TIP3    H126608   0.924   2.952   1.459  1.9147 -0.1958 -0.2666
 1731TIP3    H226609   0.975   2.830   1.387  0.1181 -0.4709 -1.1316
 1732TIP3   OH226610   2.650   1.084  12.830 -0.0814 -0.4159 -0.1668
 1732TIP3    H126611   2.687   1.085  12.918 -3.4028 -1.6772  1.3977
 1732TIP3    H226612   2.629   1.176  12.812  0.9881 -0.0970  0.1507
 1733TIP3   OH226613   6.665   4.722   0.579 -0.0256 -0.3178  0.0584
 1733TIP3    H126614   6.644   4.813   0.556 -1.8943 -0.7043  0.0845
 1733TIP3    H226615   6.658   4.675   0.496 -0.6685 -0.7029  0.3292
 1734TIP3   OH226616   1.829   0.557  15.057 -0.3312  0.0263  0.3321
 1734TIP3    H126617   1.737   0.549  15.030 -0.6152 -0.7864  1.4361
 1734TIP3    H226618   1.867   0.620  14.996 -1.5347  0.1094 -0.3666
 1735TIP3   OH226619   3.686   5.091   5.284 -0.5361  0.3634  0.4052
 1735TIP3    H126620   3.681   4.998   5.258 -0.1041  0.0215  1.4969
 1735TIP3    H226621   3.602   5.108   5.327  0.5920 -0.4562  3.0845
 1736TIP3   OH226622   4.414   0.233   3.040 -0.4947  0.6767 -0.1830
 1736TIP3    H126623   4.340   0.174   3.026 -0.9117  0.4657  2.3973
 1736TIP3    H226624   4.375   0.311   3.078  0.4723  1.1300 -0.1064
 1737TIP3   OH226625   5.161   0.258  11.470  0.2383  0.1985 -0.0964
 1737TIP3    H126626   5.222   0.327  11.493 -1.0426  1.4760 -0.4203
 1737TIP3    H226627   5.158   0.258  11.374 -1.1326  0.9670 -0.0774
 1738TIP3   OH226628   0.388   1.216   3.645  0.0873 -0.5012 -0.4748
 1738TIP3    H126629   0.319   1.201   3.709  0.2026 -2.5716 -0.7691
 1738TIP3    H226630   0.399   1.131   3.601  1.3973  0.3265 -1.8426
 1739TIP3   OH226631   4.700   2.336  10.651 -0.1944 -0.0377  0.0438
 1739TIP3    H126632   4.680   2.378  10.567  1.4460  0.6778 -0.0429
 1739TIP3    H226633   4.627   2.358  10.707 -1.2754 -0.4347 -1.1597
 1740TIP3   OH226634   1.524   1.743   6.566  0.1520 -0.0703  0.4932
 1740TIP3    H126635   1.482   1.752   6.481 -1.2324  0.2248  1.1791
 1740TIP3    H226636   1.504   1.824   6.612 -2.8090 -1.7728  2.6065
 1741TIP3   OH226637   3.121   3.133  11.991  0.0248 -0.0688  0.2115
 1741TIP3    H126638   3.133   3.190  11.914 -0.7684  0.2850  0.3379
 1741TIP3    H226639   3.200   3.148  12.044 -0.4760  1.4605  0.5792
 1742TIP3   OH226640   1.911   3.208  12.576 -0.3715  0.3231 -0.2318
 1742TIP3    H126641   1.963   3.179  12.652 -1.7170 -0.6776  0.3400
 1742TIP3    H226642   1.926   3.303  12.572  1.0584  0.1400  0.2361
 1743TIP3   OH226643   5.244   2.935  14.975  0.2888  1.0981 -0.6420
 1743TIP3    H126644   5.231   2.850  15.017  0.4391  2.9379  3.6904
 1743TIP3    H226645   5.337   2.939  14.956  1.1825  1.6081  3.0042
 1744TIP3   OH226646   0.206   0.731  15.438 -0.2642 -0.3137 -0.4858
 1744TIP3    H126647   0.242   0.721  15.526 -2.4774 -1.5573  0.3503
 1744TIP3    H226648   0.273   0.697  15.380  0.6411 -0.8371  0.8327
 1745TIP3   OH226649   2.643   0.995  11.796  0.2665 -0.2393 -0.0573
 1745TIP3    H126650   2.705   0.955  11.857  1.0213 -0.1053 -0.7191
 1745TIP3    H226651   2.687   0.991  11.711  0.6585  2.5270 -0.0673
 1746TIP3   OH226652   4.480   3.623  12.956  0.2400  0.1454 -0.2573
 1746TIP3    H126653   4.411   3.634  13.021  1.2917 -3.0347  1.6309
 1746TIP3    H226654   4.525   3.707  12.954 -0.2861  0.5910  2.6884
 1747TIP3   OH226655   6.773   6.487  12.484 -0.3594 -0.0352 -0.0007
 1747TIP3    H126656   6.763   6.582  12.498  1.7432  0.1838  0.3476
 1747TIP3    H226657   6.779   6.478  12.389  1.4106  0.4706  0.0263
 1748TIP3   OH226658   5.244   0.377  15.532  0.6356  0.0366  0.2245
 1748TIP3    H126659   5.292   0.442  15.584  0.7723 -0.5899  0.8957
 1748TIP3    H226660   5.302   0.357  15.459  0.3315  1.1236 -0.3483
 1749TIP3   OH226661   1.191   3.151   5.684  0.3847  0.2151 -0.0609
 1749TIP3    H126662   1.129   3.219   5.710  0.8817  0.2556  1.1142
 1749TIP3    H226663   1.270   3.199   5.658  0.0060  0.1575 -1.3602
 1750TIP3   OH226664   0.949   3.904  16.693 -0.1169  0.6914  0.4866
 1750TIP3    H126665   1.033   3.893  16.648 -0.2213 -0.1290  0.4709
 1750TIP3    H226666   0.899   3.826  16.669 -1.6510  2.0756 -1.1336
 1751TIP3   OH226667   1.404   3.660  12.379 -0.3809  0.2088  0.2894
 1751TIP3    H126668   1.362   3.593  12.324 -0.8541 -0.5804  1.5643
 1751TIP3    H226669   1.493   3.665  12.346 -0.4069 -0.8963  0.0064
 1752TIP3   OH226670   1.096   5.393  11.554  0.7412 -0.2813 -0.5779
 1752TIP3    H126671   1.046   5.475  11.561  2.7955  0.9785  0.1494
 1752TIP3    H226672   1.089   5.369  11.462  0.2462  0.8106 -0.8460
 1753TIP3   OH226673   4.132   3.883   6.056 -0.0458 -0.0690  0.5058
 1753TIP3    H126674   4.152   3.895   5.964  0.8791  0.6556  0.7849
 1753TIP3    H226675   4.157   3.966   6.097  3.2265 -1.6117  1.9955
 1754TIP3   OH226676   1.393   4.356  14.547  0.1111  0.0264 -0.1910
 1754TIP3    H126677   1.311   4.360  14.598  0.3340  0.0275  0.1687
 1754TIP3    H226678   1.416   4.264  14.546  0.5778  0.1345  0.4609
 1755TIP3   OH226679   2.946   1.046  10.985  0.4733  0.6206  0.1074
 1755TIP3    H126680   2.910   1.134  10.992  1.4082  1.0304 -0.1275
 1755TIP3    H226681   2.974   1.038  10.893 -1.6508 -0.7468 -0.5003
 1756TIP3   OH226682   2.399   0.153  13.073 -0.1092 -0.0151 -0.3449
 1756TIP3    H126683   2.410   0.229  13.130  0.4475 -2.1967  2.7620
 1756TIP3    H226684   2.313   0.118  13.096  0.2490 -1.1055 -0.5804
 1757TIP3   OH226685   3.164   6.064   2.972  0.7032 -0.7601 -0.1161
 1757TIP3    H126686   3.219   6.058   2.895 -0.5600  1.5116 -1.3076
 1757TIP3    H226687   3.211   6.125   3.030  0.9588 -1.3304  0.2811
 1758TIP3   OH226688   6.475   2.656   0.541 -0.0837  0.3174 -0.1205
 1758TIP3    H126689   6.511   2.614   0.619  1.7660  1.7100 -0.1478
 1758TIP3    H226690   6.514   2.609   0.467  0.1079  0.5478 -0.1696
 1759TIP3   OH226691   0.388   1.195  13.575 -0.5226 -0.7483  0.0308
 1759TIP3    H126692   0.463   1.136  13.577  0.9781  1.0724  1.4721
 1759TIP3    H226693   0.350   1.187  13.663 -0.1022  0.6005  0.3606
 1760TIP3   OH226694   5.447   3.579  11.312 -0.2589 -0.1319 -0.3314
 1760TIP3    H126695   5.498   3.575  11.393 -0.7106 -2.4113 -0.0891
 1760TIP3    H226696   5.460   3.493  11.271 -0.6585  0.6873 -2.3168
 1761TIP3   OH226697   2.320   5.803  11.780  0.1575  0.2501  0.1788
 1761TIP3    H126698   2.351   5.713  11.767  0.0538  0.3185 -0.6003
 1761TIP3    H226699   2.365   5.854  11.713  0.3626  0.8178  0.7422
 1762TIP3   OH226700   2.123   5.961  13.234 -0.1758  0.8029  0.4094
 1762TIP3    H126701   2.144   5.898  13.164  1.2563  0.0320  1.4837
 1762TIP3    H226702   2.186   6.032  13.221 -1.8392  2.1177 -0.8476
 1763TIP3   OH226703   1.768   2.213  13.571  0.7450 -0.3124  0.2288
 1763TIP3    H126704   1.779   2.153  13.644 -1.5209 -2.4050 -1.0085
 1763TIP3    H226705   1.688   2.262  13.591  1.4200  0.8199  0.2340
 1764TIP3   OH226706   0.367   2.598  13.469 -0.2073  0.2403 -0.0408
 1764TIP3    H126707   0.443   2.540  13.461 -0.6450 -0.2788 -0.4781
 1764TIP3    H226708   0.405   2.686  13.471  0.5452 -0.0924  1.8257
 1765TIP3   OH226709   4.636   2.893   2.138  0.0109 -0.0045 -0.6528
 1765TIP3    H126710   4.655   2.813   2.088  0.0519  0.9744 -2.2769
 1765TIP3    H226711   4.598   2.953   2.074  0.9126  1.6443  0.2725
 1766TIP3   OH226712   3.201   5.606  11.585 -0.1071  0.0924 -0.2292
 1766TIP3    H126713   3.165   5.517  11.588  0.9984 -0.4599 -1.9070
 1766TIP3    H226714   3.135   5.660  11.628 -2.1368 -1.1143 -1.6505
 1767TIP3   OH226715   1.681   4.210   1.567 -0.4751 -0.5865 -0.0431
 1767TIP3    H126716   1.763   4.178   1.531 -1.9236 -1.7729 -2.5871
 1767TIP3    H226717   1.653   4.142   1.628 -0.4377 -1.0946 -0.5804
 1768TIP3   OH226718   3.134   5.940  16.957 -0.3290  0.7819 -0.3753
 1768TIP3    H126719   3.140   6.014  17.017  1.3384 -1.7897  2.9998
 1768TIP3    H226720   3.050   5.900  16.977  0.8902 -0.9951  1.6827
 1769TIP3   OH226721   5.070   4.246  16.798  0.1157 -0.0387 -0.1586
 1769TIP3    H126722   4.983   4.214  16.774  0.1196  1.4231 -2.4253
 1769TIP3    H226723   5.121   4.166  16.813 -1.4264 -0.9352  0.5758
 1770TIP3   OH226724   2.245   2.249  12.748 -0.0741 -0.2813  0.3823
 1770TIP3    H126725   2.311   2.251  12.679  0.0204  0.4765  0.4897
 1770TIP3    H226726   2.164   2.278  12.705  0.4401  2.3367  1.0476
 1771TIP3   OH226727   1.288   1.460  16.439 -0.1831 -0.6519  0.1258
 1771TIP3    H126728   1.213   1.487  16.386  0.1878  2.7434  1.0746
 1771TIP3    H226729   1.362   1.506  16.399  0.8622 -1.5369  1.0091
 1772TIP3   OH226730   3.632   2.361   4.241 -0.5535 -0.9022  0.5417
 1772TIP3    H126731   3.556   2.354   4.298  0.1729  0.8759  1.8173
 1772TIP3    H226732   3.657   2.270   4.223 -0.3260 -1.6122  3.7876
 1773TIP3   OH226733   2.293   3.785  12.683 -0.4458 -0.3850 -0.3784
 1773TIP3    H126734   2.286   3.874  12.716  0.2248 -1.5058  3.1472
 1773TIP3    H226735   2.351   3.792  12.607  2.3044  1.8126  1.7270
 1774TIP3   OH226736   5.383   3.996   2.627  0.0613 -0.6452  0.0911
 1774TIP3    H126737   5.312   3.973   2.686  0.6605  0.2103  1.1920
 1774TIP3    H226738   5.401   3.915   2.578 -1.6922 -0.8455 -0.2699
 1775TIP3   OH226739   1.566   4.564   0.268 -0.0312 -0.1353  0.8261
 1775TIP3    H126740   1.627   4.627   0.305  0.1441  0.5908 -0.6161
 1775TIP3    H226741   1.598   4.479   0.296  0.8951  0.3127  1.1468
 1776TIP3   OH226742   2.324   0.370   0.533 -0.2335  0.1094 -0.1517
 1776TIP3    H126743   2.378   0.382   0.611  0.4254  1.8682 -0.8358
 1776TIP3    H226744   2.300   0.458   0.506 -1.2506 -0.5136 -1.4144
 1777TIP3   OH226745   0.692   4.470  13.034 -0.2929 -0.1429  0.0391
 1777TIP3    H126746   0.784   4.482  13.013 -0.6961 -1.4306 -3.0734
 1777TIP3    H226747   0.645   4.518  12.965 -1.9395 -0.3823  0.9312
 1778TIP3   OH226748   4.985   0.828  12.101 -0.8273  0.6725  0.0974
 1778TIP3    H126749   4.896   0.796  12.116 -0.8745  0.3748 -0.7813
 1778TIP3    H226750   5.040   0.768  12.151 -1.0212  0.0252 -0.4452
 1779TIP3   OH226751   6.687   2.898  10.373  0.1533  0.1966 -0.4170
 1779TIP3    H126752   6.715   2.975  10.422  2.6188 -1.2395  0.6065
 1779TIP3    H226753   6.703   2.825  10.432  1.5861 -1.4517 -2.6849
 1780TIP3   OH226754   1.200   5.250   4.767  0.1035 -0.0740 -0.0547
 1780TIP3    H126755   1.203   5.309   4.842 -1.0569  0.7568 -0.6188
 1780TIP3    H226756   1.139   5.292   4.706 -0.5948 -1.7325 -0.5769
 1781TIP3   OH226757   6.306   1.678   0.480  0.1859 -0.3465  0.0438
 1781TIP3    H126758   6.254   1.627   0.542  1.7503  0.0050  1.7185
 1781TIP3    H226759   6.242   1.712   0.417 -1.2243 -2.1203  0.4516
 1782TIP3   OH226760   5.374   0.899  14.066 -0.0293 -0.2658  0.0929
 1782TIP3    H126761   5.341   0.881  13.978 -1.0647  1.1551  0.1635
 1782TIP3    H226762   5.452   0.843  14.074  1.8701  1.6542 -2.8408
 1783TIP3   OH226763   2.036   2.223  14.524  0.0356  0.6000  0.2138
 1783TIP3    H126764   2.016   2.265  14.607 -0.0790 -1.0300  1.0599
 1783TIP3    H226765   2.076   2.139  14.548  1.4443  0.7332 -1.3921
 1784TIP3   OH226766   4.773   5.117   1.510  0.9739 -0.3038  0.0877
 1784TIP3    H126767   4.838   5.178   1.476 -0.5818  1.0158 -0.6707
 1784TIP3    H226768   4.722   5.091   1.433 -1.9186  1.8821  1.0647
 1785TIP3   OH226769   6.146   1.983  12.122 -0.4349 -0.2445  0.2749
 1785TIP3    H126770   6.182   2.064  12.158 -0.3388 -0.5644  0.9110
 1785TIP3    H226771   6.216   1.946  12.068 -0.7275  0.4547 -0.6114
 1786TIP3   OH226772   4.972   2.283   5.256  0.4679  0.1188 -0.1770
 1786TIP3    H126773   4.975   2.344   5.181  0.7086  0.5546  0.1837
 1786TIP3    H226774   5.030   2.322   5.321  1.4849 -1.0674 -0.3532
 1787TIP3   OH226775   4.980   5.026  14.612  0.4830 -0.0212  0.4257
 1787TIP3    H126776   5.006   5.012  14.521  1.8416  1.6482  0.5163
 1787TIP3    H226777   5.060   5.012  14.663  0.0504  0.3283  1.2314
 1788TIP3   OH226778   5.532   0.089  15.421  0.1069  0.0642 -0.4350
 1788TIP3    H126779   5.555   0.012  15.473 -0.3321  0.2982  0.1276
 1788TIP3    H226780   5.607   0.104  15.364 -1.0952 -2.7487 -2.9792
 1789TIP3   OH226781   1.985   1.103   3.347 -0.5087 -0.0245  0.2034
 1789TIP3    H126782   2.077   1.124   3.329 -0.4293  0.2206  0.8522
 1789TIP3    H226783   1.953   1.064   3.266  0.7279 -1.9604  0.5726
 1790TIP3   OH226784   3.021   1.275   1.010 -0.0021 -0.0597 -0.2604
 1790TIP3    H126785   3.046   1.183   0.998  3.5001  0.6995  0.4094
 1790TIP3    H226786   2.944   1.271   1.067 -0.0637 -2.5627 -0.4070
 1791TIP3   OH226787   4.241   0.921   0.779  0.1467 -0.1806  0.9432
 1791TIP3    H126788   4.226   0.852   0.714 -0.1105  0.2732  0.5187
 1791TIP3    H226789   4.154   0.958   0.796  0.6788  2.6618 -1.7467
 1792TIP3   OH226790   1.201   2.895   2.049  0.2566 -0.4726 -0.1425
 1792TIP3    H126791   1.264   2.833   2.013 -0.7176 -1.2028 -0.6320
 1792TIP3    H226792   1.116   2.862   2.021 -0.3483  0.5265  0.4522
 1793TIP3   OH226793   4.089   4.852  11.950 -0.1113 -0.2432 -0.6556
 1793TIP3    H126794   4.115   4.803  12.028  1.0295  1.4207  0.0787
 1793TIP3    H226795   4.141   4.814  11.879  0.6007 -0.2536 -0.1430
 1794TIP3   OH226796   2.433   3.549   0.623  0.4191  0.4311 -0.2174
 1794TIP3    H126797   2.478   3.599   0.691  0.6426  0.5860 -0.4794
 1794TIP3    H226798   2.498   3.539   0.553  0.1600  0.3594 -0.4505
 1795TIP3   OH226799   4.619   3.267   3.536 -0.2951 -0.4767 -0.2789
 1795TIP3    H126800   4.650   3.177   3.527  0.4696 -0.0985 -1.7559
 1795TIP3    H226801   4.565   3.282   3.458 -0.8430  0.1892  0.2086
 1796TIP3   OH226802   5.583   0.482  16.489 -0.4271  0.2048  0.3188
 1796TIP3    H126803   5.660   0.429  16.511 -0.8998 -1.1472 -1.0649
 1796TIP3    H226804   5.509   0.423  16.504 -1.0470  0.7900 -0.3886
 1797TIP3   OH226805   4.378   3.906   2.875  0.2143 -0.2803 -0.0357
 1797TIP3    H126806   4.464   3.908   2.918  0.9390 -2.5637 -1.1635
 1797TIP3    H226807   4.340   3.822   2.903 -0.8883 -0.0896 -0.8922
 1798TIP3   OH226808   3.763   2.605  16.234 -0.6127 -0.3954 -0.0403
 1798TIP3    H126809   3.837   2.629  16.290 -0.5592 -1.5270  0.3999
 1798TIP3    H226810   3.804   2.556  16.162 -0.9022 -0.7944  0.0659
 1799TIP3   OH226811   1.358   3.349  13.761 -0.0952  0.7640 -0.6177
 1799TIP3    H126812   1.289   3.399  13.717 -1.1226 -0.5832 -0.5793
 1799TIP3    H226813   1.368   3.270  13.708  0.4382  0.2942  0.1639
 1800TIP3   OH226814   2.388   0.928  11.582  0.6249  0.2311 -0.2072
 1800TIP3    H126815   2.460   0.948  11.523  2.0411  0.1319  1.4152
 1800TIP3    H226816   2.420   0.857  11.637 -0.4615  0.6250  0.9882
 1801TIP3   OH226817   2.116   5.422   0.743 -0.4458  0.1770 -0.0361
 1801TIP3    H126818   2.049   5.433   0.811 -0.5075  0.7118 -0.1739
 1801TIP3    H226819   2.195   5.396   0.790 -0.8533 -0.8936  0.0847
 1802TIP3   OH226820   1.191   0.377  14.337  0.4404 -0.2708 -0.0756
 1802TIP3    H126821   1.236   0.461  14.342  0.1824 -0.1174 -0.3265
 1802TIP3    H226822   1.254   0.314  14.373 -0.3398  0.3848  2.7320
 1803TIP3   OH226823   1.954   0.533   2.592  0.1618  0.1617 -0.2374
 1803TIP3    H126824   1.923   0.561   2.679  1.1579 -1.4359  0.6766
 1803TIP3    H226825   1.939   0.609   2.536 -2.8432  0.4305  0.7326
 1804TIP3   OH226826   4.345   3.425   2.964 -0.2758 -0.5279 -0.2318
 1804TIP3    H126827   4.280   3.400   2.898 -1.5184 -0.2719  0.8478
 1804TIP3    H226828   4.316   3.380   3.044  0.2190  0.5068  0.5501
 1805TIP3   OH226829   1.303   3.955  12.296 -0.2840  0.1099 -0.1954
 1805TIP3    H126830   1.211   3.937  12.313 -0.3290 -0.5878 -1.1038
 1805TIP3    H226831   1.349   3.875  12.320 -0.2177 -0.4611 -2.0572
 1806TIP3   OH226832   2.669   6.550  16.438 -0.4430 -0.6503 -0.0793
 1806TIP3    H126833   2.575   6.535  16.451 -0.9433  1.5789 -0.7348
 1806TIP3    H226834   2.684   6.527  16.347 -0.4524 -0.5271 -0.1111
 1807TIP3   OH226835   5.362   3.604  12.492  0.1802 -0.2573  0.3653
 1807TIP3    H126836   5.404   3.686  12.518 -0.5075  0.1788  0.1323
 1807TIP3    H226837   5.412   3.573  12.417 -1.0281  1.2621 -1.1552
 1808TIP3   OH226838   2.316   1.441  13.766  0.1818  1.0414  0.2772
 1808TIP3    H126839   2.249   1.377  13.746  1.0686  0.0150  0.5141
 1808TIP3    H226840   2.272   1.506  13.821 -0.5067  0.1665  0.7856
 1809TIP3   OH226841   6.070   5.407  10.285 -0.0614  0.2565 -0.2465
 1809TIP3    H126842   6.089   5.490  10.241  1.4046  0.9131  1.4951
 1809TIP3    H226843   6.004   5.429  10.351 -0.8388 -0.3062 -0.8279
 1810TIP3   OH226844   4.186   0.036  14.337  0.0150 -0.1409 -0.1649
 1810TIP3    H126845   4.242   0.066  14.266 -1.7476  0.4717 -1.3601
 1810TIP3    H226846   4.244  -0.012  14.396  1.5492 -0.5056 -1.9273
 1811TIP3   OH226847   2.572   3.907   5.893 -0.4431  0.0853 -0.4209
 1811TIP3    H126848   2.524   3.828   5.870 -0.2779  0.0322 -0.5935
 1811TIP3    H226849   2.663   3.888   5.869  0.0471 -0.5774  1.8228
 1812TIP3   OH226850   2.340   4.898   4.240  0.2642 -0.4347  0.3888
 1812TIP3    H126851   2.260   4.870   4.283 -0.8040 -0.2299 -1.3660
 1812TIP3    H226852   2.324   4.990   4.217  0.7350 -0.5817 -0.5702
 1813TIP3   OH226853   5.285   5.533  15.686 -0.1253  0.2128  0.4258
 1813TIP3    H126854   5.377   5.548  15.663  0.2200 -0.1115  1.5386
 1813TIP3    H226855   5.287   5.513  15.779 -1.2423 -0.6364  0.2823
 1814TIP3   OH226856   0.750   2.780  14.807  0.0015 -0.9423  0.4836
 1814TIP3    H126857   0.762   2.819  14.893  1.5381 -0.4358  0.0663
 1814TIP3    H226858   0.794   2.696  14.811  1.5472 -0.2057 -0.2758
 1815TIP3   OH226859   6.795   2.938   4.368  0.1777 -0.0558  0.3901
 1815TIP3    H126860   6.856   2.865   4.380 -1.8079 -1.9818 -0.5145
 1815TIP3    H226861   6.833   3.009   4.420  2.5918 -1.4628  0.7327
 1816TIP3   OH226862   2.907   3.724  13.286  0.3246  0.3346  0.2239
 1816TIP3    H126863   2.947   3.658  13.342  1.7226  2.6733  2.1876
 1816TIP3    H226864   2.832   3.757  13.337 -1.1453 -0.5403 -1.2741
 1817TIP3   OH226865   1.340   3.423   0.313  0.3850 -0.2630 -0.1074
 1817TIP3    H126866   1.260   3.389   0.355 -1.4814  2.0435 -1.5540
 1817TIP3    H226867   1.400   3.438   0.386 -1.0730 -0.5941  1.2185
 1818TIP3   OH226868   5.947   6.137   2.412 -0.3582 -0.1176  0.1615
 1818TIP3    H126869   5.922   6.119   2.502  3.5780 -0.3313  1.3865
 1818TIP3    H226870   5.940   6.232   2.403 -2.8002 -0.2517 -0.1239
 1819TIP3   OH226871   2.232   1.419  13.384  0.2901  0.0890  0.5247
 1819TIP3    H126872   2.245   1.365  13.462  0.8708  0.0700  0.4202
 1819TIP3    H226873   2.138   1.436  13.382  0.2147 -0.2467  1.0044
 1820TIP3   OH226874   1.243   5.485   4.906 -0.5496 -0.0360  0.1137
 1820TIP3    H126875   1.220   5.469   4.998 -1.5255  0.4430 -0.0272
 1820TIP3    H226876   1.246   5.581   4.899 -0.7444 -0.0676 -0.4095
 1821TIP3   OH226877   2.506   0.271   3.344 -0.1504 -0.0611 -0.2837
 1821TIP3    H126878   2.585   0.313   3.379 -0.4591  0.1605  0.1497
 1821TIP3    H226879   2.457   0.243   3.421 -1.0950  0.9114 -0.5119
 1822TIP3   OH226880   4.387   6.131   2.009 -0.0599  0.3431 -0.1754
 1822TIP3    H126881   4.464   6.182   2.036 -1.6321  2.7317  0.1189
 1822TIP3    H226882   4.363   6.169   1.924  0.6185 -2.2329 -1.6146
 1823TIP3   OH226883   0.993   5.237  16.883 -0.0047 -0.5290  0.0791
 1823TIP3    H126884   1.080   5.198  16.874  1.6924  2.3157  2.0495
 1823TIP3    H226885   0.938   5.189  16.822  3.1338 -1.9522 -1.8947
 1824TIP3   OH226886   5.359   2.944  14.222  0.5619 -0.1866 -0.1152
 1824TIP3    H126887   5.359   2.863  14.273 -0.3251 -0.2654 -0.2352
 1824TIP3    H226888   5.444   2.943  14.177  1.2966 -0.1894  1.2178
 1825TIP3   OH226889   2.416   1.472  11.318  0.3223  0.1492  0.6064
 1825TIP3    H126890   2.393   1.422  11.397 -0.1203 -0.6201  0.0064
 1825TIP3    H226891   2.464   1.548  11.351 -1.1603  0.6521  1.7565
 1826TIP3   OH226892   4.641   2.351   0.965  0.1095  0.1374  0.2988
 1826TIP3    H126893   4.593   2.431   0.984  0.9252  0.5896  0.5007
 1826TIP3    H226894   4.598   2.284   1.018  0.4346  0.7671  1.3968
 1827TIP3   OH226895   0.815   2.864   1.135 -0.3590  0.5323  0.1297
 1827TIP3    H126896   0.823   2.770   1.151  0.1683  0.5995  0.2996
 1827TIP3    H226897   0.838   2.904   1.219  0.4121  0.8398 -0.2183
 1828TIP3   OH226898   1.170   5.456   6.002 -0.3705  0.3481  0.0748
 1828TIP3    H126899   1.196   5.518   6.071 -1.7935  0.2269  0.7743
 1828TIP3    H226900   1.230   5.383   6.012 -0.7714  0.1726  1.4682
 1829TIP3   OH226901   0.381   2.390   0.708 -0.4324  1.0572  0.0831
 1829TIP3    H126902   0.301   2.351   0.743 -0.1160  1.0849  0.8673
 1829TIP3    H226903   0.368   2.392   0.613 -1.5388  1.4684  0.2324
 1830TIP3   OH226904   1.635   1.718   5.555  0.5155 -1.0208 -0.2436
 1830TIP3    H126905   1.576   1.698   5.628  1.6376 -1.5333  0.5490
 1830TIP3    H226906   1.620   1.648   5.491  0.1449 -1.0486 -0.1267
 1831TIP3   OH226907   2.093   6.643  16.295 -0.5224  0.1186  0.4999
 1831TIP3    H126908   2.082   6.583  16.369  1.6058  0.9782  1.6168
 1831TIP3    H226909   2.078   6.589  16.218 -1.8813 -1.0423  1.5160
 1832TIP3   OH226910   4.785   0.661   2.002  0.2678 -0.5993  0.6054
 1832TIP3    H126911   4.787   0.568   1.980  0.0351 -0.3835 -0.3545
 1832TIP3    H226912   4.833   0.666   2.085 -0.5577 -1.7009  1.1787
 1833TIP3   OH226913   5.245   2.292   2.384  0.2933  0.6994 -0.3693
 1833TIP3    H126914   5.279   2.371   2.426  0.1747  1.0163 -0.8604
 1833TIP3    H226915   5.228   2.232   2.456 -0.8003  1.5701  0.1239
 1834TIP3   OH226916   2.772   5.777  12.286  0.3058  0.1144 -0.1224
 1834TIP3    H126917   2.821   5.785  12.367  0.2027  1.9049 -0.1994
 1834TIP3    H226918   2.740   5.687  12.286  0.8352 -0.1020  1.4945
 1835TIP3   OH226919   5.204   4.851  12.877 -0.1524  0.6085  0.3223
 1835TIP3    H126920   5.119   4.892  12.894 -1.8812 -2.8070  0.7447
 1835TIP3    H226921   5.211   4.848  12.782 -0.7892  0.4093  0.2782
 1836TIP3   OH226922   0.205   4.034  15.792 -0.2340  0.0460  0.0146
 1836TIP3    H126923   0.142   3.965  15.814 -0.5518  0.1183 -0.6454
 1836TIP3    H226924   0.155   4.115  15.802 -0.0783  0.1359  0.0594
 1837TIP3   OH226925   5.633   4.934   6.094 -0.0667 -0.3339  0.6721
 1837TIP3    H126926   5.725   4.952   6.110 -0.1319  1.4066 -0.6526
 1837TIP3    H226927   5.626   4.839   6.101  2.0504 -0.6131 -0.2367
 1838TIP3   OH226928   2.287   0.617   5.540  0.2256  0.1688  0.0528
 1838TIP3    H126929   2.325   0.558   5.473  0.0840 -0.5104  0.5605
 1838TIP3    H226930   2.322   0.584   5.623  0.9424  1.4267  0.2668
 1839TIP3   OH226931   0.343   2.623   1.495 -0.0641 -0.1175  1.1255
 1839TIP3    H126932   0.381   2.600   1.580  1.6924 -3.8300 -0.4676
 1839TIP3    H226933   0.252   2.593   1.501 -0.8142  2.1537  2.4824
 1840TIP3   OH226934   3.953   3.230  11.944  0.3765  0.1335  0.4042
 1840TIP3    H126935   3.876   3.174  11.933  1.7358 -1.9236  0.7488
 1840TIP3    H226936   3.942   3.299  11.879 -1.6429 -0.2185  0.3048
 1841TIP3   OH226937   1.350   5.769  13.056 -0.0097 -0.3124  0.4416
 1841TIP3    H126938   1.440   5.796  13.041 -0.1899  0.1249  0.0930
 1841TIP3    H226939   1.339   5.692  13.000  0.2114 -0.5070  0.6628
 1842TIP3   OH226940   5.850   5.700   4.347 -0.6148 -0.3675  0.6311
 1842TIP3    H126941   5.837   5.671   4.257 -0.0600  0.0994  0.3930
 1842TIP3    H226942   5.926   5.650   4.378  1.3735  1.8607 -0.3075
 1843TIP3   OH226943   4.293   6.027  12.819  0.1179 -0.1779  0.0429
 1843TIP3    H126944   4.313   5.946  12.771 -0.8655 -1.1528  1.2071
 1843TIP3    H226945   4.254   6.085  12.754  2.0881 -0.0882 -1.1311
 1844TIP3   OH226946   4.792   6.303   4.759 -0.5176  0.0759 -0.1432
 1844TIP3    H126947   4.853   6.239   4.796 -0.8898 -0.7639 -0.9459
 1844TIP3    H226948   4.847   6.377   4.734  0.1401 -0.5554 -0.5958
 1845TIP3   OH226949   1.247   0.814   5.320  0.0439 -0.3998  0.1781
 1845TIP3    H126950   1.172   0.787   5.267 -0.3842  1.1139 -0.0175
 1845TIP3    H226951   1.292   0.879   5.267  0.7145 -0.2771  0.8791
 1846TIP3   OH226952   3.915   1.368   2.058 -0.3219 -0.3518  0.1408
 1846TIP3    H126953   3.896   1.275   2.063  0.1054 -0.6478 -2.2293
 1846TIP3    H226954   3.837   1.407   2.018  0.1682 -0.0044 -0.5087
 1847TIP3   OH226955   5.899   3.652  11.365 -0.0135 -0.2396 -0.0042
 1847TIP3    H126956   5.988   3.644  11.401 -0.6344  0.7013  1.9187
 1847TIP3    H226957   5.853   3.708  11.428 -2.2151 -1.3682 -0.4968
 1848TIP3   OH226958   0.180   3.268  11.831 -0.0554  0.2525  0.4086
 1848TIP3    H126959   0.138   3.351  11.853  0.4795  0.5698  0.2483
 1848TIP3    H226960   0.231   3.245  11.908  1.9296  1.4355 -0.4607
 1849TIP3   OH226961   5.711   6.049  16.204 -0.5742  0.4460 -0.1115
 1849TIP3    H126962   5.677   5.987  16.139 -0.0177  1.7070 -1.6775
 1849TIP3    H226963   5.738   5.995  16.277  1.0839 -1.3415 -1.9293
 1850TIP3   OH226964   2.002   1.168   1.637  0.1644 -0.0619 -0.1919
 1850TIP3    H126965   1.935   1.219   1.591 -1.5467 -1.5965  0.4678
 1850TIP3    H226966   2.054   1.129   1.568 -0.4733  0.0682 -0.7546
 1851TIP3   OH226967   4.961   4.556   1.311  0.2043  0.4090 -0.4768
 1851TIP3    H126968   4.938   4.522   1.224  0.5661 -2.7562  0.5163
 1851TIP3    H226969   5.050   4.526   1.326  0.4871  1.7061  0.6609
 1852TIP3   OH226970   4.891   5.693   4.917  0.3009  0.0537 -0.0358
 1852TIP3    H126971   4.900   5.732   4.830  1.1759  0.6109  0.2924
 1852TIP3    H226972   4.798   5.703   4.938 -0.3976 -1.9437 -1.7359
 1853TIP3   OH226973   6.028   3.338   3.969  0.1660  0.2088  0.0201
 1853TIP3    H126974   6.099   3.275   3.953  0.2106  0.1660  0.3818
 1853TIP3    H226975   6.073   3.417   3.998  0.0359  0.0059  0.7953
 1854TIP3   OH226976   6.270   4.380   2.196  0.4006  0.0534  0.9137
 1854TIP3    H126977   6.285   4.340   2.281  0.6926  0.8805  1.2671
 1854TIP3    H226978   6.221   4.315   2.146  1.2161 -0.8976  1.3242
 1855TIP3   OH226979   3.065   1.402   4.974  0.1489 -0.2628 -0.9354
 1855TIP3    H126980   3.064   1.458   4.896 -0.5902  1.1704  0.0543
 1855TIP3    H226981   2.983   1.354   4.970 -0.1944  0.3003 -0.7060
 1856TIP3   OH226982   6.350   2.817   1.429 -0.2338  0.7617  0.0926
 1856TIP3    H126983   6.416   2.779   1.371  0.1500 -0.8715  1.5143
 1856TIP3    H226984   6.307   2.741   1.469 -1.0802  1.8237  1.2683
 1857TIP3   OH226985   4.321   0.966  15.140 -0.3124 -0.0801 -0.2049
 1857TIP3    H126986   4.392   0.944  15.080  0.7016  1.1134  0.4966
 1857TIP3    H226987   4.244   0.975  15.084  0.4320  0.1608 -1.2151
 1858TIP3   OH226988   4.648   0.322   2.933  0.0527  0.2644  0.0816
 1858TIP3    H126989   4.561   0.285   2.945 -0.3730  1.4063  0.6807
 1858TIP3    H226990   4.664   0.373   3.012  0.6176  1.3159 -0.6849
 1859TIP3   OH226991   6.772   0.691  12.263 -0.7411  0.3046  0.0446
 1859TIP3    H126992   6.726   0.763  12.305 -0.5965  0.9601 -0.8934
 1859TIP3    H226993   6.839   0.733  12.209  0.8114 -0.5962  1.1568
 1860TIP3   OH226994   3.738   3.835   3.805 -0.5951  0.4485  0.0876
 1860TIP3    H126995   3.747   3.915   3.754 -0.1387  0.1766 -0.2605
 1860TIP3    H226996   3.825   3.818   3.840 -0.4097 -0.5132 -0.7810
 1861TIP3   OH226997   4.929   5.443  13.496 -0.3378 -0.2419 -0.3727
 1861TIP3    H126998   4.974   5.394  13.427  1.5232  0.9642 -0.0852
 1861TIP3    H226999   4.919   5.531  13.460  0.3385  0.3096  0.7469
 1862TIP3   OH227000   0.723   0.567   4.354 -0.0902 -0.8231  0.4295
 1862TIP3    H127001   0.731   0.629   4.282  2.3935 -2.1076 -0.5301
 1862TIP3    H227002   0.630   0.545   4.357 -1.3845  3.7282  1.6476
 1863TIP3   OH227003   0.230   2.124  13.017  0.3130 -0.6024 -0.3704
 1863TIP3    H127004   0.193   2.171  13.092 -0.4335  1.0533 -1.7028
 1863TIP3    H227005   0.158   2.072  12.983 -0.1833  0.8222 -1.5757
 1864TIP3   OH227006   4.935   6.782  14.227  0.4844  0.7290  0.1691
 1864TIP3    H127007   4.994   6.844  14.270 -0.1065  1.8644 -0.6139
 1864TIP3    H227008   4.879   6.750  14.297  1.2315  0.5528  0.7017
 1865TIP3   OH227009   5.699   5.662  13.494 -0.6502  0.3107  0.3708
 1865TIP3    H127010   5.681   5.604  13.420 -1.7575 -1.3664  1.8594
 1865TIP3    H227011   5.749   5.734  13.457 -0.6584 -0.7672 -1.8871
 1866TIP3   OH227012   1.090   2.401   4.420  0.0422 -0.5130  0.0492
 1866TIP3    H127013   1.169   2.371   4.375  0.2389  0.1991 -0.0985
 1866TIP3    H227014   1.018   2.375   4.363  0.0171 -2.5798  0.9301
 1867TIP3   OH227015   1.335   1.640   3.456  0.1909 -0.4522  0.5093
 1867TIP3    H127016   1.310   1.600   3.540 -1.0295  0.4493  0.6058
 1867TIP3    H227017   1.258   1.631   3.401  1.2072 -1.6451 -0.7881
 1868TIP3   OH227018   4.307   0.111   4.393 -0.0470  0.0129  0.1338
 1868TIP3    H127019   4.253   0.047   4.439  1.9703 -1.8519  0.0412
 1868TIP3    H227020   4.301   0.085   4.301  0.4041  0.2707  0.0316
 1869TIP3   OH227021   3.550   1.311   5.058  0.2336 -0.4372 -0.1921
 1869TIP3    H127022   3.638   1.288   5.029  1.1526  0.5567  1.6219
 1869TIP3    H227023   3.564   1.377   5.126 -1.9991  0.8138 -0.8597
 1870TIP3   OH227024   4.318   4.732   1.999 -0.0199  0.0525 -0.0420
 1870TIP3    H127025   4.294   4.724   1.906  2.0159  2.7736 -0.9430
 1870TIP3    H227026   4.238   4.760   2.042 -0.3343  1.7668 -1.5976
 1871TIP3   OH227027   4.425   0.116  16.249 -0.4187  0.1482  0.6348
 1871TIP3    H127028   4.445   0.025  16.227  1.3152  0.5721  0.3398
 1871TIP3    H227029   4.487   0.168  16.197 -1.1438  1.4935  1.0535
 1872TIP3   OH227030   3.616   6.469  16.796 -0.2475 -0.0863 -0.1375
 1872TIP3    H127031   3.685   6.414  16.759  0.2708  0.0854  0.5531
 1872TIP3    H227032   3.651   6.558  16.787 -0.8184  0.0878 -0.6943
 1873TIP3   OH227033   3.802   5.392   4.009  0.0590 -0.2907  0.3935
 1873TIP3    H127034   3.881   5.428   4.048  0.8225 -2.7634  1.3552
 1873TIP3    H227035   3.807   5.416   3.916  2.1259 -0.6369  0.3722
 1874TIP3   OH227036   1.123   1.837  15.041 -0.3448  0.0589 -0.2172
 1874TIP3    H127037   1.118   1.926  15.075  1.0830  0.6970 -1.5593
 1874TIP3    H227038   1.031   1.812  15.027 -0.7594  2.0068 -1.4592
 1875TIP3   OH227039   4.261   4.889  14.143 -0.1817  0.2110  0.4690
 1875TIP3    H127040   4.262   4.967  14.199 -0.8862  1.6487 -1.4210
 1875TIP3    H227041   4.349   4.888  14.103 -0.7364  1.1003 -0.8390
 1876TIP3   OH227042   0.512   4.618   4.651 -0.3154 -0.6487 -0.2684
 1876TIP3    H127043   0.608   4.616   4.654 -0.3006 -1.1893 -0.8285
 1876TIP3    H227044   0.491   4.702   4.610 -0.0801 -0.4925 -0.0712
 1877TIP3   OH227045   1.791   1.882   3.002  0.1392 -0.1984 -0.1018
 1877TIP3    H127046   1.820   1.854   2.915 -0.8198  1.2149 -0.9123
 1877TIP3    H227047   1.750   1.967   2.987  0.3237  0.2624  1.8117
 1878TIP3   OH227048   3.839   0.479   1.277 -0.8052  0.1913 -0.2290
 1878TIP3    H127049   3.925   0.496   1.316 -0.3934 -2.2419  0.0888
 1878TIP3    H227050   3.793   0.563   1.281  1.0468  1.2085  0.8698
 1879TIP3   OH227051   5.464   3.572  11.995  0.0039  0.0357  0.5197
 1879TIP3    H127052   5.420   3.656  12.007 -0.1113  0.0662 -0.0800
 1879TIP3    H227053   5.411   3.526  11.929  0.5723 -0.1330  0.1730
 1880TIP3   OH227054   5.949   4.749  14.903  1.1149 -0.6964  0.4020
 1880TIP3    H127055   5.983   4.670  14.860 -1.1849 -1.5255 -0.0595
 1880TIP3    H227056   5.930   4.721  14.993 -1.2911 -1.2319 -0.2138
 1881TIP3   OH227057   5.716   1.114  16.188  0.2958  0.1181 -0.7278
 1881TIP3    H127058   5.657   1.187  16.166  0.9271  0.3401 -1.7559
 1881TIP3    H227059   5.663   1.057  16.244 -0.3601  1.1304 -0.2906
 1882TIP3   OH227060   6.016   5.347   4.303  0.2307 -0.0723  0.4460
 1882TIP3    H127061   5.947   5.402   4.267  0.0213 -1.8995 -2.2967
 1882TIP3    H227062   5.969   5.277   4.348  0.2762 -0.6177 -0.3229
 1883TIP3   OH227063   1.781   3.935  17.058 -0.0368 -0.2502 -0.2198
 1883TIP3    H127064   1.820   3.911  16.974  1.0554 -0.3307  0.2921
 1883TIP3    H227065   1.773   3.852  17.105 -1.0386 -0.2622 -0.3934
 1884TIP3   OH227066   4.817   6.628  12.292 -0.3594  0.1780  0.5353
 1884TIP3    H127067   4.854   6.685  12.361 -1.0023  0.2143  0.8612
 1884TIP3    H227068   4.888   6.570  12.268 -0.2351 -0.0940  1.5214
 1885TIP3   OH227069   3.160   0.043  10.738  0.2650 -0.3003 -0.2155
 1885TIP3    H127070   3.126   0.121  10.695 -0.0947 -1.2243 -1.7146
 1885TIP3    H227071   3.132  -0.029  10.681  1.3135 -1.4396  0.6616
 1886TIP3   OH227072   0.585   5.555  16.045  0.3737  0.0093 -0.0280
 1886TIP3    H127073   0.520   5.507  15.994 -1.2011  0.4776  1.4555
 1886TIP3    H227074   0.599   5.636  15.995  0.2073 -0.3184 -0.6170
 1887TIP3   OH227075   5.119   2.664  13.964 -0.4349 -0.2676 -0.2526
 1887TIP3    H127076   5.073   2.587  13.997 -0.4815  0.0142  0.3497
 1887TIP3    H227077   5.177   2.629  13.896 -0.5195 -0.8215 -0.0497
 1888TIP3   OH227078   5.477   3.372  12.627  0.4201  0.2222  0.2612
 1888TIP3    H127079   5.402   3.407  12.578 -0.9981  1.0348  2.8564
 1888TIP3    H227080   5.501   3.441  12.688  1.4896 -1.0928  1.3871
 1889TIP3   OH227081   5.716   5.149   1.773  0.0998 -0.3007  0.2182
 1889TIP3    H127082   5.627   5.175   1.796  0.0669 -0.4613  0.2757
 1889TIP3    H227083   5.736   5.078   1.833 -0.7136 -2.0912 -1.5042
 1890TIP3   OH227084   3.336   3.851   4.351 -0.0418  0.3927  0.2555
 1890TIP3    H127085   3.307   3.853   4.260 -0.2147  0.3494  0.3096
 1890TIP3    H227086   3.294   3.774   4.388  0.6748 -0.0480  0.1581
 1891TIP3   OH227087   2.474   6.293  15.438 -0.0457  0.4515 -0.3420
 1891TIP3    H127088   2.438   6.292  15.527 -0.0884  1.3075 -0.3429
 1891TIP3    H227089   2.535   6.366  15.438  0.3953  0.0878 -0.8513
 1892TIP3   OH227090   0.932   6.323   3.814 -0.2040  0.6907  0.0955
 1892TIP3    H127091   0.876   6.288   3.884  1.4689  0.2928  1.2869
 1892TIP3    H227092   0.951   6.247   3.759 -0.2789  0.6864  0.0750
 1893TIP3   OH227093   2.264   1.968   4.277 -0.5184  0.3417  0.3092
 1893TIP3    H127094   2.295   1.904   4.342 -0.5718 -0.5050 -0.4690
 1893TIP3    H227095   2.170   1.952   4.272 -0.3773 -0.2748 -0.6661
 1894TIP3   OH227096   1.048   2.729   5.255 -0.2280  0.0202 -0.3576
 1894TIP3    H127097   1.038   2.681   5.338  2.0517  0.6870  0.3724
 1894TIP3    H227098   0.963   2.721   5.213 -0.8911 -1.9616  1.1790
 1895TIP3   OH227099   2.766   2.636   4.598 -0.8287 -0.6523  0.0274
 1895TIP3    H127100   2.789   2.705   4.660 -0.0717 -0.0836 -0.8387
 1895TIP3    H227101   2.834   2.570   4.609 -0.1008 -0.0879 -0.8526
 1896TIP3   OH227102   2.092   0.764  11.202  0.5186 -0.6423 -0.1416
 1896TIP3    H127103   2.171   0.810  11.230  0.1420  0.5987 -1.0724
 1896TIP3    H227104   2.057   0.816  11.130 -1.4524 -0.8680  0.5925
 1897TIP3   OH227105   5.993   2.341  11.999  0.0796  0.3483  0.0162
 1897TIP3    H127106   5.922   2.395  11.965 -0.3917  0.4005  1.0387
 1897TIP3    H227107   6.008   2.373  12.088  3.0681  1.9865 -0.9246
 1898TIP3   OH227108   6.036   0.639   2.374 -0.0642  0.1432  0.1544
 1898TIP3    H127109   6.060   0.556   2.333 -0.8785  0.0197 -0.0742
 1898TIP3    H227110   6.056   0.705   2.308  0.9602  0.1891  0.4772
 1899TIP3   OH227111   3.776   0.121  11.197 -0.1608 -0.5473  0.1214
 1899TIP3    H127112   3.868   0.147  11.192 -0.6314  1.5938  1.5217
 1899TIP3    H227113   3.771   0.069  11.277 -0.3368  0.1326  0.5546
 1900TIP3   OH227114   5.128   3.396  14.060  0.2200  0.6350  0.2567
 1900TIP3    H127115   5.127   3.487  14.031  1.8014  1.2905  2.0280
 1900TIP3    H227116   5.217   3.365  14.039  0.3340  0.1363  1.3723
 1901TIP3   OH227117   5.780   6.204  14.562  0.2872 -0.3090 -0.7293
 1901TIP3    H127118   5.829   6.285  14.548  1.0205 -0.2940  1.4568
 1901TIP3    H227119   5.690   6.226  14.538  0.0869  1.8146  1.5682
 1902TIP3   OH227120   0.014   5.245   2.223  0.3530  0.3636 -0.0213
 1902TIP3    H127121   0.004   5.313   2.156  0.7673  0.2254 -0.2259
 1902TIP3    H227122  -0.074   5.234   2.259  0.6424  2.6569  1.6483
 1903TIP3   OH227123   5.643   1.604  13.808  0.2300  0.1103  0.4485
 1903TIP3    H127124   5.709   1.579  13.873  1.0495  0.5524 -0.1937
 1903TIP3    H227125   5.617   1.522  13.767 -0.4087 -0.1962  1.4229
 1904TIP3   OH227126   6.068   0.699   5.467  0.0836 -0.0012 -0.0323
 1904TIP3    H127127   6.003   0.713   5.399 -0.0128  0.4384  0.1457
 1904TIP3    H227128   6.053   0.770   5.529 -0.7849 -1.2072  1.1941
 1905TIP3   OH227129   3.913   5.011  11.670 -0.0656 -0.0269 -0.2037
 1905TIP3    H127130   3.849   4.949  11.635 -0.2204 -0.9176  1.5363
 1905TIP3    H227131   3.862   5.089  11.691 -0.5510 -0.6175  0.8783
 1906TIP3   OH227132   2.560   2.966  10.620 -0.5764  0.2556  0.0981
 1906TIP3    H127133   2.557   3.061  10.630  3.1900  0.7475 -1.4977
 1906TIP3    H227134   2.579   2.953  10.527 -0.4919 -2.0369  0.3834
 1907TIP3   OH227135   2.637   2.571  16.888  0.4420 -0.3189 -0.3930
 1907TIP3    H127136   2.628   2.610  16.975 -0.3553 -0.4719 -0.3941
 1907TIP3    H227137   2.659   2.645  16.831 -0.2389  0.0068 -0.2557
 1908TIP3   OH227138   0.258   1.307   2.954  0.3814 -0.3312 -0.6603
 1908TIP3    H127139   0.309   1.284   3.032  0.9999 -0.8994 -1.2113
 1908TIP3    H227140   0.196   1.374   2.984  0.0520 -1.1234  0.5020
 1909TIP3   OH227141   3.276   5.838  16.519  0.7594  0.1611 -1.0074
 1909TIP3    H127142   3.351   5.868  16.468  1.5524 -0.6638 -0.3689
 1909TIP3    H227143   3.315   5.795  16.595 -0.3795  0.2957 -0.3280
 1910TIP3   OH227144   1.041   2.342  16.077  0.4655 -0.1943 -0.3071
 1910TIP3    H127145   1.100   2.317  16.007 -1.8010 -0.3005 -2.2905
 1910TIP3    H227146   1.037   2.437  16.073  0.9253 -0.1414  0.2406
 1911TIP3   OH227147   0.367   6.052  13.615  0.2729  0.2507 -0.4041
 1911TIP3    H127148   0.432   6.050  13.685 -0.3265 -0.9248  0.1542
 1911TIP3    H227149   0.382   6.135  13.570  1.1328  0.7020  0.6774
 1912TIP3   OH227150   5.261   2.222   4.240  0.2894 -0.6936 -0.5778
 1912TIP3    H127151   5.294   2.228   4.329 -1.7212 -0.6711  0.2171
 1912TIP3    H227152   5.286   2.306   4.200 -2.1262  1.0090  1.2259
 1913TIP3   OH227153   2.181   0.894   5.880 -0.4672  0.1295  0.4782
 1913TIP3    H127154   2.247   0.826   5.895 -1.6612 -0.7715  1.8390
 1913TIP3    H227155   2.211   0.968   5.932  0.1169  0.1794  0.0832
 1914TIP3   OH227156   3.863   3.554   2.496 -0.5324 -0.2881 -0.2597
 1914TIP3    H127157   3.948   3.597   2.502 -0.4191 -0.3071 -1.3991
 1914TIP3    H227158   3.827   3.558   2.584 -0.2857  1.6758 -0.2001
 1915TIP3   OH227159   2.978   4.439   2.029  0.0269 -0.0509 -0.6508
 1915TIP3    H127160   2.917   4.487   2.085 -0.0580  0.5017 -1.2104
 1915TIP3    H227161   2.926   4.368   1.991  0.1003 -0.4747  0.0060
 1916TIP3   OH227162   5.695   2.086  13.735 -0.0186  0.2275 -0.9386
 1916TIP3    H127163   5.721   2.009  13.787  1.0833  1.7232  0.8378
 1916TIP3    H227164   5.610   2.112  13.772  1.6299  2.4508  1.6691
 1917TIP3   OH227165   0.947   1.875   4.819  0.2759  0.1737  0.5972
 1917TIP3    H127166   1.011   1.942   4.796 -0.9748  0.9321 -0.8993
 1917TIP3    H227167   0.905   1.908   4.898 -1.6623  2.2295 -1.1574
 1918TIP3   OH227168   5.753   2.391   4.311 -0.1685  1.0010 -0.3166
 1918TIP3    H127169   5.714   2.405   4.397 -0.8022  1.5418 -0.6806
 1918TIP3    H227170   5.798   2.473   4.292  2.0351  0.0490  0.5245
 1919TIP3   OH227171   0.556   3.106  16.167 -0.1945 -0.8111  0.7519
 1919TIP3    H127172   0.531   3.064  16.085 -0.3651 -0.7468  0.7707
 1919TIP3    H227173   0.648   3.131  16.154 -0.9686  1.7056 -0.4776
 1920TIP3   OH227174   4.755   2.343   0.645 -0.1332  0.3947  0.7098
 1920TIP3    H127175   4.802   2.426   0.655  0.4560  0.4267 -1.6370
 1920TIP3    H227176   4.666   2.368   0.619  0.5113  0.4000 -1.8042
 1921TIP3   OH227177   6.265   3.155  12.406  1.3540  0.7491 -0.3406
 1921TIP3    H127178   6.347   3.166  12.454  1.0881 -1.1934  0.6505
 1921TIP3    H227179   6.283   3.084  12.345  1.1227  1.9721 -1.8977
 1922TIP3   OH227180   0.402   3.256  14.224  0.2654 -0.1699  0.0518
 1922TIP3    H127181   0.316   3.218  14.205 -0.1848 -0.4611  2.3478
 1922TIP3    H227182   0.390   3.301  14.308  2.2878  0.0563  0.2708
 1923TIP3   OH227183   5.927   1.112   1.207  0.3871  0.0937  0.4638
 1923TIP3    H127184   5.970   1.188   1.247  0.4756  0.2409  0.0917
 1923TIP3    H227185   5.854   1.092   1.266  0.1072  0.7290  0.3383
 1924TIP3   OH227186   4.677   4.166  12.046  0.5198  0.3842  0.4071
 1924TIP3    H127187   4.769   4.192  12.047  0.2153  1.5537 -0.1333
 1924TIP3    H227188   4.631   4.243  12.012 -0.6838 -0.0936  0.8959
 1925TIP3   OH227189   5.726   3.157  16.385 -0.2190  0.0221 -0.0169
 1925TIP3    H127190   5.735   3.246  16.418 -1.6538  1.3886 -2.9510
 1925TIP3    H227191   5.794   3.149  16.318 -1.2830 -0.3684 -1.0903
 1926TIP3   OH227192   2.380   1.932  13.132 -0.1497  0.7225 -0.0199
 1926TIP3    H127193   2.369   1.844  13.167 -0.9854  1.0514  0.5794
 1926TIP3    H227194   2.360   1.924  13.039 -1.0782  0.4263  0.1921
 1927TIP3   OH227195   1.583   5.781   0.958 -0.7281 -0.3783  0.5121
 1927TIP3    H127196   1.516   5.849   0.954 -0.4866 -0.1190  0.8973
 1927TIP3    H227197   1.569   5.730   0.878 -1.0086  0.0261  0.2985
 1928TIP3   OH227198   5.178   2.401  16.792  0.0056 -0.0308 -0.0468
 1928TIP3    H127199   5.141   2.317  16.763 -0.7942  0.4462 -0.4224
 1928TIP3    H227200   5.128   2.467  16.745 -0.7270  0.7397  1.7221
 1929TIP3   OH227201   2.711   3.621   0.156 -0.8288  0.2857  0.6173
 1929TIP3    H127202   2.796   3.590   0.127 -1.0328 -0.3043  0.6339
 1929TIP3    H227203   2.713   3.611   0.251 -0.2142  2.0805  0.8205
 1930TIP3   OH227204   6.609   2.452   3.634  0.3951  0.0092 -0.1634
 1930TIP3    H127205   6.681   2.453   3.570  0.9049  0.1279  0.4066
 1930TIP3    H227206   6.584   2.360   3.639  0.0801  0.0533 -0.8338
 1931TIP3   OH227207   4.866   2.620  11.436  0.0550  0.0076 -0.3752
 1931TIP3    H127208   4.825   2.536  11.417 -0.1241  0.0089  0.0079
 1931TIP3    H227209   4.936   2.600  11.497  0.5042  0.0334 -0.8745
 1932TIP3   OH227210   0.389   6.426   0.129  0.0990  0.5820 -1.0203
 1932TIP3    H127211   0.408   6.454   0.219  1.4835 -0.5880 -0.9109
 1932TIP3    H227212   0.469   6.446   0.080 -1.1683  2.6617 -2.4128
 1933TIP3   OH227213   1.393   6.552   4.532  0.0419  0.9731 -0.3451
 1933TIP3    H127214   1.338   6.484   4.492  0.6619 -0.9444  1.8906
 1933TIP3    H227215   1.481   6.535   4.498  0.3204  0.1712  0.7104
 1934TIP3   OH227216   0.908   4.831  15.389  0.1328 -0.1012  0.6178
 1934TIP3    H127217   0.937   4.922  15.382 -2.2268  0.6707 -0.1084
 1934TIP3    H227218   0.950   4.799  15.469  0.2182  1.9561  1.4634
 1935TIP3   OH227219   4.680   2.785   1.563  0.2411  0.2052  0.2701
 1935TIP3    H127220   4.588   2.764   1.582  0.2085 -0.4567 -0.5811
 1935TIP3    H227221   4.722   2.785   1.649 -0.5088  0.2917  0.6487
 1936TIP3   OH227222   6.553   4.501  11.004 -0.6958 -0.4413 -0.2275
 1936TIP3    H127223   6.580   4.451  10.926  0.8295 -0.3264  0.1851
 1936TIP3    H227224   6.601   4.583  10.998  0.5210 -0.9669  1.4854
 1937TIP3   OH227225   6.138   6.522  12.826  0.7536  0.1606 -0.3946
 1937TIP3    H127226   6.065   6.506  12.767 -1.1448  1.3597  1.4516
 1937TIP3    H227227   6.131   6.615  12.848  2.4961  0.1739  0.3198
 1938TIP3   OH227228   1.658   5.411  13.483  0.2807  0.0398 -0.6583
 1938TIP3    H127229   1.573   5.370  13.468 -0.4114  0.8584  0.8341
 1938TIP3    H227230   1.642   5.505  13.477  1.1558  0.1964 -0.7382
 1939TIP3   OH227231   5.458   3.415  17.006  0.1584  0.6743  0.2900
 1939TIP3    H127232   5.411   3.429  16.925 -0.3257  1.0943  0.6337
 1939TIP3    H227233   5.390   3.397  17.071  0.4818  1.0171  0.7335
 1940TIP3   OH227234   2.545   2.283   5.038  0.1719 -0.5491 -0.0410
 1940TIP3    H127235   2.585   2.358   5.082 -1.5240  0.3318  0.0740
 1940TIP3    H227236   2.558   2.299   4.945 -0.1003 -0.1416 -0.0127
 1941TIP3   OH227237   4.703   0.013  12.992 -0.0609  0.3497 -0.3637
 1941TIP3    H127238   4.768  -0.022  12.930  1.1899 -0.5536  1.3850
 1941TIP3    H227239   4.621   0.014  12.942  0.7538 -0.9510 -1.8335
 1942TIP3   OH227240   1.684   5.189  12.229 -0.0100  0.5381  0.4671
 1942TIP3    H127241   1.699   5.137  12.151 -0.0579 -0.3899  1.0574
 1942TIP3    H227242   1.670   5.124  12.299 -0.9130  1.3382  1.0586
 1943TIP3   OH227243   3.281   4.069  11.617  0.1047 -0.2219 -0.5052
 1943TIP3    H127244   3.205   4.020  11.584 -0.1693 -0.1662  0.0461
 1943TIP3    H227245   3.310   4.120  11.541 -2.5320  2.4900  0.1047
 1944TIP3   OH227246   0.418   3.043   0.395  0.6526  0.2233 -0.5367
 1944TIP3    H127247   0.407   3.133   0.423  2.4629  0.2067  0.3151
 1944TIP3    H227248   0.336   3.000   0.420 -1.1129  2.0195 -2.8134
 1945TIP3   OH227249   4.781   1.085   0.201 -0.1168  0.1712  0.0395
 1945TIP3    H127250   4.860   1.097   0.253  0.8965 -0.2607 -1.3436
 1945TIP3    H227251   4.813   1.069   0.112 -1.6580 -2.0493 -0.2079
 1946TIP3   OH227252   2.736   3.485   1.043 -0.0550 -0.0824 -0.2434
 1946TIP3    H127253   2.783   3.468   1.125 -0.5181  1.6258  0.4335
 1946TIP3    H227254   2.643   3.484   1.068 -0.1705  1.3927 -0.4964
 1947TIP3   OH227255   3.827   5.732   0.283  0.4222 -0.0603  0.3350
 1947TIP3    H127256   3.773   5.674   0.337  1.6143 -1.1679  0.3863
 1947TIP3    H227257   3.914   5.693   0.286  0.9161  0.8879 -0.9104
 1948TIP3   OH227258   4.605   0.277   6.192 -0.6147 -0.5718  0.1017
 1948TIP3    H127259   4.553   0.338   6.140  1.8231  0.6072 -1.1137
 1948TIP3    H227260   4.609   0.317   6.279  0.2386  0.5748 -0.4527
 1949TIP3   OH227261   5.957   5.095  12.383  0.3132  0.0459 -0.0526
 1949TIP3    H127262   5.959   5.189  12.396 -1.0323  0.0200  0.5454
 1949TIP3    H227263   6.033   5.062  12.431 -0.6197  0.6139  1.8791
 1950TIP3   OH227264   5.095   1.181  11.730  0.1858  0.3968  0.1234
 1950TIP3    H127265   5.058   1.239  11.663 -0.5708  0.0249  0.2159
 1950TIP3    H227266   5.044   1.200  11.809 -0.0469 -0.3694  0.1610
 1951TIP3   OH227267   2.452   3.108   3.644  0.1972  0.5752 -0.1089
 1951TIP3    H127268   2.533   3.057   3.642 -0.1235  0.0152 -2.4009
 1951TIP3    H227269   2.391   3.056   3.695  0.6216 -0.0982 -0.2820
 1952TIP3   OH227270   5.885   2.720  13.622  0.3898  0.2323  0.6013
 1952TIP3    H127271   5.821   2.781  13.586 -0.1436 -0.2004  0.8166
 1952TIP3    H227272   5.866   2.637  13.579  0.9264  0.1400  0.5306
 1953TIP3   OH227273   5.983   2.530  14.129  0.0697  0.3496  0.0729
 1953TIP3    H127274   6.042   2.548  14.202  1.9204 -0.2569 -1.2214
 1953TIP3    H227275   6.040   2.515  14.054 -1.7530  0.5246 -1.4415
 1954TIP3   OH227276   0.936   6.763  14.501  0.5983 -0.8700 -0.0463
 1954TIP3    H127277   1.009   6.819  14.478  0.3824 -0.3163  0.6011
 1954TIP3    H227278   0.931   6.699  14.430  0.8414 -0.0671 -0.7904
 1955TIP3   OH227279   1.501   4.696   5.613  0.6830  0.3358 -0.1067
 1955TIP3    H127280   1.426   4.694   5.555  1.0076 -0.1420 -0.5259
 1955TIP3    H227281   1.464   4.690   5.701  0.1164  2.3675 -0.1621
 1956TIP3   OH227282   1.608   3.573  13.633  0.4205 -0.0657  0.3635
 1956TIP3    H127283   1.523   3.618  13.639 -0.6604 -1.9867  0.5387
 1956TIP3    H227284   1.611   3.518  13.712  1.0021 -1.3164 -0.4871
 1957TIP3   OH227285   1.317   3.057   0.545  0.7657  0.1086 -0.4254
 1957TIP3    H127286   1.407   3.055   0.513  0.2768 -1.1735 -1.8639
 1957TIP3    H227287   1.325   3.050   0.640  2.1828 -0.0988 -0.5417
 1958TIP3   OH227288   0.078   0.403   2.393  0.1789  0.1021 -0.0113
 1958TIP3    H127289  -0.009   0.393   2.355  0.1355  2.2971 -0.6610
 1958TIP3    H227290   0.072   0.362   2.479 -0.8736 -1.5513 -0.8167
 1959TIP3   OH227291   2.404   2.910  16.581 -0.1262 -0.7117  0.3455
 1959TIP3    H127292   2.385   2.954  16.498  0.2081 -1.0777  0.0697
 1959TIP3    H227293   2.454   2.832  16.556  1.8966  0.2958  1.0632
 1960TIP3   OH227294   4.808   6.378   4.238 -0.0636  0.0069 -0.6873
 1960TIP3    H127295   4.863   6.369   4.316  0.8323  2.8818 -0.8526
 1960TIP3    H227296   4.743   6.445   4.262 -0.9522 -0.4080 -1.8247
 1961TIP3   OH227297   1.712   0.056   3.762 -0.5133  0.1610  0.1543
 1961TIP3    H127298   1.623   0.091   3.759 -0.6032 -0.0321  0.4966
 1961TIP3    H227299   1.701  -0.034   3.792 -0.1881  0.1954  0.3788
 1962TIP3   OH227300   1.678   5.713   2.861  0.2177  0.1708  0.0435
 1962TIP3    H127301   1.604   5.691   2.805 -0.1334  1.3585  0.0211
 1962TIP3    H227302   1.684   5.640   2.922 -1.7129  0.5826  0.7866
 1963TIP3   OH227303   0.408   6.690  13.256 -0.1780  0.5390  0.8344
 1963TIP3    H127304   0.499   6.675  13.282  0.7624  1.1827 -1.8244
 1963TIP3    H227305   0.361   6.615  13.293  2.1904 -2.2846 -1.3229
 1964TIP3   OH227306   4.831   5.781  15.379 -0.4224 -0.3700 -0.2652
 1964TIP3    H127307   4.759   5.842  15.396  0.3001  0.0979  1.3451
 1964TIP3    H227308   4.854   5.747  15.465  2.0344  0.3794 -0.5549
 1965TIP3   OH227309   6.437   3.538  12.199  0.2029 -0.2302 -0.0429
 1965TIP3    H127310   6.492   3.555  12.275 -0.0001 -1.0067  0.2879
 1965TIP3    H227311   6.444   3.444  12.185 -0.6772 -0.2644 -0.2841
 1966TIP3   OH227312   2.006   4.401  13.270 -0.5687 -0.1755 -0.3705
 1966TIP3    H127313   1.983   4.486  13.233 -0.6129 -0.2159 -0.4364
 1966TIP3    H227314   1.939   4.342  13.236 -1.4076  0.0369  0.8456
 1967TIP3   OH227315   3.241   1.498  10.442  0.0552  0.9159 -0.0900
 1967TIP3    H127316   3.332   1.495  10.472  0.2087  2.4358 -0.3114
 1967TIP3    H227317   3.236   1.578  10.389 -0.8431 -0.3163 -1.9985
 1968TIP3   OH227318   2.815   4.393   5.517  0.4173  0.4358 -0.7862
 1968TIP3    H127319   2.856   4.351   5.442  2.4505  0.2747  0.3171
 1968TIP3    H227320   2.878   4.460   5.544  0.4365 -0.4287  1.5653
 1969TIP3   OH227321   5.953   3.989   2.539  0.7353  0.5791 -0.1726
 1969TIP3    H127322   5.859   3.980   2.555  0.0232  2.2612 -2.7898
 1969TIP3    H227323   5.994   3.952   2.617 -2.0105 -2.2066  0.1688
 1970TIP3   OH227324   2.307   1.151   2.701 -0.0589  0.2896  0.4271
 1970TIP3    H127325   2.227   1.127   2.654 -0.6245  2.5324  0.1443
 1970TIP3    H227326   2.276   1.191   2.782  0.8411 -0.0931  0.9802
 1971TIP3   OH227327   6.708   3.220  17.068  0.3026 -0.5372  0.3615
 1971TIP3    H127328   6.619   3.218  17.033  0.2817 -0.7908  0.4297
 1971TIP3    H227329   6.730   3.313  17.073  0.1792 -0.4868 -0.0065
 1972TIP3   OH227330   3.507   5.214  13.506  0.5604 -0.3873 -0.5853
 1972TIP3    H127331   3.471   5.202  13.418  0.4659  2.2751 -1.0128
 1972TIP3    H227332   3.522   5.126  13.538 -0.5511 -1.4754 -2.7966
 1973TIP3   OH227333   6.211   4.896   2.281  0.0977 -0.2000  0.2886
 1973TIP3    H127334   6.279   4.907   2.348  0.5480  1.4209 -0.3766
 1973TIP3    H227335   6.237   4.817   2.234  1.6831  0.4902 -0.0873
 1974TIP3   OH227336   6.233   5.827  15.811  0.7405  0.5030 -0.2749
 1974TIP3    H127337   6.287   5.903  15.789  0.5390  0.2684 -1.6729
 1974TIP3    H227338   6.178   5.857  15.884  1.0584  1.5142 -0.4366
 1975TIP3   OH227339   1.258   5.269  13.975  0.1430 -0.1013  0.3762
 1975TIP3    H127340   1.293   5.188  13.938  0.8873  0.3170  0.1391
 1975TIP3    H227341   1.222   5.243  14.060  0.1486 -0.7194  0.1965
 1976TIP3   OH227342   3.367   4.014   0.553 -0.1992 -0.1445  0.1655
 1976TIP3    H127343   3.412   4.033   0.470 -2.5696  0.5173 -1.0421
 1976TIP3    H227344   3.433   4.034   0.620  1.4836  0.2229 -1.4909
 1977TIP3   OH227345   3.544   1.599   1.136 -0.0333 -0.3167 -0.0216
 1977TIP3    H127346   3.463   1.549   1.136  0.4149 -1.0544  0.0756
 1977TIP3    H227347   3.612   1.535   1.155  0.3306  0.6974  2.5011
 1978TIP3   OH227348   0.388   4.460   5.945 -0.4187 -0.3923  0.0330
 1978TIP3    H127349   0.401   4.525   6.014  1.9572  0.5912 -1.2356
 1978TIP3    H227350   0.324   4.399   5.981 -2.0260  2.0858  1.6604
 1979TIP3   OH227351   2.129   0.701  13.867  0.4641  0.5591  0.0104
 1979TIP3    H127352   2.042   0.684  13.902  0.1457  0.2445 -0.8862
 1979TIP3    H227353   2.154   0.786  13.904 -0.0478  0.4529  0.6029
 1980TIP3   OH227354   2.979   4.110   2.652 -0.0520 -0.2505 -0.8120
 1980TIP3    H127355   2.933   4.033   2.685 -1.0425  0.3400 -0.7782
 1980TIP3    H227356   3.066   4.078   2.630  0.1158 -1.0082  0.8293
 1981TIP3   OH227357   3.947   5.221   1.375 -0.0780  0.0238  0.5117
 1981TIP3    H127358   3.853   5.204   1.381  0.3314 -3.1780 -0.3782
 1981TIP3    H227359   3.979   5.207   1.464 -0.3988  0.9054  0.7722
 1982TIP3   OH227360   0.467   1.596   4.557 -0.6343  0.3325 -0.0561
 1982TIP3    H127361   0.430   1.541   4.626  0.1888 -0.7157 -0.4080
 1982TIP3    H227362   0.476   1.682   4.597  1.2805 -0.5983  1.6977
 1983TIP3   OH227363   6.715   2.563  14.708  0.2132 -0.4471 -0.4554
 1983TIP3    H127364   6.790   2.569  14.766 -0.2795  1.4665  0.0526
 1983TIP3    H227365   6.640   2.550  14.766  0.0056 -1.1291 -0.8670
 1984TIP3   OH227366   0.775   0.659  13.381 -0.3918  0.1640 -0.0634
 1984TIP3    H127367   0.818   0.630  13.462 -1.8714 -0.5771  0.4850
 1984TIP3    H227368   0.764   0.580  13.330  1.0927  0.7101 -1.3283
 1985TIP3   OH227369   3.447   3.382   3.949 -0.8122 -0.3279 -0.7564
 1985TIP3    H127370   3.447   3.432   4.031  0.7798  0.7044 -1.3430
 1985TIP3    H227371   3.374   3.420   3.898 -0.5820  0.3647 -0.5806
 1986TIP3   OH227372   1.896   6.618  16.535 -0.0022 -0.7190 -0.4003
 1986TIP3    H127373   1.943   6.690  16.576 -1.9934  0.2694  0.2683
 1986TIP3    H227374   1.900   6.547  16.600 -1.6201  0.2480  0.8240
 1987TIP3   OH227375   1.312   0.986  16.010 -0.2468  0.5266  0.2197
 1987TIP3    H127376   1.320   0.926  16.084  1.2785  0.9148  0.3881
 1987TIP3    H227377   1.303   1.072  16.050  0.9772  0.7851 -0.0202
 1988TIP3   OH227378   1.544   1.947   4.492 -0.0172  0.3755 -0.2791
 1988TIP3    H127379   1.608   1.887   4.452 -1.7356 -1.3064 -0.6786
 1988TIP3    H227380   1.596   2.004   4.549  1.8926 -0.4855 -1.0768
 1989TIP3   OH227381   1.163   1.229  14.054 -0.2973 -0.4685 -0.5118
 1989TIP3    H127382   1.189   1.139  14.035  2.4070  0.5020 -1.9714
 1989TIP3    H227383   1.162   1.234  14.150 -0.8438 -2.1113 -0.4027
 1990TIP3   OH227384   6.672   1.790  14.545  0.5335 -0.3821 -0.0029
 1990TIP3    H127385   6.584   1.781  14.582  0.5157 -1.5258 -0.2720
 1990TIP3    H227386   6.721   1.840  14.610 -0.8570  2.2098 -0.8113
 1991TIP3   OH227387   4.690   5.909   2.370  0.1320 -0.7244 -0.1623
 1991TIP3    H127388   4.709   5.961   2.448 -0.4320  0.1171 -0.5822
 1991TIP3    H227389   4.768   5.854   2.359  0.2404 -0.8101  0.9554
 1992TIP3   OH227390   1.684   0.124  10.713  0.1769 -0.2675 -0.4411
 1992TIP3    H127391   1.652   0.034  10.723  1.9759 -1.2845 -2.9067
 1992TIP3    H227392   1.762   0.128  10.767 -1.3240  0.7507  1.8086
 1993TIP3   OH227393   2.314   3.437   6.377  0.0142  0.3642 -0.3841
 1993TIP3    H127394   2.369   3.402   6.307  1.2120 -0.2804  0.8381
 1993TIP3    H227395   2.225   3.414   6.351  0.6260 -2.3284 -0.3775
 1994TIP3   OH227396   6.685   2.674  12.006  0.1370 -0.1343 -0.4908
 1994TIP3    H127397   6.619   2.605  12.015 -0.4910  0.4000 -0.9370
 1994TIP3    H227398   6.666   2.714  11.922  0.0949  1.0072  0.0508
 1995TIP3   OH227399   6.380   0.408   6.498  0.5806  0.1436  0.6558
 1995TIP3    H127400   6.287   0.387   6.492  0.4343  0.1864  2.2963
 1995TIP3    H227401   6.421   0.325   6.523  0.9532  0.1966  0.2351
 1996TIP3   OH227402   3.934   1.827   0.770 -0.6741  0.2447  0.5111
 1996TIP3    H127403   4.009   1.842   0.829 -1.6577  0.0912  1.8468
 1996TIP3    H227404   3.860   1.867   0.815 -1.7081 -1.0181 -0.0089
 1997TIP3   OH227405   6.038   3.365  15.951  0.1704  0.3163 -0.2878
 1997TIP3    H127406   5.948   3.391  15.931  0.8561  1.4646 -2.1074
 1997TIP3    H227407   6.093   3.426  15.901  1.9514 -0.8217  0.1753
 1998TIP3   OH227408   6.485   6.009  10.482 -0.4014  0.6353 -0.0725
 1998TIP3    H127409   6.572   6.006  10.522  0.6927  3.3991 -1.9471
 1998TIP3    H227410   6.460   5.917  10.473  1.8505 -0.2159  1.4670
 1999TIP3   OH227411   4.476   1.419  17.093 -0.3343 -0.1725 -0.0483
 1999TIP3    H127412   4.432   1.467  17.023 -1.5065 -0.7032  0.3062
 1999TIP3    H227413   4.529   1.353  17.048  2.5317  2.2885 -0.6459
 2000TIP3   OH227414   1.985   1.906  13.997 -0.3693  0.0040  0.1224
 2000TIP3    H127415   1.988   1.953  13.914 -0.4789  0.0611  0.1514
 2000TIP3    H227416   1.980   1.974  14.064 -0.1385 -0.0357  0.1846
 2001TIP3   OH227417   5.534   5.905  11.597  0.1247 -0.0935 -0.0985
 2001TIP3    H127418   5.530   5.994  11.633 -1.0010  0.5667 -1.7131
 2001TIP3    H227419   5.500   5.849  11.666  0.3519  0.7868  0.7489
 2002TIP3   OH227420   6.433   4.271  13.487  0.7485 -0.6048  0.2517
 2002TIP3    H127421   6.373   4.281  13.561  1.6251 -0.8894  1.0332
 2002TIP3    H227422   6.508   4.223  13.524  1.8181  0.4434 -0.4708
 2003TIP3   OH227423   5.823   3.172   5.778 -0.4997  0.1189 -0.2933
 2003TIP3    H127424   5.822   3.200   5.686  1.9898  0.2398 -0.3390
 2003TIP3    H227425   5.772   3.091   5.778 -1.4515  0.6701 -1.5482
 2004TIP3   OH227426   2.172   1.591  11.240 -0.4477 -0.2664 -0.2545
 2004TIP3    H127427   2.265   1.603  11.257 -1.0423 -0.5672  4.5375
 2004TIP3    H227428   2.133   1.677  11.254 -1.0504 -0.4945 -0.4642
 2005TIP3   OH227429   2.323   0.901   5.577 -0.2102  0.1664 -0.1521
 2005TIP3    H127430   2.350   0.990   5.600 -1.4412  0.7123 -0.6991
 2005TIP3    H227431   2.335   0.850   5.657 -0.3004  1.0297  0.4197
 2006TIP3   OH227432   0.338   0.698   5.397  0.0401 -0.6366 -0.3394
 2006TIP3    H127433   0.271   0.640   5.361  0.2089 -1.4419  0.5925
 2006TIP3    H227434   0.350   0.765   5.331  1.0293 -2.5650 -2.2350
 2007TIP3   OH227435   4.557   1.233   2.303  0.8256  0.7514  0.1910
 2007TIP3    H127436   4.532   1.293   2.373  1.0941  1.5236 -0.3567
 2007TIP3    H227437   4.644   1.202   2.328  0.5455  0.3202  0.6433
 2008TIP3   OH227438   3.187   2.423  13.557 -0.9009 -0.0007 -0.1262
 2008TIP3    H127439   3.095   2.433  13.532 -1.0247  0.6208  0.5358
 2008TIP3    H227440   3.184   2.399  13.649 -0.3820  0.7367  0.0881
 2009TIP3   OH227441   6.333   2.366  16.561  0.2499  0.0420  0.3266
 2009TIP3    H127442   6.240   2.372  16.541  0.5406 -1.7294 -2.0202
 2009TIP3    H227443   6.375   2.418  16.492  1.0651 -1.1009 -0.0678
 2010TIP3   OH227444   5.881   1.051   4.779 -0.5799 -0.3203  0.1431
 2010TIP3    H127445   5.856   1.108   4.706 -0.1792  1.3524  1.2533
 2010TIP3    H227446   5.971   1.026   4.760 -0.1082  0.9836  0.5543
 2011TIP3   OH227447   4.087   0.509   1.390  0.4292 -0.9048 -0.5000
 2011TIP3    H127448   4.099   0.438   1.327  1.4498 -1.1591 -0.0390
 2011TIP3    H227449   4.110   0.471   1.474  2.3946  0.3231 -0.4171
 2012TIP3   OH227450   1.876   4.075   2.455  0.3155 -0.0487  0.5194
 2012TIP3    H127451   1.964   4.108   2.475 -0.5360  2.2409  0.8222
 2012TIP3    H227452   1.830   4.151   2.419 -1.3685 -1.3561 -0.2096
 2013TIP3   OH227453   4.558   2.997  12.970  0.3137 -0.0225 -0.3307
 2013TIP3    H127454   4.558   2.970  12.879  0.6048  0.6526 -0.5407
 2013TIP3    H227455   4.623   3.068  12.974 -0.2107  0.4429  0.2427
 2014TIP3   OH227456   0.070   2.833  16.810  0.3873 -0.1485 -0.2825
 2014TIP3    H127457   0.000   2.884  16.851  2.2458  1.8849  0.5081
 2014TIP3    H227458   0.118   2.795  16.883  2.6501  2.0319 -0.5372
 2015TIP3   OH227459   1.054   3.594  16.556 -0.6782 -0.2819 -0.5021
 2015TIP3    H127460   1.031   3.543  16.633 -0.6447 -0.2395 -0.4638
 2015TIP3    H227461   1.144   3.624  16.572 -0.5399 -0.5764 -0.7180
 2016TIP3   OH227462   3.097   1.958  12.678 -0.1330  0.5641 -0.3319
 2016TIP3    H127463   3.104   1.870  12.642  1.5292  1.4598 -2.4341
 2016TIP3    H227464   3.003   1.973  12.688 -0.4340 -1.5825  0.5568
 2017TIP3   OH227465   1.768   0.670   5.824 -0.2827 -0.3962 -0.0603
 2017TIP3    H127466   1.682   0.687   5.785 -0.6853 -1.9338  0.1045
 2017TIP3    H227467   1.781   0.576   5.814  0.8765 -0.3690  0.9585
 2018TIP3   OH227468   5.487   1.104   0.805  0.1827  0.2656  0.0721
 2018TIP3    H127469   5.523   1.083   0.891  0.2676  0.0701 -0.0114
 2018TIP3    H227470   5.416   1.041   0.793  0.1691  0.2943 -0.0006
 2019TIP3   OH227471   6.417   0.226  12.924 -0.0976 -0.4179 -0.5519
 2019TIP3    H127472   6.414   0.280  13.003  0.0866 -1.6141  0.2942
 2019TIP3    H227473   6.348   0.161  12.936 -1.1650  0.3520 -2.1346
 2020TIP3   OH227474   2.488   2.980   3.384  0.6633  0.4543 -0.5823
 2020TIP3    H127475   2.468   3.026   3.303  1.7965  0.8892 -0.6415
 2020TIP3    H227476   2.477   3.047   3.452 -1.1394 -0.1347 -0.2574
 2021TIP3   OH227477   3.361   2.799  10.732 -0.5636 -0.2843  0.0540
 2021TIP3    H127478   3.328   2.827  10.818 -0.3344 -0.8253  0.3203
 2021TIP3    H227479   3.286   2.755  10.692 -0.9063  0.6121 -0.3419
 2022TIP3   OH227480   6.276   3.210  15.152 -0.1147 -0.1441 -0.5474
 2022TIP3    H127481   6.218   3.229  15.079  0.1209 -0.1649 -0.7404
 2022TIP3    H227482   6.300   3.118  15.142 -2.7605 -1.1629  1.4503
 2023TIP3   OH227483   0.356   5.653   1.097  0.2248  0.4234 -0.5090
 2023TIP3    H127484   0.299   5.726   1.071 -1.0400 -0.8630 -1.4567
 2023TIP3    H227485   0.301   5.599   1.154  0.9122 -0.2014 -0.4270
 2024TIP3   OH227486   2.253   5.163   4.190  0.0945  0.8625  0.2636
 2024TIP3    H127487   2.180   5.220   4.218  0.3875  2.2136 -1.5574
 2024TIP3    H227488   2.284   5.203   4.109  0.5295 -1.7679 -0.9432
 2025TIP3   OH227489   6.421   2.600  12.558  0.1518  0.2507 -0.5230
 2025TIP3    H127490   6.486   2.550  12.508  0.2676  1.7604 -1.9776
 2025TIP3    H227491   6.462   2.615  12.643  0.1006 -2.0751 -0.0163
 2026TIP3   OH227492   2.387   1.676  14.779 -0.2720  0.4905 -0.3265
 2026TIP3    H127493   2.423   1.682  14.690  1.4009  1.5011  0.3563
 2026TIP3    H227494   2.324   1.748  14.784 -0.4305  0.3819 -0.7152
 2027TIP3   OH227495   1.333   3.350  13.389  0.1385 -0.4399  0.2547
 2027TIP3    H127496   1.321   3.272  13.443 -2.0422 -0.7937 -0.6079
 2027TIP3    H227497   1.277   3.416  13.429 -0.1427 -0.1760 -0.5495
 2028TIP3   OH227498   2.851   5.384  16.001 -0.2153 -0.5611 -0.5636
 2028TIP3    H127499   2.921   5.360  15.941  1.2029  0.5464  0.5648
 2028TIP3    H227500   2.814   5.300  16.030  0.4848 -1.1565 -1.3507
 2029TIP3   OH227501   3.481   5.452  17.003  0.0025 -0.3248 -0.1879
 2029TIP3    H127502   3.467   5.423  17.093  2.1537  0.7217  0.5677
 2029TIP3    H227503   3.530   5.381  16.962  0.8268  0.0446  0.1276
 2030TIP3   OH227504   0.414   2.191   1.450  0.1033  0.1202  0.5904
 2030TIP3    H127505   0.488   2.155   1.498 -0.2939 -2.7078 -0.7126
 2030TIP3    H227506   0.342   2.189   1.514  0.5166  0.3213  1.0714
 2031TIP3   OH227507   2.632   3.459  17.016  0.2888  0.4135  0.1689
 2031TIP3    H127508   2.549   3.488  16.979 -1.1605 -1.9587  1.3193
 2031TIP3    H227509   2.635   3.500  17.103  0.0407  0.0441  0.3513
 2032TIP3   OH227510   5.497   4.713   5.243 -0.0159  0.0322  0.0316
 2032TIP3    H127511   5.590   4.736   5.249 -0.2280  0.7901  0.4842
 2032TIP3    H227512   5.452   4.796   5.230 -0.5750 -0.4090 -0.9499
 2033TIP3   OH227513   0.030   3.330   0.726  0.1099  0.4570 -0.2673
 2033TIP3    H127514   0.095   3.380   0.775  1.4024 -1.1296 -0.3025
 2033TIP3    H227515  -0.034   3.396   0.699  0.7428  1.7901  1.2707
 2034TIP3   OH227516   4.491   3.220  13.212 -0.5162 -0.5138  0.1855
 2034TIP3    H127517   4.405   3.199  13.177 -0.3805  0.8492 -1.0694
 2034TIP3    H227518   4.523   3.138  13.249 -1.6412 -1.4641 -0.8630
 2035TIP3   OH227519   6.669   5.230  15.854 -0.0020 -0.0977  0.5682
 2035TIP3    H127520   6.732   5.185  15.909 -1.0920 -1.0352  1.0987
 2035TIP3    H227521   6.702   5.220  15.765  0.0876 -1.4420  0.7364
 2036TIP3   OH227522   4.444   0.424  13.501  0.0580 -0.1222 -0.0217
 2036TIP3    H127523   4.375   0.485  13.474  0.1283  0.2650  0.6450
 2036TIP3    H227524   4.424   0.404  13.593  1.2023  0.5201  0.3890
 2037TIP3   OH227525   5.343   3.972  14.905 -0.7108 -0.1049 -0.1305
 2037TIP3    H127526   5.394   3.962  14.825 -0.5635  0.9494 -0.1789
 2037TIP3    H227527   5.255   3.993  14.875 -0.5090  0.9530 -0.0301
 2038TIP3   OH227528   2.109   5.110   2.049 -0.6858  0.8958 -0.2092
 2038TIP3    H127529   2.204   5.102   2.058 -0.8221 -1.4080 -0.1711
 2038TIP3    H227530   2.080   5.143   2.134  0.0308  0.8858  0.0475
 2039TIP3   OH227531   1.101   4.783   2.417 -0.1955 -0.5934 -0.1352
 2039TIP3    H127532   1.060   4.762   2.500  1.3974 -0.7535  0.6588
 2039TIP3    H227533   1.093   4.878   2.409  1.7003 -0.2520  1.4033
 2040TIP3   OH227534   0.193   4.594   4.424  0.0125 -0.0610 -0.0881
 2040TIP3    H127535   0.141   4.617   4.347 -0.3957  0.0913  0.2254
 2040TIP3    H227536   0.275   4.561   4.389 -0.2958 -0.2973 -0.5941
 2041TIP3   OH227537   0.575   2.475  10.541  0.2807 -0.1641 -0.3785
 2041TIP3    H127538   0.588   2.514  10.455 -0.5951  0.9336 -0.0313
 2041TIP3    H227539   0.663   2.449  10.569  0.6941  0.3343 -1.1943
 2042TIP3   OH227540   1.370   2.424  12.154  0.3389 -0.4688  0.4675
 2042TIP3    H127541   1.427   2.436  12.231  1.7161  0.5435 -0.6467
 2042TIP3    H227542   1.355   2.513  12.123  1.0173 -0.9293 -1.2708
 2043TIP3   OH227543   5.332   0.312   3.044 -0.3432  0.1414  0.1069
 2043TIP3    H127544   5.258   0.341   2.990  0.4568  1.5776 -0.2504
 2043TIP3    H227545   5.301   0.323   3.134 -1.6872 -2.2808  0.0317
 2044TIP3   OH227546   0.149   6.542  16.453 -0.3952  0.0006 -0.2915
 2044TIP3    H127547   0.147   6.564  16.546  0.5420 -0.0020 -0.2679
 2044TIP3    H227548   0.240   6.521  16.434 -1.0333 -3.0085 -0.5311
 2045TIP3   OH227549   1.463   3.985  15.297  0.2646  0.3158  0.0806
 2045TIP3    H127550   1.531   3.926  15.265 -0.8715  0.0179 -1.9435
 2045TIP3    H227551   1.474   4.066  15.247  0.4239  1.0626  1.2606
 2046TIP3   OH227552   1.546   2.861  14.536  0.1409  0.6067  0.1840
 2046TIP3    H127553   1.627   2.812  14.545 -0.6961 -0.5511  2.0232
 2046TIP3    H227554   1.562   2.943  14.581 -0.0904 -0.1689  1.7337
 2047TIP3   OH227555   6.210   3.666   1.259 -0.3178  0.6468  0.2038
 2047TIP3    H127556   6.217   3.761   1.247  1.2820  0.4781 -0.3559
 2047TIP3    H227557   6.300   3.635   1.266 -0.6866 -1.0727 -1.6454
 2048TIP3   OH227558   1.716   3.383  11.987  0.7879  0.3379  0.2801
 2048TIP3    H127559   1.791   3.390  12.046  1.0228 -3.2828  0.5851
 2048TIP3    H227560   1.753   3.393  11.900  1.6535 -1.2647  0.4375
 2049TIP3   OH227561   4.134   4.342  13.940  0.0565  0.4209  0.1775
 2049TIP3    H127562   4.138   4.284  13.863 -0.4020  0.3713  0.1852
 2049TIP3    H227563   4.221   4.337  13.978  0.5875  1.2064 -0.8869
 2050TIP3   OH227564   3.119   0.242   3.997  0.3393 -0.4631  0.2127
 2050TIP3    H127565   3.038   0.285   4.025 -0.4666 -0.3926 -1.9721
 2050TIP3    H227566   3.119   0.252   3.901  4.3710  2.0641  0.2657
 2051TIP3   OH227567   1.841   4.927   4.353  0.2503 -0.0747 -0.8233
 2051TIP3    H127568   1.775   4.994   4.337  0.4830  0.6011  0.7930
 2051TIP3    H227569   1.802   4.871   4.420  1.4715  0.6740  0.5926
 2052TIP3   OH227570   2.788   4.634   3.388  0.2896 -0.0351  0.5841
 2052TIP3    H127571   2.779   4.728   3.375 -1.3620 -0.0506  1.2971
 2052TIP3    H227572   2.702   4.606   3.419  0.5141 -1.9132 -0.3472
 2053TIP3   OH227573   1.021   0.291  14.144 -0.7367 -0.1228 -0.3608
 2053TIP3    H127574   0.943   0.338  14.114 -0.5042  0.9242  0.6101
 2053TIP3    H227575   1.048   0.337  14.223 -0.0632 -1.4630  0.2326
 2054TIP3   OH227576   0.611   5.223   6.184 -0.5363 -0.0661  0.2397
 2054TIP3    H127577   0.603   5.310   6.145 -0.5511 -0.8442 -1.6348
 2054TIP3    H227578   0.527   5.181   6.168 -0.6711 -0.3091  1.4878
 2055TIP3   OH227579   1.496   2.988  10.755 -0.1009  0.7088  0.1481
 2055TIP3    H127580   1.582   2.965  10.790 -0.0028  1.3099  0.3244
 2055TIP3    H227581   1.504   2.978  10.660 -0.4272 -1.1387  0.2834
 2056TIP3   OH227582   1.102   6.157   2.451  0.1850 -0.1166 -0.2794
 2056TIP3    H127583   1.066   6.088   2.394 -1.0590  0.9919 -0.8871
 2056TIP3    H227584   1.055   6.147   2.533  0.3702 -0.3038 -0.1947
 2057TIP3   OH227585   5.502   2.967  13.531  0.1985  0.0890 -0.0487
 2057TIP3    H127586   5.407   2.970  13.529  0.1828 -0.3901 -0.4742
 2057TIP3    H227587   5.526   2.919  13.452  0.6691 -2.1363  1.3420
 2058TIP3   OH227588   6.667   5.507  14.689 -0.7196 -0.2265 -0.1093
 2058TIP3    H127589   6.732   5.569  14.656 -0.6096  0.1264  0.7436
 2058TIP3    H227590   6.716   5.427  14.703  0.3817  0.9038  3.6293
 2059TIP3   OH227591   0.452   4.292  12.976  0.0292 -0.0370 -0.2629
 2059TIP3    H127592   0.403   4.309  12.895 -0.7817  0.4836  0.3243
 2059TIP3    H227593   0.401   4.224  13.020  1.1382 -1.2225 -0.7513
 2060TIP3   OH227594   2.977   1.054  14.531  0.5991  0.2603  0.0422
 2060TIP3    H127595   3.054   1.006  14.501  1.9775  2.8433 -0.9102
 2060TIP3    H227596   2.905   1.019  14.479  1.6086 -0.4217 -0.9555
 2061TIP3   OH227597   5.126   5.747  15.946 -0.0734  0.6259 -0.2264
 2061TIP3    H127598   5.155   5.774  15.859  0.0967 -1.8177 -1.0169
 2061TIP3    H227599   5.192   5.783  16.005  1.2969  0.1836 -1.4096
 2062TIP3   OH227600   0.078   1.334  15.427 -0.4727 -0.2211  0.3358
 2062TIP3    H127601   0.136   1.356  15.354 -0.8552 -0.7708 -0.1420
 2062TIP3    H227602   0.018   1.408  15.434  0.0327  0.1712  0.5803
 2063TIP3   OH227603   6.636   1.023   4.102 -0.0941  0.1812 -0.0668
 2063TIP3    H127604   6.692   0.950   4.076 -0.5380  0.8686 -3.3890
 2063TIP3    H227605   6.602   0.998   4.188  2.0113 -2.1401  0.1981
 2064TIP3   OH227606   3.232   2.293  13.813 -0.6286  0.4725  0.0517
 2064TIP3    H127607   3.319   2.254  13.821 -0.5567  0.3675 -1.1048
 2064TIP3    H227608   3.203   2.306  13.903  1.0333  1.5006  0.4805
 2065TIP3   OH227609   3.526   4.662  13.947  0.0767  0.3123  0.1017
 2065TIP3    H127610   3.477   4.657  14.030  2.7511  1.2084  1.8705
 2065TIP3    H227611   3.591   4.592  13.953  1.5236  1.5631 -0.3334
 2066TIP3   OH227612   5.181   4.614   2.586  0.1584 -0.2281 -0.0838
 2066TIP3    H127613   5.264   4.662   2.590  0.0475 -0.0420 -0.0561
 2066TIP3    H227614   5.126   4.664   2.526 -0.3712  0.3144  0.8349
 2067TIP3   OH227615   2.240   6.586   2.000 -0.1259 -0.2740 -0.5921
 2067TIP3    H127616   2.324   6.626   2.023 -0.3019  0.3736 -1.0538
 2067TIP3    H227617   2.183   6.606   2.075 -0.0522 -0.1625 -0.5657
 2068TIP3   OH227618   1.318   0.369   3.411  0.4516  0.0083  0.5424
 2068TIP3    H127619   1.365   0.331   3.337  0.6466  0.8304  0.2411
 2068TIP3    H227620   1.385   0.409   3.465  0.0783  1.6376 -0.1511
 2069TIP3   OH227621   0.831   0.358   1.955  0.0832 -0.2437 -0.2834
 2069TIP3    H127622   0.924   0.339   1.954  0.0828 -0.2401 -0.3926
 2069TIP3    H227623   0.823   0.442   1.909  0.2076  0.5544  1.1094
 2070TIP3   OH227624   1.273   3.754   5.849  0.1095 -0.2465 -0.4233
 2070TIP3    H127625   1.343   3.710   5.897 -0.4594  1.1420  1.8630
 2070TIP3    H227626   1.212   3.783   5.917 -2.3137 -0.6946 -2.2535
 2071TIP3   OH227627   1.711   6.114   3.161 -1.0921 -0.2711  0.5283
 2071TIP3    H127628   1.755   6.197   3.177 -0.1094 -1.1699  2.9931
 2071TIP3    H227629   1.618   6.136   3.156 -0.8367  0.9957  1.0179
 2072TIP3   OH227630   1.574   1.480   5.450  1.0700 -0.5147  0.0808
 2072TIP3    H127631   1.514   1.427   5.398 -0.9346  0.8921  0.8317
 2072TIP3    H227632   1.546   1.467   5.540  1.5250  0.5932  0.4018
 2073TIP3   OH227633   4.597   2.490   2.976  0.1835 -0.0476 -0.0680
 2073TIP3    H127634   4.516   2.524   3.016  0.0270 -0.1304 -0.3149
 2073TIP3    H227635   4.614   2.408   3.023 -0.2974 -0.4191 -0.5362
 2074TIP3   OH227636   5.449   0.152   0.687 -0.5578  0.0867 -0.0635
 2074TIP3    H127637   5.536   0.170   0.721 -0.8919  1.2918  0.2058
 2074TIP3    H227638   5.435   0.058   0.702  1.3438 -0.5176 -1.6404
 2075TIP3   OH227639   5.854   4.888  10.592 -0.2807 -0.2499 -0.1386
 2075TIP3    H127640   5.898   4.946  10.530  0.5347 -0.7285 -0.0302
 2075TIP3    H227641   5.791   4.839  10.539  0.9805 -1.2391 -0.7716
 2076TIP3   OH227642   4.169   1.147  15.431  0.1556  0.8029 -0.0184
 2076TIP3    H127643   4.114   1.070  15.446  0.7124  0.4833  0.4495
 2076TIP3    H227644   4.142   1.210  15.498 -0.4304  1.0898 -0.5221
 2077TIP3   OH227645   2.725   1.942  14.286 -0.7680 -0.0879  0.0447
 2077TIP3    H127646   2.728   1.997  14.208 -0.7826 -0.2814 -0.0937
 2077TIP3    H227647   2.782   1.868  14.265 -1.3601 -0.5185 -0.0763
 2078TIP3   OH227648   0.458   0.695   4.495  0.1991  0.1319  0.5033
 2078TIP3    H127649   0.423   0.612   4.525  1.8840 -1.7849 -2.3326
 2078TIP3    H227650   0.549   0.695   4.526  0.5211  0.3659 -0.4057
 2079TIP3   OH227651   1.208   3.783   5.262 -0.1062  0.7258 -0.3532
 2079TIP3    H127652   1.175   3.865   5.298 -0.4116  0.1512  0.7312
 2079TIP3    H227653   1.198   3.720   5.333 -2.4330 -0.9035 -1.9528
 2080TIP3   OH227654   4.988   0.580  14.514  0.2756  0.0901 -0.1812
 2080TIP3    H127655   5.002   0.492  14.546 -0.0954  0.4229  0.9613
 2080TIP3    H227656   4.918   0.571  14.449  0.8927 -0.5754 -0.7565
 2081TIP3   OH227657   2.134   5.385  12.981  0.4819 -0.4858  0.8051
 2081TIP3    H127658   2.097   5.429  12.904  1.4080 -0.9752  0.0456
 2081TIP3    H227659   2.191   5.450  13.021 -1.4763  0.4308  2.2558
 2082TIP3   OH227660   3.405   0.904  15.489 -0.2929  0.4330 -0.1037
 2082TIP3    H127661   3.411   0.817  15.529 -0.5133 -0.0479 -1.0745
 2082TIP3    H227662   3.359   0.957  15.554 -1.2594 -0.5021  0.0137
 2083TIP3   OH227663   1.746   2.354  11.298 -0.1840  0.7529 -0.4237
 2083TIP3    H127664   1.714   2.365  11.387 -0.6069  1.6649 -0.6688
 2083TIP3    H227665   1.771   2.262  11.292  3.2971  1.3878  1.7440
 2084TIP3   OH227666   5.212   3.895   3.479 -0.0208 -0.4459  0.2524
 2084TIP3    H127667   5.176   3.810   3.503 -1.5716 -0.2254 -1.0834
 2084TIP3    H227668   5.146   3.958   3.508  0.8537  0.2731  0.7439
 2085TIP3   OH227669   0.190   5.324  12.578 -0.6149 -0.3474 -0.2878
 2085TIP3    H127670   0.232   5.356  12.658 -1.2185 -0.2412 -0.0075
 2085TIP3    H227671   0.262   5.288  12.526  0.0736  1.2976 -0.5359
 2086TIP3   OH227672   4.192   0.969   3.600 -0.2264  1.0223  0.2073
 2086TIP3    H127673   4.126   0.985   3.668  0.1634 -0.0577  0.8768
 2086TIP3    H227674   4.227   1.055   3.579 -2.3843  1.7403 -0.7478
 2087TIP3   OH227675   5.488   6.002  14.956  0.2282 -0.6510  0.0195
 2087TIP3    H127676   5.552   6.022  14.887  0.2317 -0.4006  0.0926
 2087TIP3    H227677   5.408   5.980  14.909  0.6004 -1.8352 -0.0995
 2088TIP3   OH227678   5.417   4.798   0.615 -0.3388 -0.4261  0.0956
 2088TIP3    H127679   5.398   4.892   0.614  0.6373 -0.1682 -2.1652
 2088TIP3    H227680   5.506   4.792   0.580 -0.2415 -2.1762  0.5718
 2089TIP3   OH227681   4.489   5.314   1.033 -0.1579 -0.1564  0.6903
 2089TIP3    H127682   4.511   5.397   0.990  2.7413 -0.7504  0.7882
 2089TIP3    H227683   4.521   5.324   1.123  0.6733 -1.4860  0.5778
 2090TIP3   OH227684   4.365   5.734   3.856 -0.2137 -0.1628  0.0151
 2090TIP3    H127685   4.415   5.658   3.823  0.5741  1.0039 -1.6534
 2090TIP3    H227686   4.411   5.760   3.935  0.6283 -0.3409 -0.3988
 2091TIP3   OH227687   5.628   3.620   2.693 -0.3151 -0.4150  0.4040
 2091TIP3    H127688   5.645   3.697   2.748 -0.0129  1.0496 -1.6378
 2091TIP3    H227689   5.533   3.609   2.697 -0.4854  0.7285 -0.0996
 2092TIP3   OH227690   3.057   3.645  16.080  0.4805 -0.5188 -0.0777
 2092TIP3    H127691   2.963   3.628  16.077  0.5544 -0.9060 -0.2022
 2092TIP3    H227692   3.069   3.697  16.159  0.1179 -0.1995 -0.2295
 2093TIP3   OH227693   4.332   0.524   1.030 -0.3855 -0.2952  1.0213
 2093TIP3    H127694   4.353   0.578   0.954 -2.6841 -1.3196 -0.4417
 2093TIP3    H227695   4.393   0.450   1.025 -2.0311 -1.6499 -1.3834
 2094TIP3   OH227696   4.467   1.689   3.034 -0.1296  0.2584  0.6885
 2094TIP3    H127697   4.516   1.653   3.108 -1.2867  0.7987  1.7665
 2094TIP3    H227698   4.385   1.719   3.073 -1.3484 -0.6738 -1.0705
 2095TIP3   OH227699   5.334   6.254  12.254  0.2191 -0.6333  0.0657
 2095TIP3    H127700   5.365   6.181  12.308  1.7024 -0.4032 -0.4281
 2095TIP3    H227701   5.260   6.290  12.303 -0.3758 -2.2952  0.4469
 2096TIP3   OH227702   0.916   0.032   1.756  0.0729 -0.4324  0.2101
 2096TIP3    H127703   0.940   0.030   1.848  0.2517 -1.6174  0.1569
 2096TIP3    H227704   0.999   0.046   1.710  0.0813 -0.4961  0.2052
 2097TIP3   OH227705   5.850   4.023  15.593  0.1724 -0.2305 -1.1100
 2097TIP3    H127706   5.830   4.030  15.686  1.7230  0.2752 -0.7865
 2097TIP3    H227707   5.885   3.935  15.582  0.2287 -0.2005 -1.1733
 2098TIP3   OH227708   1.485   0.990   2.023 -0.4050  0.0448  0.0560
 2098TIP3    H127709   1.433   0.960   1.948 -2.0752 -0.8931  1.5074
 2098TIP3    H227710   1.553   0.924   2.034  0.1063  0.4035 -0.8476
 2099TIP3   OH227711   0.645   5.241   4.459 -0.1187 -0.1246 -0.1416
 2099TIP3    H127712   0.667   5.185   4.533  0.7333 -2.3075 -1.9400
 2099TIP3    H227713   0.719   5.300   4.451  0.6769 -1.1254 -0.3673
 2100TIP3   OH227714   4.858   0.510   0.638 -0.6306  0.0007 -0.1015
 2100TIP3    H127715   4.903   0.532   0.719 -0.6460 -0.2744 -0.0193
 2100TIP3    H227716   4.892   0.424   0.614 -0.1792  0.3361 -0.7059
 2101TIP3   OH227717   2.968   2.842  13.726 -0.7294  0.2663 -0.0735
 2101TIP3    H127718   2.877   2.817  13.738 -0.4785 -0.2309  0.8412
 2101TIP3    H227719   2.977   2.854  13.631 -0.6141 -4.2197 -0.8542
 2102TIP3   OH227720   0.935   0.221  13.497  0.2894  0.4382  0.4404
 2102TIP3    H127721   0.936   0.131  13.528  1.4936  0.3148  0.0860
 2102TIP3    H227722   0.887   0.217  13.414 -0.3318  0.2697  0.7984
 2103TIP3   OH227723   1.540   4.220  11.821  0.3567 -0.2475 -0.4079
 2103TIP3    H127724   1.499   4.249  11.902  0.0435  1.9409 -1.2733
 2103TIP3    H227725   1.473   4.232  11.753  1.3865  0.4128 -1.3596
 2104TIP3   OH227726   5.071   4.918  13.274 -0.4458  0.2760  0.0520
 2104TIP3    H127727   5.126   4.973  13.219  2.3317 -2.7873 -0.5536
 2104TIP3    H227728   5.082   4.955  13.362  1.7707  0.4807 -0.2385
 2105TIP3   OH227729   1.630   0.296   2.353  0.1889 -0.4122  0.2411
 2105TIP3    H127730   1.631   0.202   2.367  0.5049 -0.4532 -0.0375
 2105TIP3    H227731   1.563   0.310   2.285  2.0159 -0.7497 -1.7459
 2106TIP3   OH227732   3.453   3.012   9.950  0.4442  0.1051  0.0348
 2106TIP3    H127733   3.393   2.971   9.888 -0.7436  2.3827 -0.4480
 2106TIP3    H227734   3.411   3.003  10.035  0.1926  0.2843 -0.0690
 2107TIP3   OH227735   6.023   0.624  10.865  0.1525  0.3902 -0.9353
 2107TIP3    H127736   5.995   0.706  10.905  1.0630  0.9055 -1.3215
 2107TIP3    H227737   5.962   0.558  10.899  0.7160  0.8444  1.0596
 2108TIP3   OH227738   5.877   2.772  15.178 -0.1726 -0.1573  0.7662
 2108TIP3    H127739   5.941   2.815  15.235  0.8767 -1.6619  0.7711
 2108TIP3    H227740   5.919   2.690  15.152 -2.0159 -1.0915  0.5849
 2109TIP3   OH227741   0.886   3.562   5.774 -0.1607 -0.2701 -0.0041
 2109TIP3    H127742   0.813   3.542   5.833 -0.9596 -0.6687 -1.0958
 2109TIP3    H227743   0.907   3.654   5.793 -0.2637 -0.4416  1.0253
 2110TIP3   OH227744   3.274   4.042  16.711 -0.2624  0.7074 -0.0519
 2110TIP3    H127745   3.182   4.049  16.682 -0.7856  1.9512  1.7335
 2110TIP3    H227746   3.319   4.112  16.664 -0.3303  0.3990 -0.5782
 2111TIP3   OH227747   6.784   3.111   1.702 -1.1256  0.0214  0.0063
 2111TIP3    H127748   6.702   3.157   1.683 -1.7167 -1.5406 -1.6010
 2111TIP3    H227749   6.853   3.174   1.681 -1.8857  0.1367 -2.5193
 2112TIP3   OH227750   3.888   0.049  12.720  0.2318  0.4150 -0.2205
 2112TIP3    H127751   3.832   0.106  12.774 -0.6859 -0.8572  0.2197
 2112TIP3    H227752   3.899  -0.030  12.773  0.7819 -0.1540 -1.1748
 2113TIP3   OH227753   0.716   2.976  16.635  0.4505 -0.0543 -0.1654
 2113TIP3    H127754   0.768   3.035  16.690  0.9428 -1.4164  0.8765
 2113TIP3    H227755   0.716   2.893  16.682 -1.3136 -0.5453 -0.9602
 2114TIP3   OH227756   4.773   4.043   0.292  0.0408 -0.1807  0.2996
 2114TIP3    H127757   4.745   4.133   0.276  1.2931  0.3900  1.1624
 2114TIP3    H227758   4.796   4.009   0.205  0.0126  0.4881  0.0264
 2115TIP3   OH227759   3.371   2.488   4.130 -0.0165  0.4918 -0.1043
 2115TIP3    H127760   3.450   2.456   4.087  0.2880 -1.4846  1.7675
 2115TIP3    H227761   3.401   2.554   4.191  0.1009  0.2883  0.0595
 2116TIP3   OH227762   1.957   4.862  12.297  0.6226 -0.1326 -0.2765
 2116TIP3    H127763   1.949   4.767  12.295  1.3825 -0.1999 -0.5244
 2116TIP3    H227764   1.972   4.887  12.206 -0.7024  0.3415 -0.3797
 2117TIP3   OH227765   1.548   6.717  13.586 -0.0004  0.1007  0.3609
 2117TIP3    H127766   1.625   6.761  13.623  0.3359 -0.2462  0.0794
 2117TIP3    H227767   1.574   6.626  13.577 -1.2853 -0.5828  2.6114
 2118TIP3   OH227768   3.730   1.754  15.837 -0.3678 -0.9803  0.0815
 2118TIP3    H127769   3.708   1.844  15.813  0.1359 -0.8851 -0.0520
 2118TIP3    H227770   3.646   1.709  15.846 -0.5970 -0.8806 -1.3645
 2119TIP3   OH227771   2.520   6.252   4.718  0.1370  0.0109  0.4955
 2119TIP3    H127772   2.592   6.232   4.658 -0.6755 -1.1343 -0.1438
 2119TIP3    H227773   2.555   6.233   4.805  1.0026  0.7049  0.3141
 2120TIP3   OH227774   6.757   3.499   4.000  0.0080  0.1974 -0.2111
 2120TIP3    H127775   6.780   3.407   4.009 -0.6203 -0.1074 -1.5697
 2120TIP3    H227776   6.681   3.511   4.057  1.1762  0.3448  1.4000
 2121TIP3   OH227777   4.360   5.425   2.007  0.3268 -0.4039  0.4628
 2121TIP3    H127778   4.303   5.428   1.930  2.4896 -1.5913 -1.2838
 2121TIP3    H227779   4.307   5.381   2.074 -0.6449 -1.9762 -1.2451
 2122TIP3   OH227780   4.257   2.745   2.029  0.0761  0.5903 -0.0166
 2122TIP3    H127781   4.259   2.673   2.091 -2.6454 -0.1269 -0.6472
 2122TIP3    H227782   4.329   2.726   1.968  0.4269 -0.6637  0.7558
 2123TIP3   OH227783   1.504   2.678   5.417 -0.1540  0.0631 -0.9718
 2123TIP3    H127784   1.446   2.741   5.459 -0.6075 -0.7300 -0.3873
 2123TIP3    H227785   1.589   2.693   5.457 -0.6873 -1.0271  0.6236
 2124TIP3   OH227786   5.193   5.270   5.045 -0.6273  0.0722  0.0605
 2124TIP3    H127787   5.137   5.346   5.035  0.9164  1.1918 -0.6117
 2124TIP3    H227788   5.264   5.299   5.102  0.4731 -0.5524 -0.9384
 2125TIP3   OH227789   4.855   2.737   5.539  0.0097 -0.0095 -0.4290
 2125TIP3    H127790   4.823   2.769   5.623 -0.2486 -0.5007 -0.3396
 2125TIP3    H227791   4.778   2.734   5.483  0.2146  0.5107 -0.7507
 2126TIP3   OH227792   3.712   0.592  16.395 -0.2997 -0.0709  0.0865
 2126TIP3    H127793   3.699   0.502  16.425 -0.2249 -0.2115 -0.2994
 2126TIP3    H227794   3.635   0.611  16.343 -0.1811 -0.0088 -0.0665
 2127TIP3   OH227795   2.190   0.931  17.026 -0.3497  0.4229 -0.1138
 2127TIP3    H127796   2.164   0.939  16.935 -0.3385 -0.3677 -0.1982
 2127TIP3    H227797   2.113   0.893  17.070  0.3444 -1.1758 -0.2110
 2128TIP3   OH227798   6.381   0.897   3.126 -0.2956  1.3222  0.1846
 2128TIP3    H127799   6.297   0.885   3.172  0.7636  0.7376  2.0848
 2128TIP3    H227800   6.358   0.940   3.044 -2.3807  1.7869  0.9603
 2129TIP3   OH227801   4.767   2.685   4.312 -0.3146  0.9429 -0.0519
 2129TIP3    H127802   4.693   2.627   4.334  0.4577  0.4172  1.2466
 2129TIP3    H227803   4.726   2.761   4.271 -1.4759  0.1012 -0.5106
 2130TIP3   OH227804   4.808   6.088   1.488 -0.1118  0.1126 -0.0084
 2130TIP3    H127805   4.808   6.151   1.560  1.8384 -0.7139  0.8054
 2130TIP3    H227806   4.879   6.118   1.430 -1.2743  0.4388 -1.3114
 2131TIP3   OH227807   2.909   3.891  11.784 -0.2179  0.1402 -0.4240
 2131TIP3    H127808   2.961   3.896  11.864 -2.4240  0.7022  1.0646
 2131TIP3    H227809   2.899   3.982  11.756 -0.0339  0.0015 -0.9518
 2132TIP3   OH227810   0.794   0.722  14.631  0.6529 -0.2456  0.8700
 2132TIP3    H127811   0.862   0.772  14.678  0.6213 -0.4660  1.1513
 2132TIP3    H227812   0.713   0.744  14.676  0.5008  0.1822  0.4018
 2133TIP3   OH227813   4.035   6.601  14.469 -0.2876  0.0512 -0.1445
 2133TIP3    H127814   4.070   6.657  14.539 -2.6919  2.0907 -0.4010
 2133TIP3    H227815   4.007   6.521  14.514  0.3362  0.3495  0.8059
 2134TIP3   OH227816   2.703   2.227  14.230  0.1871 -0.0921 -0.5411
 2134TIP3    H127817   2.691   2.315  14.267  1.8741  0.3290 -0.9092
 2134TIP3    H227818   2.798   2.219  14.217 -0.0752 -1.4033 -1.8918
 2135TIP3   OH227819   5.919   5.723  13.648 -0.3996  0.2551 -0.7041
 2135TIP3    H127820   5.835   5.690  13.617  0.6361 -1.0366 -2.3096
 2135TIP3    H227821   5.911   5.818  13.641 -2.3614  0.3077  1.0498
 2136TIP3   OH227822   5.303   2.846  11.231  0.1154  0.1080 -0.0334
 2136TIP3    H127823   5.298   2.894  11.313  1.0858  1.4323 -0.7047
 2136TIP3    H227824   5.225   2.791  11.230  0.2607 -0.2098  1.9175
 2137TIP3   OH227825   2.996   2.941  16.788  0.2153  0.4081 -0.0903
 2137TIP3    H127826   2.988   3.016  16.847  0.9020  0.7821 -0.4605
 2137TIP3    H227827   3.050   2.973  16.716  1.2933 -0.7092  0.1938
 2138TIP3   OH227828   2.422   1.362   0.498 -0.3478  0.0441 -0.8200
 2138TIP3    H127829   2.422   1.267   0.485  1.1209 -0.2196  0.7093
 2138TIP3    H227830   2.405   1.398   0.411 -0.9839 -1.6144 -1.4202
 2139TIP3   OH227831   4.119   0.952  14.971  0.7596 -0.1831  0.8686
 2139TIP3    H127832   4.031   0.934  15.007  0.4083 -0.4592 -0.1094
 2139TIP3    H227833   4.112   0.929  14.879  1.9053 -0.3173  0.8060
 2140TIP3   OH227834   6.193   2.851  11.234 -0.3168  0.2187 -0.3393
 2140TIP3    H127835   6.166   2.892  11.152 -0.7497 -0.0733 -0.3475
 2140TIP3    H227836   6.272   2.801  11.210 -1.4133 -1.2989 -1.0085
 2141TIP3   OH227837   2.327   1.529  10.371  0.3116 -0.8191  0.4402
 2141TIP3    H127838   2.394   1.491  10.427 -0.9255 -1.3221  1.6459
 2141TIP3    H227839   2.285   1.454  10.328 -0.5322 -0.6626  0.9551
 2142TIP3   OH227840   1.940   1.334  11.802 -0.2830  0.0355  0.0916
 2142TIP3    H127841   1.990   1.262  11.763  0.2026 -0.1766  1.0641
 2142TIP3    H227842   1.925   1.306  11.892 -1.7923  0.2967 -0.0585
 2143TIP3   OH227843   0.588   1.218   4.573  0.8629 -0.3231 -0.9958
 2143TIP3    H127844   0.678   1.238   4.598  0.5906 -0.6792  0.3382
 2143TIP3    H227845   0.577   1.126   4.595 -0.0112 -0.1251 -0.5635
 2144TIP3   OH227846   4.191   3.845  16.557 -0.2144  0.5854  0.5661
 2144TIP3    H127847   4.106   3.807  16.580 -0.1561 -0.5331 -0.9600
 2144TIP3    H227848   4.173   3.937  16.543 -1.0652  0.4642  0.8138
 2145TIP3   OH227849   0.796   3.631   2.676 -0.6966  0.8659 -1.0995
 2145TIP3    H127850   0.808   3.562   2.741 -0.2075  1.0462 -0.9999
 2145TIP3    H227851   0.701   3.642   2.670 -0.7280  1.7548  0.5502
 2146TIP3   OH227852   2.734   1.549  14.111 -0.0906  0.0501  0.5634
 2146TIP3    H127853   2.789   1.609  14.161  1.3084 -1.5539  1.0508
 2146TIP3    H227854   2.653   1.542  14.161 -0.3458  1.5965  0.4134
 2147TIP3   OH227855   6.349   4.615  14.818  0.2991  0.1430 -0.1568
 2147TIP3    H127856   6.396   4.566  14.750  1.0985  0.4593  0.1604
 2147TIP3    H227857   6.257   4.605  14.795  0.5300 -0.2945 -0.9226
 2148TIP3   OH227858   3.889   5.414   0.579  0.0752  0.5345  0.0834
 2148TIP3    H127859   3.803   5.400   0.619  0.0715  0.1347 -0.0590
 2148TIP3    H227860   3.869   5.449   0.491  0.0616  0.4751  0.0632
 2149TIP3   OH227861   1.717   3.845  13.749 -0.2770  0.0720 -0.1031
 2149TIP3    H127862   1.651   3.805  13.805  0.0797 -0.0829  0.2078
 2149TIP3    H227863   1.747   3.922  13.798  1.6263 -1.2712  0.9505
 2150TIP3   OH227864   1.430   4.713  13.375  0.7158 -0.3206 -0.2260
 2150TIP3    H127865   1.438   4.807  13.393 -0.9945 -0.4162  1.2386
 2150TIP3    H227866   1.400   4.675  13.458  1.6435 -2.2239 -0.7121
 2151TIP3   OH227867   3.971   5.001   0.192  0.4096 -0.4108  0.1876
 2151TIP3    H127868   3.967   4.908   0.212 -0.4637 -0.5391 -0.5003
 2151TIP3    H227869   4.038   5.036   0.250 -0.1126 -1.2475  1.3299
 2152TIP3   OH227870   5.009   5.915   5.224  0.5989  0.8182  0.1129
 2152TIP3    H127871   5.023   5.935   5.131 -1.8467  2.0029 -0.0827
 2152TIP3    H227872   5.047   5.989   5.270  1.3427  0.4900  0.0347
 2153TIP3   OH227873   5.532   0.975   0.294  0.4050  0.4172  0.0069
 2153TIP3    H127874   5.491   0.970   0.208  0.0752  1.0863  0.1245
 2153TIP3    H227875   5.610   1.029   0.281  0.5658  0.1964  0.0471
 2154TIP3   OH227876   6.302   4.543   3.100  0.1881 -0.0422 -0.4349
 2154TIP3    H127877   6.232   4.481   3.119  0.6989 -0.2847  0.6911
 2154TIP3    H227878   6.274   4.586   3.019 -0.2099 -1.6894 -1.2214
 2155TIP3   OH227879   2.060   3.370  11.350 -0.5475  0.0713  0.1871
 2155TIP3    H127880   2.004   3.435  11.392  0.4966  2.4582 -1.8183
 2155TIP3    H227881   2.133   3.358  11.410 -0.6961  0.8911  0.5475
 2156TIP3   OH227882   1.948   6.018   4.012 -0.1914  0.0633  0.5436
 2156TIP3    H127883   1.905   6.099   3.983  1.1231  0.9796  1.0385
 2156TIP3    H227884   1.946   5.961   3.936 -1.8334  0.2450  0.4099
 2157TIP3   OH227885   3.366   3.835   1.174 -0.1645  0.3083  0.0610
 2157TIP3    H127886   3.299   3.873   1.118  1.4249  2.0795 -0.7554
 2157TIP3    H227887   3.449   3.866   1.137  1.0776 -0.9416  1.6340
 2158TIP3   OH227888   0.299   4.585   3.997 -0.2470 -0.2764  0.0546
 2158TIP3    H127889   0.287   4.671   4.036 -2.4655  0.4462 -1.9326
 2158TIP3    H227890   0.255   4.592   3.912  1.4415 -2.7151 -1.1263
 2159TIP3   OH227891   3.108   2.681   1.765  0.2266 -0.3201  0.0089
 2159TIP3    H127892   3.100   2.608   1.704 -2.3020 -0.1888  0.0807
 2159TIP3    H227893   3.086   2.644   1.851 -2.1702  0.6389 -0.1039
 2160TIP3   OH227894   0.892   5.208   0.700 -0.3557  0.3996 -0.2810
 2160TIP3    H127895   0.942   5.191   0.780 -1.3008  0.5216  0.3503
 2160TIP3    H227896   0.949   5.177   0.629 -0.9453 -3.1417  0.6216
 2161TIP3   OH227897   2.856   3.273  15.346  0.0448  0.5051 -0.1789
 2161TIP3    H127898   2.949   3.258  15.364  0.3277  1.6085 -0.6003
 2161TIP3    H227899   2.831   3.203  15.287  0.0334 -1.0705  1.6125
 2162TIP3   OH227900   1.124   2.117   5.098 -0.2162 -0.2407  0.5326
 2162TIP3    H127901   1.169   2.198   5.121  2.4280 -1.5211  0.1823
 2162TIP3    H227902   1.044   2.146   5.055  0.8240  2.1911  0.0558
 2163TIP3   OH227903   1.274   4.932   0.593  0.0795 -0.1253  0.0127
 2163TIP3    H127904   1.334   4.963   0.661  2.3730 -2.3762 -0.8275
 2163TIP3    H227905   1.299   4.981   0.514 -1.9361  1.7832  0.4564
 2164TIP3   OH227906   6.051   3.758   3.005 -0.5386  0.0895  0.3210
 2164TIP3    H127907   6.052   3.664   2.986 -0.7857  0.5242 -2.3478
 2164TIP3    H227908   6.103   3.767   3.084  0.5248 -2.1766 -0.0138
 2165TIP3   OH227909   5.490   4.851  14.447 -0.5079 -0.1831  0.0378
 2165TIP3    H127910   5.566   4.909  14.446 -0.6985  0.1991  2.0813
 2165TIP3    H227911   5.525   4.765  14.423  0.9803 -0.3534  2.4380
 2166TIP3   OH227912   1.175   6.747  11.836  0.0732 -0.3540 -0.1862
 2166TIP3    H127913   1.168   6.824  11.893 -0.4389  0.7605 -1.6808
 2166TIP3    H227914   1.084   6.719  11.823  0.3049 -1.7788  1.0343
 2167TIP3   OH227915   6.734   4.422   4.231 -0.4520  0.3745 -0.4887
 2167TIP3    H127916   6.762   4.467   4.151  1.5380  0.3897  0.1668
 2167TIP3    H227917   6.781   4.338   4.229 -0.4123  0.3546  0.6394
 2168TIP3   OH227918   4.537   5.218  11.888 -0.3363  0.0778 -0.2545
 2168TIP3    H127919   4.511   5.220  11.795  0.6367 -0.3063 -0.5453
 2168TIP3    H227920   4.477   5.280  11.930  0.0258  1.2360 -1.3616
 2169TIP3   OH227921   0.599   1.733  14.549  0.1022 -0.7383  0.1659
 2169TIP3    H127922   0.689   1.749  14.577  0.0058 -0.3237  0.2506
 2169TIP3    H227923   0.557   1.819  14.553 -0.2045 -0.8641 -0.2043
 2170TIP3   OH227924   0.521   0.240   5.133  0.0219 -0.5016 -0.0107
 2170TIP3    H127925   0.580   0.252   5.059 -1.1506  0.9149 -0.7580
 2170TIP3    H227926   0.543   0.310   5.193  0.3869 -1.1342  0.6053
 2171TIP3   OH227927   4.639   2.770  13.115  0.2757  0.3730 -0.2073
 2171TIP3    H127928   4.614   2.856  13.080  0.5430  0.5661  0.0615
 2171TIP3    H227929   4.644   2.713  13.038 -1.8545  0.0791 -0.1943
 2172TIP3   OH227930   0.199   1.723   0.685  0.3022  0.3650 -0.4017
 2172TIP3    H127931   0.131   1.686   0.742 -0.0533 -1.0126 -1.6496
 2172TIP3    H227932   0.195   1.670   0.605  1.2815  1.7624 -1.4330
 2173TIP3   OH227933   3.397   4.232   3.324  0.5105 -0.4177 -0.3249
 2173TIP3    H127934   3.446   4.165   3.276  1.7760  0.5820 -0.4814
 2173TIP3    H227935   3.342   4.272   3.258  1.5844  0.3441 -0.7865
 2174TIP3   OH227936   0.903   1.147   6.514  0.1228  0.2017 -0.4643
 2174TIP3    H127937   0.846   1.074   6.489  0.3974 -0.4829  0.8106
 2174TIP3    H227938   0.847   1.207   6.563  0.2507  0.0539 -0.1327
 2175TIP3   OH227939   1.498   5.696   1.204  0.2085 -0.5548  0.1428
 2175TIP3    H127940   1.520   5.778   1.248  0.9386 -0.3870 -0.5295
 2175TIP3    H227941   1.530   5.706   1.115 -0.0883 -1.4040 -0.0726
 2176TIP3   OH227942   2.152   0.433   3.780 -0.4206 -0.3597 -0.1433
 2176TIP3    H127943   2.118   0.348   3.805  0.3478 -0.5683  0.2176
 2176TIP3    H227944   2.162   0.481   3.863 -1.1713  0.2127 -0.3689
 2177TIP3   OH227945   2.537   6.725   4.872 -0.6142 -0.1236 -0.7588
 2177TIP3    H127946   2.507   6.634   4.879  2.0321 -0.9740  0.9072
 2177TIP3    H227947   2.544   6.740   4.777 -0.3247 -1.9264 -1.0583
 2178TIP3   OH227948   3.326   0.322   4.287  0.6868  0.8836  0.3183
 2178TIP3    H127949   3.419   0.303   4.296  0.8690  0.0820 -2.2379
 2178TIP3    H227950   3.282   0.248   4.328  1.2438  0.2241 -0.2434
 2179TIP3   OH227951   4.290   0.542  11.412 -0.4953  0.7459 -0.6463
 2179TIP3    H127952   4.328   0.627  11.434  1.1204 -0.3756  1.2354
 2179TIP3    H227953   4.356   0.478  11.439 -1.7452 -1.1346 -1.7912
 2180TIP3   OH227954   4.890   4.462   1.080 -0.0345 -0.0043  0.2270
 2180TIP3    H127955   4.952   4.488   1.012  1.4044  0.2061  1.5632
 2180TIP3    H227956   4.842   4.389   1.041  1.3160 -0.4275 -0.7375
 2181TIP3   OH227957   6.679   4.423   4.571 -0.0305 -0.1653  0.3609
 2181TIP3    H127958   6.656   4.437   4.663 -0.7347  0.8396  0.0425
 2181TIP3    H227959   6.769   4.453   4.564  1.5202 -3.8912  1.5565
 2182TIP3   OH227960   0.981   6.609   4.591  0.5795 -0.7355  0.0712
 2182TIP3    H127961   0.900   6.563   4.613  0.1169 -0.3113 -0.6998
 2182TIP3    H227962   1.042   6.540   4.567  1.3015 -1.2993  3.0650
 2183TIP3   OH227963   0.168   0.968  16.677  0.1537 -0.4835  0.2175
 2183TIP3    H127964   0.081   0.966  16.717  0.2980  0.6110  0.6300
 2183TIP3    H227965   0.154   0.937  16.587 -0.6430 -0.4336  0.3152
 2184TIP3   OH227966   0.068   1.165  14.710  0.3290 -0.6149 -0.3360
 2184TIP3    H127967  -0.018   1.128  14.688 -0.2125 -0.3283  1.1304
 2184TIP3    H227968   0.063   1.256  14.680 -0.5832 -0.0844  1.2893
 2185TIP3   OH227969   0.988   5.118  12.110  0.3927 -0.0265 -0.1676
 2185TIP3    H127970   1.051   5.116  12.038 -1.3265 -0.3614 -1.7391
 2185TIP3    H227971   0.955   5.208  12.111 -0.3595 -0.2993 -0.4913
 2186TIP3   OH227972   3.858   2.774  14.911 -0.3169  0.0792  0.2827
 2186TIP3    H127973   3.854   2.684  14.945 -1.4286  1.5812  4.7347
 2186TIP3    H227974   3.933   2.813  14.955 -0.9684  1.8538 -0.1047
 2187TIP3   OH227975   3.223   5.193  12.368  0.1059 -0.1037  0.1559
 2187TIP3    H127976   3.138   5.222  12.402  1.2253  2.5748  0.9565
 2187TIP3    H227977   3.244   5.257  12.300  1.6834 -0.4734  0.2660
 2188TIP3   OH227978   6.321   6.184   2.081 -0.1103 -0.2027 -0.1425
 2188TIP3    H127979   6.363   6.240   2.015  1.4384  0.5189  1.3676
 2188TIP3    H227980   6.254   6.240   2.120  0.5415  0.1745  0.4576
 2189TIP3   OH227981   0.812   2.384  10.644 -0.0357  0.2173  0.5333
 2189TIP3    H127982   0.802   2.472  10.679  0.6895  0.1638  0.9123
 2189TIP3    H227983   0.907   2.372  10.636 -0.1214 -0.5390  0.5234
 2190TIP3   OH227984   3.761   6.552   3.215 -0.5512  0.1990  0.0886
 2190TIP3    H127985   3.719   6.472   3.183  0.5734 -0.4518  0.1871
 2190TIP3    H227986   3.855   6.531   3.217 -0.3390  1.1456  1.1708
 2191TIP3   OH227987   1.634   1.597   6.178 -0.4715 -0.3958  0.9255
 2191TIP3    H127988   1.697   1.555   6.237 -2.3642 -2.0512  1.8929
 2191TIP3    H227989   1.568   1.634   6.236 -1.4849 -0.5464 -0.0956
 2192TIP3   OH227990   0.153   1.389   1.176 -0.6111 -0.2625  0.2088
 2192TIP3    H127991   0.058   1.377   1.173 -0.6103 -0.0410 -1.2878
 2192TIP3    H227992   0.171   1.415   1.267 -2.0390  0.1999  0.3819
 2193TIP3   OH227993   3.281   3.932  12.177  0.6466 -0.2052 -0.2031
 2193TIP3    H127994   3.331   3.855  12.151 -1.1346 -1.3582 -0.4444
 2193TIP3    H227995   3.346   4.002  12.187  2.1552 -1.3817 -1.3324
 2194TIP3   OH227996   5.524   4.794   4.376  0.1153 -0.0515 -0.4494
 2194TIP3    H127997   5.547   4.702   4.388  1.9360  0.4130 -0.0457
 2194TIP3    H227998   5.477   4.817   4.456  0.4498 -0.4161 -0.1397
 2195TIP3   OH227999   5.533   6.375  13.553  0.0841  0.5497  0.1655
 2195TIP3    H128000   5.529   6.284  13.582  0.6308  0.3164 -0.4699
 2195TIP3    H228001   5.518   6.426  13.633 -0.5022 -0.0938  0.4750
 2196TIP3   OH228002   6.690   4.768  11.496  0.2283 -0.4825 -0.0821
 2196TIP3    H128003   6.719   4.749  11.407  0.1249 -0.5319 -0.1054
 2196TIP3    H228004   6.648   4.854  11.489 -1.1786 -1.1570 -0.4004
 2197TIP3   OH228005   0.526   4.523   0.262  0.3179  0.0523 -0.6510
 2197TIP3    H128006   0.606   4.575   0.250  1.1675 -1.2068 -0.5763
 2197TIP3    H228007   0.475   4.573   0.326  2.3483 -0.5277  1.5384
 2198TIP3   OH228008   1.478   3.089  16.328 -0.1026  0.5423  0.7379
 2198TIP3    H128009   1.471   3.149  16.402  0.0029  0.5873  0.7106
 2198TIP3    H228010   1.571   3.088  16.306 -0.0804  0.2450  0.8410
 2199TIP3   OH228011   1.058   2.869  15.279 -0.0353 -0.4218 -0.2086
 2199TIP3    H128012   1.123   2.890  15.346  0.4304 -0.0071 -0.7813
 2199TIP3    H228013   1.096   2.796  15.231  0.3695  0.3036 -1.0215
 2200TIP3   OH228014   5.390   4.162   1.229  0.3251  0.5490 -0.1758
 2200TIP3    H128015   5.474   4.124   1.203  0.2405  0.3147 -0.1091
 2200TIP3    H228016   5.332   4.143   1.155  0.5111  1.3205 -0.5239
 2201TIP3   OH228017   5.992   2.962   5.439  0.3926 -0.1419  0.1723
 2201TIP3    H128018   5.962   2.977   5.349 -1.4397 -0.5917  0.6654
 2201TIP3    H228019   5.955   2.877   5.462  1.2440 -0.2465  1.2073
 2202TIP3   OH228020   4.193   6.417   5.391  0.2505 -0.3156  0.2121
 2202TIP3    H128021   4.138   6.377   5.458 -1.8835 -1.3474 -2.0075
 2202TIP3    H228022   4.181   6.511   5.404 -1.0275 -0.5065  0.5890
 2203TIP3   OH228023   5.340   6.477   3.734  0.1061 -0.1722  0.4546
 2203TIP3    H128024   5.292   6.550   3.772 -2.0578 -1.2872  0.0031
 2203TIP3    H228025   5.422   6.474   3.783  0.8955  3.3048 -0.3666
 2204TIP3   OH228026   1.050   4.358   4.268  0.7388 -0.1023  0.4732
 2204TIP3    H128027   1.132   4.396   4.301  1.2892 -1.6621  0.9469
 2204TIP3    H228028   0.982   4.417   4.300  1.6481  1.1195  0.2344
 2205TIP3   OH228029   4.297   0.723  16.831 -0.2686  0.5046  0.5137
 2205TIP3    H128030   4.372   0.671  16.861 -1.6529 -1.1872  1.2100
 2205TIP3    H228031   4.318   0.745  16.740  1.4625  0.8602  0.9616
 2206TIP3   OH228032   1.955   5.241   3.336 -0.6251  0.1377 -0.0594
 2206TIP3    H128033   2.013   5.238   3.412  0.1008 -1.9278 -0.6198
 2206TIP3    H228034   1.931   5.149   3.320 -0.2366  0.3995 -2.6880
 2207TIP3   OH228035   2.694   3.466   2.363 -0.1185 -0.1953  0.4820
 2207TIP3    H128036   2.633   3.535   2.390 -1.0774 -0.7611 -0.1911
 2207TIP3    H228037   2.655   3.385   2.395 -0.1653 -0.6449 -0.6714
 2208TIP3   OH228038   0.325   0.976   2.446  0.1012 -0.8223  0.6634
 2208TIP3    H128039   0.258   0.919   2.484 -0.5947 -0.4829 -0.0413
 2208TIP3    H228040   0.369   0.920   2.382 -0.1714 -0.7532  0.4144
 2209TIP3   OH228041   2.577   6.523   3.469 -0.4030  0.0915  0.4756
 2209TIP3    H128042   2.635   6.599   3.459 -3.4759  2.5242 -0.8125
 2209TIP3    H228043   2.513   6.552   3.534 -0.3283 -2.4149  1.7528
 2210TIP3   OH228044   1.019   3.140  13.781  0.2520  0.0712  0.1662
 2210TIP3    H128045   1.093   3.161  13.724  0.6833  0.1080  0.7237
 2210TIP3    H228046   0.942   3.173  13.735  0.4029 -1.2584 -1.1139
 2211TIP3   OH228047   4.229   5.500   5.135  1.0709 -0.3930  0.1203
 2211TIP3    H128048   4.237   5.595   5.141  1.3369 -0.3761 -0.5274
 2211TIP3    H228049   4.168   5.485   5.062  0.0198 -0.6880  1.0252
 2212TIP3   OH228050   5.646   0.945  15.470 -0.0026 -0.0920  0.2439
 2212TIP3    H128051   5.620   0.883  15.539  1.5846  0.4090  1.3428
 2212TIP3    H228052   5.741   0.934  15.463  0.0637  0.9862 -0.7787
 2213TIP3   OH228053   6.646   2.417  15.545  0.2395  0.1807 -0.0688
 2213TIP3    H128054   6.656   2.387  15.455 -0.2281  0.1347 -0.1086
 2213TIP3    H228055   6.732   2.452  15.569  0.3048  0.3904 -0.6073
 2214TIP3   OH228056   4.501   0.114  13.397  0.5131 -0.7729 -0.3415
 2214TIP3    H128057   4.529   0.201  13.425  1.8025 -1.0210 -0.7853
 2214TIP3    H228058   4.460   0.076  13.475  0.6630 -0.0628  0.0957
 2215TIP3   OH228059   3.960   3.847   0.860  0.7920 -0.7213 -0.5174
 2215TIP3    H128060   4.008   3.886   0.934 -0.0819  0.3423 -0.4873
 2215TIP3    H228061   3.993   3.758   0.855  2.4715 -0.1563 -0.2262
 2216TIP3   OH228062   2.195   4.993   3.257  0.0463  0.3771 -0.3235
 2216TIP3    H128063   2.254   5.058   3.217  0.2298  0.2754 -0.2172
 2216TIP3    H228064   2.136   4.968   3.186 -2.1636  3.0737  0.3885
 2217TIP3   OH228065   3.291   5.594  15.623 -0.1461 -0.4816  0.2587
 2217TIP3    H128066   3.292   5.498  15.619  0.0123 -0.4417 -2.7874
 2217TIP3    H228067   3.222   5.614  15.686 -2.3941 -2.6476 -1.3243
 2218TIP3   OH228068   5.824   3.123   2.576 -0.0601 -0.4486  0.2267
 2218TIP3    H128069   5.853   3.155   2.490 -0.6895  0.0087  0.1768
 2218TIP3    H228070   5.777   3.197   2.614  0.2931 -0.6198  1.0069
 2219TIP3   OH228071   2.971   5.683  15.612  0.0540  0.0873  0.1720
 2219TIP3    H128072   2.987   5.637  15.694  1.1545  0.1887  0.0329
 2219TIP3    H228073   2.885   5.652  15.583  0.1019 -0.7033  0.8462
 2220TIP3   OH228074   1.302   5.699  14.905  0.0215 -0.0821  0.1815
 2220TIP3    H128075   1.343   5.642  14.841 -2.1407  0.2521 -1.6018
 2220TIP3    H228076   1.361   5.696  14.981  1.3100 -2.5620 -0.8066
 2221TIP3   OH228077   0.063   3.449   0.242 -0.6273  0.1391  0.2761
 2221TIP3    H128078   0.101   3.366   0.212 -0.0068  0.9899 -1.4207
 2221TIP3    H228079   0.126   3.516   0.216 -1.7340  1.2758  0.3936
 2222TIP3   OH228080   3.136   5.945  14.243  0.2255  0.0685  0.4066
 2222TIP3    H128081   3.204   5.977  14.183 -0.9894  2.5024  0.1632
 2222TIP3    H228082   3.094   5.873  14.196  0.1928  1.0338 -1.1200
 2223TIP3   OH228083   2.925   4.576   0.362 -0.0742 -0.3716 -0.4656
 2223TIP3    H128084   3.002   4.629   0.383 -0.5101 -0.0696  0.4113
 2223TIP3    H228085   2.923   4.574   0.266  0.0720  1.0148 -0.5134
 2224TIP3   OH228086   0.253   6.367  13.920  0.2198 -0.9463  0.9230
 2224TIP3    H128087   0.220   6.453  13.896 -0.9865 -1.2274  1.5097
 2224TIP3    H228088   0.346   6.369  13.895 -0.3562 -0.3491 -1.3711
 2225TIP3   OH228089   0.235   4.753  16.574 -0.0051  0.2646  0.1547
 2225TIP3    H128090   0.215   4.803  16.495 -0.1740  0.7542  0.5052
 2225TIP3    H228091   0.328   4.730  16.565 -0.1507 -0.1092 -0.4167
 2226TIP3   OH228092   1.767   4.373   3.386 -0.4359 -0.2402 -0.4547
 2226TIP3    H128093   1.833   4.400   3.451 -1.6343  0.6219  0.4575
 2226TIP3    H228094   1.697   4.335   3.438 -1.0558 -0.3263 -1.3377
 2227TIP3   OH228095   2.135   5.206   2.984 -0.1979 -0.1433 -0.2575
 2227TIP3    H128096   2.205   5.215   3.049  0.1510 -1.1088 -0.4840
 2227TIP3    H228097   2.174   5.154   2.913 -0.6008  0.8214 -1.2127
 2228TIP3   OH228098   4.125   0.393   5.224  0.0030 -0.1899 -0.2662
 2228TIP3    H128099   4.137   0.398   5.318  1.2607  0.7964 -0.4486
 2228TIP3    H228100   4.211   0.415   5.187 -0.0726 -1.9917 -1.6376
 2229TIP3   OH228101   3.125   2.173   3.735 -0.4687  0.0788 -0.2174
 2229TIP3    H128102   3.160   2.252   3.694 -0.7123  1.3151  1.8000
 2229TIP3    H228103   3.031   2.191   3.745 -0.5804 -0.5844  0.0100
 2230TIP3   OH228104   0.408   2.784   1.239 -0.2574 -0.1449  0.4924
 2230TIP3    H128105   0.345   2.744   1.298  1.6585 -0.0366  2.7720
 2230TIP3    H228106   0.438   2.862   1.285  2.1749 -0.6864 -0.0270
 2231TIP3   OH228107   4.975   1.499   4.359 -0.0918 -0.3201  0.2862
 2231TIP3    H128108   5.021   1.425   4.401  0.1949  0.0503  0.6379
 2231TIP3    H228109   5.040   1.536   4.299 -0.0834 -0.0785  0.4431
 2232TIP3   OH228110   5.116   2.599  16.613  0.3770 -0.0401 -0.2529
 2232TIP3    H128111   5.165   2.601  16.532  0.0989 -0.4022 -0.4341
 2232TIP3    H228112   5.166   2.654  16.674  1.5913 -1.2741 -0.0931
 2233TIP3   OH228113   2.519   0.943  13.898 -0.3266  0.3861  0.1309
 2233TIP3    H128114   2.585   1.011  13.915  1.1386 -1.0404  0.3892
 2233TIP3    H228115   2.512   0.939  13.803  2.0138 -1.2424 -0.0570
 2234TIP3   OH228116   4.769   0.791  14.465  0.2451  0.2430 -0.5035
 2234TIP3    H128117   4.785   0.795  14.559 -0.2671 -1.0113 -0.3319
 2234TIP3    H228118   4.683   0.749  14.457  0.8322 -0.8365 -1.5396
 2235TIP3   OH228119   1.943   5.051  15.801  0.1291 -0.0495 -0.2570
 2235TIP3    H128120   1.851   5.028  15.809  0.0576  0.4663  0.5105
 2235TIP3    H228121   1.990   4.977  15.840 -0.1005  1.0480  2.3125
 2236TIP3   OH228122   5.404   0.781   5.546 -0.0443 -0.2706 -0.5137
 2236TIP3    H128123   5.484   0.728   5.541  0.1313 -0.0648  0.1286
 2236TIP3    H228124   5.433   0.871   5.530 -0.3353 -0.3432 -1.5518
 2237TIP3   OH228125   4.182   0.205  13.267  0.1309  0.2011  0.0002
 2237TIP3    H128126   4.227   0.166  13.341  0.1978 -1.6986 -0.9849
 2237TIP3    H228127   4.097   0.161  13.264 -1.2232  2.5545  0.8363
 2238TIP3   OH228128   3.352   0.030  14.097  0.3074 -0.1920  0.1085
 2238TIP3    H128129   3.291   0.037  14.170 -0.3063 -1.3038 -0.2728
 2238TIP3    H228130   3.432   0.072  14.128  0.4154 -1.5435  1.8255
 2239TIP3   OH228131   6.655   0.751  15.268 -0.9958 -0.1311  0.7599
 2239TIP3    H128132   6.708   0.826  15.240 -0.3582 -0.7069  0.3827
 2239TIP3    H228133   6.592   0.787  15.330 -0.1018  0.5608  1.2754
 2240TIP3   OH228134   5.052   4.604  16.268 -0.4791 -0.2915  0.3937
 2240TIP3    H128135   5.043   4.695  16.298  1.9017  0.3161 -0.5651
 2240TIP3    H228136   4.961   4.573  16.261 -1.3343  1.7433  1.4681
 2241TIP3   OH228137   4.474   1.464   3.863 -0.2478  0.2669  0.2281
 2241TIP3    H128138   4.428   1.383   3.885 -0.9787  0.6730  0.2087
 2241TIP3    H228139   4.552   1.463   3.919 -0.8325  0.0935  1.0538
 2242TIP3   OH228140   5.524   0.654   4.019  0.4459 -0.1931 -0.2253
 2242TIP3    H128141   5.468   0.671   4.095  0.3283 -1.5232  0.0084
 2242TIP3    H228142   5.477   0.693   3.945  0.2735  0.5942  0.2893
 2243TIP3   OH228143   0.519   0.647   3.699 -0.6628  0.4610 -0.1670
 2243TIP3    H128144   0.515   0.742   3.709 -0.6215  0.3125  1.6406
 2243TIP3    H228145   0.578   0.619   3.769 -2.1139 -1.0367  0.5106
 2244TIP3   OH228146   1.267   6.049  15.878  0.4465  0.2627 -0.2191
 2244TIP3    H128147   1.245   5.989  15.948  2.4474  0.3440  0.5597
 2244TIP3    H228148   1.321   5.997  15.818  1.7698  1.1060  0.2016
 2245TIP3   OH228149   6.190   3.481   3.080 -0.0975 -0.3233 -0.0685
 2245TIP3    H128150   6.237   3.499   3.162 -0.3485 -0.6031  0.1384
 2245TIP3    H228151   6.248   3.515   3.012  0.6645 -1.1264  0.1517
 2246TIP3   OH228152   5.304   2.558   0.131  0.5743  0.0248 -0.1146
 2246TIP3    H128153   5.272   2.603   0.210 -0.3515  0.3248 -0.6446
 2246TIP3    H228154   5.397   2.580   0.127  0.3377  1.1156  0.1558
 2247TIP3   OH228155   4.461   3.891   0.671 -0.7596  0.9089 -0.4284
 2247TIP3    H128156   4.430   3.963   0.727 -0.5872 -0.0968  1.0324
 2247TIP3    H228157   4.389   3.828   0.671 -0.4593  0.5652 -0.7317
 2248TIP3   OH228158   0.642   0.434  11.887  1.1290 -0.1762  0.6097
 2248TIP3    H128159   0.651   0.454  11.980  1.3598  0.0856  0.5300
 2248TIP3    H228160   0.622   0.518  11.846  2.5536 -0.0004  0.2153
 2249TIP3   OH228161   1.644   4.518  13.696 -0.0214  0.2998  0.6076
 2249TIP3    H128162   1.697   4.495  13.773  0.5705  1.6358  0.6286
 2249TIP3    H228163   1.692   4.590  13.655  0.6481 -1.5530 -2.0743
 2250TIP3   OH228164   3.803   3.237   1.507 -0.0454  0.0692 -0.0904
 2250TIP3    H128165   3.734   3.218   1.443 -2.1026  0.9359  1.7492
 2250TIP3    H228166   3.866   3.290   1.459 -1.9841  1.4938 -1.2048
 2251TIP3   OH228167   1.954   0.927  12.278 -0.3303  0.2038  0.1607
 2251TIP3    H128168   1.965   0.900  12.370  0.6650 -1.2371 -0.3377
 2251TIP3    H228169   1.888   0.995  12.281 -0.6132 -0.0874  1.9131
 2252TIP3   OH228170   3.665   4.833   5.184 -0.2094  0.8951  0.3426
 2252TIP3    H128171   3.730   4.839   5.114  0.3833 -1.2852  0.6190
 2252TIP3    H228172   3.581   4.836   5.140  0.1618 -1.1886 -0.6017
 2253TIP3   OH228173   1.145   6.058   5.289  0.6572  0.6242 -0.2373
 2253TIP3    H128174   1.225   6.051   5.342  0.1107 -0.8572  0.4488
 2253TIP3    H228175   1.130   6.153   5.280  1.5533  0.9129  1.0679
 2254TIP3   OH228176   5.843   5.743   4.014  0.6251  0.3517  0.1682
 2254TIP3    H128177   5.928   5.700   4.029  0.6567  0.0953 -0.6900
 2254TIP3    H228178   5.837   5.751   3.919 -1.5304 -2.1258 -0.0106
 2255TIP3   OH228179   3.539   3.535  13.863  0.8799  0.3152  0.1758
 2255TIP3    H128180   3.580   3.574  13.785  1.0266 -1.6500 -0.8115
 2255TIP3    H228181   3.511   3.610  13.916  2.9922  1.7357 -0.5721
 2256TIP3   OH228182   4.975   1.569   2.030  0.3196 -0.3814  0.1109
 2256TIP3    H128183   4.920   1.498   2.064  0.0634 -0.2837 -0.0923
 2256TIP3    H228184   4.918   1.646   2.033 -0.4679 -0.7683 -2.5196
 2257TIP3   OH228185   3.931   3.803  14.710  0.7964  0.5444 -0.3890
 2257TIP3    H128186   3.869   3.813  14.638 -0.1709 -0.6111  0.2503
 2257TIP3    H228187   4.000   3.866  14.691 -0.6508  2.0064 -1.0327
 2258TIP3   OH228188   5.876   0.132  15.627 -0.2481  0.0280 -0.4462
 2258TIP3    H128189   5.853   0.110  15.718  0.4098  1.3327  0.0724
 2258TIP3    H228190   5.793   0.149  15.584 -0.6879 -2.1095 -0.5403
 2259TIP3   OH228191   4.443   3.832   4.074 -0.2439  0.4147 -0.2732
 2259TIP3    H128192   4.382   3.901   4.101  0.3485 -0.4679  4.0678
 2259TIP3    H228193   4.395   3.750   4.090  0.9449 -0.2273  0.1514
 2260TIP3   OH228194   0.699   6.643  13.898 -0.3476 -0.0434  0.3110
 2260TIP3    H128195   0.614   6.645  13.856 -0.1109 -1.5582 -0.3123
 2260TIP3    H228196   0.704   6.557  13.939  0.4631  0.4252  1.2513
 2261TIP3   OH228197   1.660   3.621  11.496  0.2343 -0.0343 -0.1512
 2261TIP3    H128198   1.741   3.670  11.511  0.2651 -0.7022  2.2216
 2261TIP3    H228199   1.663   3.598  11.403  3.6812 -1.5801  0.1677
 2262TIP3   OH228200   6.086   5.389  11.035  0.1260 -1.0219  0.1270
 2262TIP3    H128201   6.068   5.366  10.943  1.5882 -1.1349 -0.1532
 2262TIP3    H228202   6.000   5.410  11.071 -0.6654 -2.3065 -0.8961
 2263TIP3   OH228203   1.594   2.586   1.595 -0.0257  0.3355 -0.0136
 2263TIP3    H128204   1.686   2.565   1.580 -0.2908 -1.0198  0.0755
 2263TIP3    H228205   1.590   2.608   1.688  0.3760  1.4492 -0.2493
 2264TIP3   OH228206   4.165   3.890  11.449 -0.0719 -0.0269 -0.0733
 2264TIP3    H128207   4.106   3.832  11.402 -0.4862  0.5208 -0.2467
 2264TIP3    H228208   4.152   3.976  11.408  1.1210  0.0316 -0.3572
 2265TIP3   OH228209   0.425   0.790  13.444 -0.1495 -0.2076  0.2256
 2265TIP3    H128210   0.353   0.771  13.384 -1.2191  2.1573  0.6400
 2265TIP3    H228211   0.390   0.767  13.531  0.4310 -1.1125  0.2365
 2266TIP3   OH228212   3.364   0.280   6.615  0.5582  0.0689 -0.2045
 2266TIP3    H128213   3.295   0.344   6.630  1.2555  1.2613 -1.8342
 2266TIP3    H228214   3.322   0.195   6.632 -0.4117  0.8916  1.8674
 2267TIP3   OH228215   2.694   6.099   2.728  0.5186  0.3166 -0.1550
 2267TIP3    H128216   2.598   6.102   2.736  0.2798 -0.0122 -2.4292
 2267TIP3    H228217   2.711   6.025   2.670  2.2875 -0.5535  1.3714
 2268TIP3   OH228218   5.805   2.253   6.130 -0.7678 -0.1472 -0.0771
 2268TIP3    H128219   5.794   2.191   6.201  0.4514 -1.2194 -0.7755
 2268TIP3    H228220   5.720   2.258   6.088 -1.2862 -0.1118  0.9455
 2269TIP3   OH228221   0.774   0.048  16.191 -0.3416  1.1911 -0.0416
 2269TIP3    H128222   0.850   0.042  16.132  1.3145  0.4948  2.0500
 2269TIP3    H228223   0.762   0.141  16.206  0.4526  1.2948  0.0071
 2270TIP3   OH228224   2.058   2.512   3.920  0.0310 -0.0121  0.0744
 2270TIP3    H128225   2.129   2.509   3.984 -0.6906 -0.1875  0.8782
 2270TIP3    H228226   2.100   2.489   3.837  0.5527 -2.0934  0.8519
 2271TIP3   OH228227   4.154   3.837  14.965  0.2618  0.2355  0.0587
 2271TIP3    H128228   4.224   3.773  14.954 -1.0898 -1.2782 -0.2954
 2271TIP3    H228229   4.151   3.885  14.883 -0.4576 -1.1527 -0.7679
 2272TIP3   OH228230   2.723   4.038  10.537  0.0474 -0.0557 -0.8188
 2272TIP3    H128231   2.723   4.121  10.491  1.2884 -0.5652 -1.8285
 2272TIP3    H228232   2.740   4.061  10.628  2.1890  0.7382 -1.3440
 2273TIP3   OH228233   4.408   0.090  15.927 -0.2740 -0.3236  0.2152
 2273TIP3    H128234   4.392   0.027  15.997 -1.5551  0.6952  0.8930
 2273TIP3    H228235   4.448   0.039  15.857 -0.5964 -1.7265  1.0155
 2274TIP3   OH228236   3.108   3.511  11.617  0.7114 -0.2604  0.4313
 2274TIP3    H128237   3.172   3.575  11.587  0.9008 -0.6183  0.0665
 2274TIP3    H228238   3.024   3.557  11.611  1.0451  0.6506  2.1587
 2275TIP3   OH228239   2.365   0.904   4.676  0.0958  0.3545 -0.4996
 2275TIP3    H128240   2.439   0.921   4.618  0.2813  0.1354 -0.3315
 2275TIP3    H228241   2.374   0.969   4.746  0.9041 -0.5193  0.2353
 2276TIP3   OH228242   1.509   0.372   4.574  0.1393 -0.5552  0.2920
 2276TIP3    H128243   1.536   0.308   4.641 -0.6366 -0.7017  0.4710
 2276TIP3    H228244   1.427   0.408   4.607  0.1605 -0.0478 -0.2040
 2277TIP3   OH228245   0.459   2.208  14.362 -0.1887  0.0577 -0.0735
 2277TIP3    H128246   0.388   2.223  14.299 -1.0885 -3.4451 -0.1399
 2277TIP3    H228247   0.512   2.139  14.322  2.3468  1.3736  0.7716
 2278TIP3   OH228248   6.623   2.024   2.101  0.0536 -0.6174 -0.4660
 2278TIP3    H128249   6.569   2.090   2.057  1.1052  0.7488  0.2432
 2278TIP3    H228250   6.628   1.952   2.038 -0.9769  0.0364 -1.3290
 2279TIP3   OH228251   4.640   0.320  16.504 -0.2539 -0.0659  0.0961
 2279TIP3    H128252   4.680   0.299  16.420  0.5638  1.4681  0.0524
 2279TIP3    H228253   4.714   0.328  16.565 -0.5183  1.7548  0.2549
 2280TIP3   OH228254   3.609   5.060  11.110  0.2486 -0.1239 -0.1300
 2280TIP3    H128255   3.589   5.115  11.034  0.8018  2.0188  1.1827
 2280TIP3    H228256   3.533   5.002  11.117 -0.3859  0.4595 -1.5913
 2281TIP3   OH228257   1.856   0.112   2.086 -0.8876  0.1500  0.9127
 2281TIP3    H128258   1.858   0.204   2.113 -0.2430  0.8805 -1.4398
 2281TIP3    H228259   1.798   0.070   2.150 -1.3183  2.2064  1.9521
 2282TIP3   OH228260   3.048   4.191   0.810 -0.4530  0.5570 -0.2708
 2282TIP3    H128261   3.008   4.246   0.743  0.4111  0.3903 -0.9458
 2282TIP3    H228262   3.089   4.119   0.762  1.0624  0.9791  0.3085
 2283TIP3   OH228263   0.969   4.484   4.631  0.1659 -0.2600  0.2111
 2283TIP3    H128264   0.968   4.503   4.725  0.4448  0.5052  0.0639
 2283TIP3    H228265   1.062   4.478   4.610  0.1524  1.1828 -0.3293
 2284TIP3   OH228266   5.440   0.972   3.572  0.1678  0.3279 -0.5383
 2284TIP3    H128267   5.433   0.989   3.478 -1.2148  0.0650 -0.5163
 2284TIP3    H228268   5.497   1.041   3.605  0.5407  0.5190 -1.5516
 2285TIP3   OH228269   3.385   6.519   1.500 -0.2719 -0.2053  0.0900
 2285TIP3    H128270   3.469   6.563   1.517 -0.6486  0.3607  0.5527
 2285TIP3    H228271   3.319   6.581   1.533 -0.9600  0.0468 -1.6820
 2286TIP3   OH228272   5.738   6.801  11.762 -0.6440  0.0180 -0.3113
 2286TIP3    H128273   5.735   6.721  11.710 -2.2065 -1.2268  1.5640
 2286TIP3    H228274   5.828   6.804  11.795 -0.1476 -0.1200 -1.5848
 2287TIP3   OH228275   5.488   2.558  14.030  0.5500 -0.6811 -0.0788
 2287TIP3    H128276   5.580   2.534  14.020  0.9998  0.5251  0.9600
 2287TIP3    H228277   5.481   2.641  13.984  0.2114 -0.2769  0.7072
 2288TIP3   OH228278   0.679   3.908  13.128  0.5537  0.2919  0.4239
 2288TIP3    H128279   0.774   3.911  13.119  0.4911 -0.0193 -0.4340
 2288TIP3    H228280   0.646   3.927  13.040 -0.2162  2.2776  1.0778
 2289TIP3   OH228281   6.124   0.089  16.384 -0.5677 -0.1236 -0.0105
 2289TIP3    H128282   6.045   0.091  16.331 -0.8621  1.6219  0.4484
 2289TIP3    H228283   6.094   0.059  16.470 -0.8246  0.8955  0.2695
 2290TIP3   OH228284   2.325   6.782   1.582 -0.3945  0.1858  0.1301
 2290TIP3    H128285   2.265   6.730   1.528 -1.0742  0.9026  0.1691
 2290TIP3    H228286   2.383   6.718   1.623 -2.3309 -0.7454  1.5830
 2291TIP3   OH228287   2.896   2.332  15.729  0.7656  0.0724  0.1408
 2291TIP3    H128288   2.840   2.256  15.744  0.4345  0.2549 -0.1701
 2291TIP3    H228289   2.953   2.306  15.656  1.4782 -0.3230  0.8227
 2292TIP3   OH228290   5.282   4.783  16.742  0.3519 -0.0390 -0.5047
 2292TIP3    H128291   5.355   4.841  16.764 -0.5798  1.7821 -1.9512
 2292TIP3    H228292   5.323   4.697  16.731  2.0058  0.5921  0.3640
 2293TIP3   OH228293   1.063   5.958  16.854  0.3868 -0.0438  0.7144
 2293TIP3    H128294   1.054   6.053  16.850 -1.4049 -0.0995  2.1206
 2293TIP3    H228295   1.056   5.929  16.763  1.2308  1.1596  0.2391
 2294TIP3   OH228296   5.026   3.486  12.995 -0.4360  0.4586  0.8146
 2294TIP3    H128297   5.106   3.496  13.048 -1.1701  0.6336  1.9229
 2294TIP3    H228298   5.055   3.437  12.918  0.8915  1.1344  0.8402
 2295TIP3   OH228299   5.708   4.473   4.000 -0.5160  0.4513 -0.2982
 2295TIP3    H128300   5.679   4.563   4.011 -0.4212  0.5734 -1.0414
 2295TIP3    H228301   5.742   4.468   3.911 -0.1178 -0.2094 -0.1246
 2296TIP3   OH228302   2.793   0.716   2.422 -0.2454 -0.7142 -0.0680
 2296TIP3    H128303   2.888   0.717   2.435  0.0399  0.6361 -1.9226
 2296TIP3    H228304   2.758   0.753   2.503  0.9242  0.3101  0.0022
 2297TIP3   OH228305   4.594   0.384   1.154  0.3734  0.2376 -0.7571
 2297TIP3    H128306   4.635   0.468   1.136 -1.8918  1.5474 -0.1143
 2297TIP3    H228307   4.617   0.330   1.078  1.5372  1.5331 -1.3705
 2298TIP3   OH228308   6.741   2.902  14.249 -0.4216  0.5316 -0.1894
 2298TIP3    H128309   6.785   2.981  14.217  0.1793  0.3820  0.2453
 2298TIP3    H228310   6.648   2.924  14.249 -0.8290 -0.3102 -4.5988
 2299TIP3   OH228311   4.979   0.958  13.124 -0.4435  0.0757  0.4640
 2299TIP3    H128312   4.932   1.026  13.076 -0.2061  0.7354  1.1463
 2299TIP3    H228313   5.065   0.996  13.141 -0.4355 -0.2504  1.1766
 2300TIP3   OH228314   1.450   4.412   5.391  0.0684 -0.2306  0.2426
 2300TIP3    H128315   1.498   4.429   5.310  0.9554  1.6051  1.0677
 2300TIP3    H228316   1.363   4.383   5.363  0.2103  0.7922 -1.3934
 2301TIP3   OH228317   0.993   2.578   0.871  0.2441  0.3970  0.0779
 2301TIP3    H128318   0.940   2.645   0.828  0.5148  1.0188  0.6896
 2301TIP3    H228319   1.003   2.510   0.806  1.1700  1.5953 -1.0832
 2302TIP3   OH228320   3.183   3.339  14.720 -0.0336  0.0005  0.3121
 2302TIP3    H128321   3.098   3.374  14.692  0.9330  2.0309 -0.2441
 2302TIP3    H228322   3.197   3.378  14.807  1.0996  1.1374 -0.3520
 2303TIP3   OH228323   2.492   1.273  10.946 -0.0996 -0.0225 -0.8908
 2303TIP3    H128324   2.445   1.330  10.886  1.2001  2.8140  0.5683
 2303TIP3    H228325   2.558   1.230  10.893 -2.0056 -1.3711 -2.2953
 2304TIP3   OH228326   3.413   0.804   2.252 -0.9179 -0.6530 -0.0028
 2304TIP3    H128327   3.447   0.805   2.341  3.3883  1.8342 -1.4008
 2304TIP3    H228328   3.332   0.856   2.256 -0.1424  0.4790  2.2278
 2305TIP3   OH228329   5.777   5.282  17.006 -0.4591 -0.2821  0.2741
 2305TIP3    H128330   5.842   5.321  17.065  0.4547  0.3721 -1.1035
 2305TIP3    H228331   5.808   5.304  16.918 -2.5537  0.0211 -0.4411
 2306TIP3   OH228332   3.439   2.724  13.309 -0.4183  0.1970  0.2318
 2306TIP3    H128333   3.461   2.691  13.396 -1.4435  0.8326  0.7500
 2306TIP3    H228334   3.482   2.809  13.304 -0.7651  0.3797  0.3179
 2307TIP3   OH228335   1.836   6.171  12.621  0.7540 -0.2044  0.6370
 2307TIP3    H128336   1.772   6.197  12.687 -0.4680 -1.2480 -0.0956
 2307TIP3    H228337   1.826   6.076  12.613  1.0045 -0.1397 -0.8881
 2308TIP3   OH228338   5.058   3.746   0.986 -0.0534 -0.2023  0.3488
 2308TIP3    H128339   5.144   3.775   0.955 -0.2763  1.5752  1.2260
 2308TIP3    H228340   5.074   3.706   1.071  0.0551 -1.2338 -0.1397
 2309TIP3   OH228341   6.562   6.804  11.528  0.2053 -0.4475 -0.1924
 2309TIP3    H128342   6.488   6.763  11.484  0.2823 -0.0585 -0.7038
 2309TIP3    H228343   6.599   6.864  11.462 -0.6518  1.3659  0.8894
 2310TIP3   OH228344   1.992   1.347   4.933  0.0310  0.2199  0.1748
 2310TIP3    H128345   2.076   1.371   4.895 -0.8220  2.1267 -0.5957
 2310TIP3    H228346   1.998   1.375   5.025  0.2545  0.2640  0.1460
 2311TIP3   OH228347   5.341   2.372   3.068  0.2724  0.3737 -0.2884
 2311TIP3    H128348   5.426   2.364   3.025  0.2614  2.5652 -0.8497
 2311TIP3    H228349   5.290   2.300   3.033  1.2687  0.2509 -1.5627
 2312TIP3   OH228350   0.151   5.204   5.330 -0.1954 -0.0328  0.9938
 2312TIP3    H128351   0.227   5.220   5.273 -1.4999 -0.7263 -1.0707
 2312TIP3    H228352   0.153   5.276   5.393 -0.3338  2.6483 -1.8359
 2313TIP3   OH228353   0.123   4.676   1.180  0.2653  0.2044 -0.1027
 2313TIP3    H128354   0.033   4.682   1.211  0.5051  0.6510  0.5357
 2313TIP3    H228355   0.132   4.586   1.148 -0.4033  0.1597 -0.1802
 2314TIP3   OH228356   2.122   0.289  15.176 -0.3689 -0.2319 -0.3286
 2314TIP3    H128357   2.041   0.339  15.188  0.6022  1.4067 -0.2614
 2314TIP3    H228358   2.107   0.207  15.223 -1.4893  0.6055  0.8500
 2315TIP3   OH228359   5.643   1.214   2.418 -0.1080 -0.3840  0.4690
 2315TIP3    H128360   5.559   1.175   2.396  0.0738 -0.4419 -0.1392
 2315TIP3    H228361   5.703   1.139   2.424  0.2660 -0.2091 -0.8141
 2316TIP3   OH228362   4.872   4.417   4.645  0.2545 -0.2934 -0.6652
 2316TIP3    H128363   4.844   4.508   4.652 -1.2112 -0.8170  1.4045
 2316TIP3    H228364   4.823   4.382   4.571 -2.8047 -0.4922  1.2918
 2317TIP3   OH228365   5.209   5.448  15.948  0.3178  0.4033 -0.1026
 2317TIP3    H128366   5.210   5.459  16.043  0.2206  0.5221 -0.1159
 2317TIP3    H228367   5.144   5.511  15.916 -0.8496 -0.7578 -0.1094
 2318TIP3   OH228368   0.364   0.460   0.570 -0.6443 -0.2244 -0.3934
 2318TIP3    H128369   0.293   0.524   0.579 -2.0914 -1.6778 -0.9652
 2318TIP3    H228370   0.321   0.381   0.537  0.9532 -1.7380  0.9436
 2319TIP3   OH228371   5.668   3.788   3.262 -0.3722  0.1025 -0.1527
 2319TIP3    H128372   5.641   3.819   3.176  0.4757  0.2785 -0.3589
 2319TIP3    H228373   5.586   3.780   3.311 -0.8392  0.2008 -0.9045
 2320TIP3   OH228374   1.051   4.837  12.811  0.1317 -0.5646  0.1437
 2320TIP3    H128375   1.022   4.922  12.780  2.2181 -0.5507 -2.0781
 2320TIP3    H228376   1.060   4.847  12.906 -0.0429  1.5616 -0.0227
 2321TIP3   OH228377   3.175   4.101   1.997  0.6398 -0.0190  0.4527
 2321TIP3    H128378   3.150   4.066   2.082  0.4191 -2.9937 -0.6830
 2321TIP3    H228379   3.269   4.085   1.990  0.7215  0.5286  0.2979
 2322TIP3   OH228380   0.143   6.185   0.575 -0.2842  0.6661  0.0161
 2322TIP3    H128381   0.199   6.154   0.504 -1.9627  1.3300 -1.6724
 2322TIP3    H228382   0.184   6.151   0.655  2.4769  1.1150 -1.1162
 2323TIP3   OH228383   2.679   3.195  14.179 -0.0628  0.0491 -0.0719
 2323TIP3    H128384   2.630   3.254  14.235  1.5062  1.9183 -0.5681
 2323TIP3    H228385   2.737   3.147  14.239  1.5334  1.9658  0.0336
 2324TIP3   OH228386   3.843   2.547   3.795 -0.4027 -0.0443  0.1627
 2324TIP3    H128387   3.776   2.482   3.775  0.4657 -0.7485 -0.5460
 2324TIP3    H228388   3.882   2.517   3.877 -0.7193  0.1777  0.3961
 2325TIP3   OH228389   1.301   1.866   1.834  0.3566  0.1947 -0.0325
 2325TIP3    H128390   1.391   1.850   1.806 -0.2530 -0.8315 -1.5428
 2325TIP3    H228391   1.296   1.827   1.921  1.1414 -0.5630 -0.3149
 2326TIP3   OH228392   3.638   0.406   0.184  0.1153 -0.2471 -0.0766
 2326TIP3    H128393   3.599   0.416   0.097  0.1792 -0.2011 -0.1005
 2326TIP3    H228394   3.718   0.355   0.169 -0.6153 -1.5127  0.1497
 2327TIP3   OH228395   6.476   0.452   3.116 -0.6954 -0.2733  0.0505
 2327TIP3    H128396   6.465   0.422   3.206  1.7300 -0.6821  0.2845
 2327TIP3    H228397   6.404   0.411   3.067 -2.0886  0.0109  1.7692
 2328TIP3   OH228398   4.549   5.642  13.323 -0.2872 -0.0112  0.6259
 2328TIP3    H128399   4.573   5.551  13.305 -1.3882  0.0590 -1.5148
 2328TIP3    H228400   4.472   5.636  13.379 -0.0479 -0.3785  0.9209
 2329TIP3   OH228401   6.680   0.129  11.341 -0.6076 -0.1333 -0.4682
 2329TIP3    H128402   6.654   0.083  11.262  0.0936  0.2161 -0.9238
 2329TIP3    H228403   6.682   0.222  11.315  0.0885 -0.0593 -0.1895
 2330TIP3   OH228404   0.535   5.194  14.302  0.5693  0.2670 -0.2838
 2330TIP3    H128405   0.505   5.213  14.213  0.5095 -1.8709 -0.7637
 2330TIP3    H228406   0.602   5.127  14.291  1.6405  1.0376  1.2042
 2331TIP3   OH228407   4.776   5.369  13.735 -0.3659  0.0022 -0.1952
 2331TIP3    H128408   4.693   5.378  13.688  0.2266 -0.9633 -1.4833
 2331TIP3    H228409   4.843   5.382  13.668  0.5087 -1.8473  0.2628
 2332TIP3   OH228410   3.806   1.260  12.494  0.3453 -0.2631  0.0269
 2332TIP3    H128411   3.712   1.246  12.503  0.1383  1.4221  0.9122
 2332TIP3    H228412   3.821   1.347  12.532  2.0701  0.0529 -1.2481
 2333TIP3   OH228413   4.242   6.682   1.240 -0.3934  0.1085 -0.1941
 2333TIP3    H128414   4.308   6.643   1.296  0.1805  2.0609  0.5623
 2333TIP3    H228415   4.235   6.622   1.165 -1.3276 -2.6932  1.9626
 2334TIP3   OH228416   6.695   2.860   3.633  0.2359  0.0604  0.2367
 2334TIP3    H128417   6.749   2.864   3.712  1.5357 -0.0749 -0.6069
 2334TIP3    H228418   6.608   2.838   3.664  0.5027  0.9880  1.7229
 2335TIP3   OH228419   1.769   3.044   4.101  0.3446 -0.2620  0.2216
 2335TIP3    H128420   1.780   3.132   4.137 -0.4999 -0.2671  0.5378
 2335TIP3    H228421   1.676   3.039   4.079  0.8099 -0.2635 -2.0145
 2336TIP3   OH228422   4.287   3.668   6.168  0.4285  0.5817  0.4550
 2336TIP3    H128423   4.232   3.733   6.125  1.6115  0.8223 -0.7386
 2336TIP3    H228424   4.270   3.587   6.120  0.6184  0.5058  0.5157
 2337TIP3   OH228425   3.664   2.674   2.366  0.2257  0.1214  0.4630
 2337TIP3    H128426   3.754   2.659   2.394  0.3803  1.5274  0.7806
 2337TIP3    H228427   3.667   2.756   2.317 -1.1396  1.0420  1.8392
 2338TIP3   OH228428   5.991   5.841   4.625  0.3062  0.0738  0.1620
 2338TIP3    H128429   5.926   5.832   4.695 -1.1752  1.0910 -1.0183
 2338TIP3    H228430   5.948   5.804   4.547  1.6224 -0.3356 -0.4052
 2339TIP3   OH228431   5.922   1.206  14.478  0.5949 -0.1906  0.0151
 2339TIP3    H128432   6.015   1.204  14.456  0.7170  0.3070  0.4932
 2339TIP3    H228433   5.891   1.290  14.444  0.1022 -0.7500 -0.9846
 2340TIP3   OH228434   6.160   5.734  13.520  0.2910  0.0028 -0.0116
 2340TIP3    H128435   6.079   5.735  13.571 -0.5620  2.5929 -1.2351
 2340TIP3    H228436   6.229   5.716  13.583 -0.9175  1.0824  1.6771
 2341TIP3   OH228437   6.606   5.326  11.326 -0.0256 -0.2338  0.3921
 2341TIP3    H128438   6.523   5.320  11.280  0.4618 -0.6806 -0.4699
 2341TIP3    H228439   6.593   5.276  11.406 -1.2356  1.4916  1.3096
 2342TIP3   OH228440   6.615   6.671  13.790 -0.0659 -0.1841 -0.1304
 2342TIP3    H128441   6.711   6.678  13.783  0.0841 -0.8548  0.9335
 2342TIP3    H228442   6.588   6.631  13.707  0.8025 -1.6942  0.2632
 2343TIP3   OH228443   1.896   5.344  13.171 -0.2623  0.0003  0.0223
 2343TIP3    H128444   1.845   5.264  13.185 -0.9251  0.2201 -1.0282
 2343TIP3    H228445   1.955   5.322  13.099 -1.6698  0.9681 -1.4913
 2344TIP3   OH228446   2.752   5.794   4.895 -0.4127  0.5018 -0.4459
 2344TIP3    H128447   2.783   5.881   4.922 -1.8164  1.0902 -0.6138
 2344TIP3    H228448   2.700   5.811   4.816 -2.1384 -0.2411  0.4806
 2345TIP3   OH228449   4.472   6.460   1.935 -0.2427 -0.2010  0.4406
 2345TIP3    H128450   4.470   6.440   2.028 -0.1474 -1.1752  0.2393
 2345TIP3    H228451   4.563   6.485   1.918  0.1852 -1.7609  0.2735
 2346TIP3   OH228452   4.265   0.853  12.625 -0.3165 -0.5180  0.2765
 2346TIP3    H128453   4.357   0.828  12.614 -0.0013  0.1308  1.2481
 2346TIP3    H228454   4.268   0.946  12.647 -0.9947 -0.9842  2.6590
 2347TIP3   OH228455   1.217   3.897  15.349  0.0249  0.1521  0.3804
 2347TIP3    H128456   1.309   3.911  15.374 -0.0188 -0.6891  1.0806
 2347TIP3    H228457   1.213   3.922  15.257  1.5417 -2.0672 -0.3949
 2348TIP3   OH228458   2.622   5.357   0.713 -0.4406 -0.0463  0.0380
 2348TIP3    H128459   2.637   5.405   0.795 -2.1175  0.2530  0.2130
 2348TIP3    H228460   2.694   5.293   0.709 -0.3229 -0.0670  1.7525
 2349TIP3   OH228461   0.658   6.358   1.397 -0.0978  0.4832  0.0158
 2349TIP3    H128462   0.615   6.350   1.312  0.6067 -3.1011 -0.1450
 2349TIP3    H228463   0.725   6.425   1.384 -0.9018  0.9814 -1.8132
 2350TIP3   OH228464   6.801   3.436  11.975 -0.3027  0.2867  0.3165
 2350TIP3    H128465   6.775   3.379  12.048  1.3322  0.5596  1.1603
 2350TIP3    H228466   6.728   3.498  11.966 -1.5930 -1.1944  0.1358
 2351TIP3   OH228467   5.142   3.095   2.410 -0.4210 -0.0286  0.0792
 2351TIP3    H128468   5.113   3.182   2.383 -2.2203 -0.7261 -0.3272
 2351TIP3    H228469   5.101   3.080   2.495  0.0443 -0.4073  0.2446
 2352TIP3   OH228470   3.632   0.587  11.258  0.1785 -0.2121 -0.5756
 2352TIP3    H128471   3.589   0.630  11.332  0.4509 -0.0111 -0.5353
 2352TIP3    H228472   3.706   0.541  11.297 -0.9484 -1.9482 -0.4000
 2353TIP3   OH228473   4.136   0.622   6.045  0.4084 -0.3083 -0.3763
 2353TIP3    H128474   4.062   0.670   6.008  0.8903 -0.7208 -1.9270
 2353TIP3    H228475   4.109   0.530   6.042  1.2458 -0.5394 -1.6672
 2354TIP3   OH228476   4.233   1.151  14.407 -0.1261 -0.1065  0.0872
 2354TIP3    H128477   4.284   1.080  14.368 -3.2592 -2.3036 -0.4406
 2354TIP3    H228478   4.237   1.222  14.343  2.0793 -0.2308  0.0332
 2355TIP3   OH228479   1.926   5.255  15.421  0.2424 -0.3028 -0.0348
 2355TIP3    H128480   1.877   5.256  15.503 -2.9206  0.1700 -1.7916
 2355TIP3    H228481   1.949   5.162  15.408 -0.3742 -0.5739  0.7512
 2356TIP3   OH228482   1.018   6.430   1.940 -0.5799  0.0757 -0.0945
 2356TIP3    H128483   0.928   6.421   1.910 -1.0872 -1.4177  1.7201
 2356TIP3    H228484   1.012   6.445   2.034  1.0522  0.4319 -0.0048
 2357TIP3   OH228485   2.359   2.257   0.730 -0.2225 -0.1023  0.4060
 2357TIP3    H128486   2.389   2.178   0.775 -0.4137 -0.6951 -0.5059
 2357TIP3    H228487   2.339   2.229   0.641 -0.7856  0.8668  0.2118
 2358TIP3   OH228488   0.493   0.352  13.015  0.0904 -0.3151 -0.4151
 2358TIP3    H128489   0.570   0.370  12.962  0.5282 -0.5900  0.1149
 2358TIP3    H228490   0.425   0.331  12.952  0.5222 -0.3372 -0.8792
 2359TIP3   OH228491   5.390   2.814  11.710 -0.4548 -0.1728 -0.5490
 2359TIP3    H128492   5.452   2.765  11.656  0.3282  0.6217 -0.3682
 2359TIP3    H228493   5.339   2.746  11.754  1.2701 -0.8738  0.4627
 2360TIP3   OH228494   6.508   0.113  12.312  0.7374  0.7092 -0.1379
 2360TIP3    H128495   6.429   0.062  12.292 -0.3378  2.2727 -0.0928
 2360TIP3    H228496   6.563   0.103  12.234 -0.4784  1.3022 -1.1306
 2361TIP3   OH228497   2.996   2.217  13.024 -0.2522  0.3244  0.1527
 2361TIP3    H128498   3.038   2.302  13.040 -0.6793  0.3176  1.3955
 2361TIP3    H228499   2.940   2.203  13.100 -1.1448 -0.5037 -0.6298
 2362TIP3   OH228500   3.601   2.913  13.159 -0.4495  0.1184  0.1156
 2362TIP3    H128501   3.613   2.999  13.119  1.7398 -0.4560 -0.6104
 2362TIP3    H228502   3.602   2.931  13.254 -0.9245  0.9723 -0.0266
 2363TIP3   OH228503   0.642   3.462   2.423 -0.2352  0.0335 -0.1440
 2363TIP3    H128504   0.631   3.558   2.421  1.1772  0.1983 -0.6731
 2363TIP3    H228505   0.581   3.433   2.491 -2.2143  1.0789 -1.3707
 2364TIP3   OH228506   5.223   4.945   1.412  0.3648  0.1871 -0.1548
 2364TIP3    H128507   5.178   4.967   1.494 -1.6198 -1.9180 -0.5730
 2364TIP3    H228508   5.159   4.964   1.344 -0.3549 -3.4697 -0.7289
 2365TIP3   OH228509   3.848   3.333  14.818  0.3042 -0.0624  0.0277
 2365TIP3    H128510   3.854   3.264  14.885  0.1191 -0.8317 -0.7377
 2365TIP3    H228511   3.881   3.411  14.862  1.7803 -0.9146  0.5195
 2366TIP3   OH228512   5.740   3.533   5.236 -0.0436  0.0244 -0.3154
 2366TIP3    H128513   5.795   3.583   5.175 -1.5058  1.6524 -0.3886
 2366TIP3    H228514   5.789   3.533   5.318 -0.0751  1.7804 -0.2662
 2367TIP3   OH228515   3.220   0.613   0.134 -0.0583  0.0064 -0.1696
 2367TIP3    H128516   3.124   0.614   0.127 -0.0473 -0.4766 -0.3932
 2367TIP3    H228517   3.245   0.525   0.109  0.4293  0.0358  0.2104
 2368TIP3   OH228518   4.078   1.396  16.814  0.9235 -0.2802  0.9798
 2368TIP3    H128519   4.026   1.455  16.759  0.9995 -0.9444  0.1692
 2368TIP3    H228520   4.112   1.331  16.753  0.6896 -1.2713  1.8779
 2369TIP3   OH228521   0.565   0.757  15.748 -0.4477 -0.1541 -0.1826
 2369TIP3    H128522   0.614   0.821  15.799 -1.6240 -0.7757  1.8512
 2369TIP3    H228523   0.599   0.672  15.775 -1.8924 -0.5488  0.5253
 2370TIP3   OH228524   6.147   0.330  12.519  0.0527  0.4633  0.2326
 2370TIP3    H128525   6.236   0.330  12.485 -0.0349  0.0155 -0.0092
 2370TIP3    H228526   6.158   0.319  12.614  0.2350 -0.7608  0.0920
 2371TIP3   OH228527   2.775   5.078   5.517 -0.4146  0.4623 -0.2499
 2371TIP3    H128528   2.808   5.021   5.447 -0.7887  0.0003 -0.0585
 2371TIP3    H228529   2.741   5.155   5.472  0.0920  0.5367 -0.5137
 2372TIP3   OH228530   0.404   0.072   2.537 -0.0872 -0.2061  0.6719
 2372TIP3    H128531   0.497   0.065   2.561 -0.0033 -0.8214  0.1960
 2372TIP3    H228532   0.368   0.133   2.601  0.6914  0.2071  0.7367
 2373TIP3   OH228533   6.295   5.282  11.892 -0.3880 -0.0675 -0.3755
 2373TIP3    H128534   6.299   5.279  11.987  2.4187 -0.5596 -0.4226
 2373TIP3    H228535   6.285   5.375  11.871 -2.2397 -0.0637  0.3568
 2374TIP3   OH228536   3.077   1.218   2.128 -0.5196  0.0861 -0.0838
 2374TIP3    H128537   3.042   1.306   2.137  0.2285  0.2609  1.2862
 2374TIP3    H228538   3.079   1.183   2.217 -0.8583 -1.3495 -0.6057
 2375TIP3   OH228539   4.414   5.339  10.445 -0.2154  0.0648  0.1129
 2375TIP3    H128540   4.421   5.250  10.410 -0.4782 -0.0077  0.2456
 2375TIP3    H228541   4.321   5.361  10.439  0.0693  1.0604 -1.7166
 2376TIP3   OH228542   1.010   4.171  14.115 -0.6226 -0.1243  0.5793
 2376TIP3    H128543   1.099   4.193  14.142 -0.4275  0.9444 -0.8227
 2376TIP3    H228544   0.953   4.219  14.175 -0.2175  1.4273 -0.2439
 2377TIP3   OH228545   4.307   3.945  11.894  0.1678 -0.2115 -0.7943
 2377TIP3    H128546   4.243   3.874  11.893  2.7611 -2.7705  0.7374
 2377TIP3    H228547   4.338   3.950  11.803 -0.1216 -0.9816 -0.9435
 2378TIP3   OH228548   1.177   2.328  14.541 -0.3651  0.2154  0.0559
 2378TIP3    H128549   1.131   2.307  14.460 -1.7812  1.0558  0.6007
 2378TIP3    H228550   1.109   2.364  14.599  0.9691  1.4794  0.9102
 2379TIP3   OH228551   0.323   0.332   2.286  0.0889  0.0823 -0.0648
 2379TIP3    H128552   0.381   0.368   2.352  0.2299  0.6724 -0.5072
 2379TIP3    H228553   0.238   0.325   2.329  0.5996 -1.3766  0.7881
 2380TIP3   OH228554   2.297   3.815   5.245 -0.3755 -0.0135  0.6534
 2380TIP3    H128555   2.210   3.829   5.208 -1.1247 -1.9190  1.5721
 2380TIP3    H228556   2.325   3.730   5.210  1.4187  0.8320 -0.1113
 2381TIP3   OH228557   1.940   2.468   3.522 -0.2327 -0.3884  0.0589
 2381TIP3    H128558   1.948   2.480   3.428 -4.3886 -1.3734 -0.6145
 2381TIP3    H228559   1.920   2.555   3.556  1.1260 -0.0604  0.0989
 2382TIP3   OH228560   0.838   1.698  14.677 -0.0707  0.3008  0.0422
 2382TIP3    H128561   0.801   1.613  14.701 -1.3778  0.6513 -0.6753
 2382TIP3    H228562   0.905   1.678  14.612 -1.4987 -0.0793 -1.3632
 2383TIP3   OH228563   0.567   1.586  11.512 -0.1165 -0.2620 -0.4717
 2383TIP3    H128564   0.494   1.648  11.519  1.6060  1.7602  0.9143
 2383TIP3    H228565   0.531   1.503  11.542 -2.0120  0.5006 -0.5070
 2384TIP3   OH228566   2.624   1.582  12.930 -0.7247  0.2469  0.4838
 2384TIP3    H128567   2.684   1.509  12.944 -1.2515 -0.1900  0.4771
 2384TIP3    H228568   2.547   1.543  12.891 -0.4744  1.0102 -0.8434
 2385TIP3   OH228569   5.485   5.823  14.103 -0.1526 -0.1213 -0.3473
 2385TIP3    H128570   5.441   5.807  14.019 -1.6076 -0.7038  0.4808
 2385TIP3    H228571   5.574   5.849  14.079 -0.7916  0.6450 -2.1044
 2386TIP3   OH228572   2.122   2.275   5.992 -0.0659 -0.6570 -0.2642
 2386TIP3    H128573   2.053   2.211   6.011 -0.8243 -0.1550 -1.2278
 2386TIP3    H228574   2.198   2.243   6.040 -0.6515 -1.8609 -0.0952
 2387TIP3   OH228575   5.633   1.022   2.657 -0.6743 -0.3445 -0.2793
 2387TIP3    H128576   5.541   1.005   2.677 -0.5803 -0.6696 -0.1137
 2387TIP3    H228577   5.658   1.092   2.718 -1.1802  0.7206 -1.2563
 2388TIP3   OH228578   2.687   5.205   2.112  0.1239 -0.0956 -0.1005
 2388TIP3    H128579   2.705   5.236   2.023 -0.6333 -1.9634 -0.9538
 2388TIP3    H228580   2.717   5.114   2.112  0.4406 -0.0255  1.6927
 2389TIP3   OH228581   3.347   2.751  15.767  0.3535 -0.4037 -0.5774
 2389TIP3    H128582   3.342   2.801  15.848  1.1451 -0.7493 -0.3094
 2389TIP3    H228583   3.270   2.693  15.770 -0.9308  1.1998 -1.1925
 2390TIP3   OH228584   1.682   3.233   2.866  0.2972  0.0757  0.1002
 2390TIP3    H128585   1.670   3.199   2.777 -1.1308  1.5391 -0.3000
 2390TIP3    H228586   1.694   3.154   2.919  0.7115 -0.8570 -1.2991
 2391TIP3   OH228587   3.235   5.436   6.308  0.5114  0.0629  0.0475
 2391TIP3    H128588   3.203   5.355   6.268 -0.6815  0.7880 -0.5021
 2391TIP3    H228589   3.202   5.433   6.397 -0.6288  0.5269 -0.3444
 2392TIP3   OH228590   6.307   0.380  16.028  0.6962  0.4857 -0.6070
 2392TIP3    H128591   6.245   0.424  15.969  1.1290  1.2640 -0.4981
 2392TIP3    H228592   6.275   0.402  16.116 -0.1070 -0.8946 -0.5205
 2393TIP3   OH228593   6.362   2.288  10.854  0.2194 -0.5908  0.4493
 2393TIP3    H128594   6.268   2.299  10.848  0.4256  1.4319  0.4608
 2393TIP3    H228595   6.385   2.237  10.776 -0.7697 -0.4123  0.0319
 2394TIP3   OH228596   6.300   5.972   1.715  0.6572  0.2666 -0.0845
 2394TIP3    H128597   6.252   6.024   1.651  0.4570 -1.1264 -1.1052
 2394TIP3    H228598   6.237   5.953   1.784  0.3019  0.1304 -0.4430
 2395TIP3   OH228599   1.371   2.045   2.386 -0.0143  0.5616 -0.5990
 2395TIP3    H128600   1.413   1.969   2.345 -0.2862  1.0915 -1.8974
 2395TIP3    H228601   1.297   2.065   2.329 -1.4892  0.2593  1.1190
 2396TIP3   OH228602   2.202   1.452  16.222 -0.6684 -0.4067 -0.1668
 2396TIP3    H128603   2.242   1.420  16.303 -0.0172 -0.1457 -0.3778
 2396TIP3    H228604   2.124   1.500  16.250  0.6421  1.4310  0.4683
 2397TIP3   OH228605   4.462   1.631  11.351  0.3952  0.2695 -0.2294
 2397TIP3    H128606   4.505   1.645  11.436 -0.6600 -2.7505  0.9468
 2397TIP3    H228607   4.532   1.639  11.287  1.8902 -0.3512  1.2521
 2398TIP3   OH228608   4.511   0.553  11.886 -0.0663 -0.9231  0.3442
 2398TIP3    H128609   4.500   0.527  11.794 -1.2582 -0.3398  0.3088
 2398TIP3    H228610   4.435   0.607  11.905  0.9760  0.2965  1.2111
 2399TIP3   OH228611   1.528   3.432   0.623 -0.1114  0.2716  0.9260
 2399TIP3    H128612   1.600   3.487   0.654 -0.1332  0.2122  1.0826
 2399TIP3    H228613   1.569   3.373   0.560  0.0519 -0.0094  1.2864
 2400TIP3   OH228614   1.690   6.498  13.651  0.3567  0.1155 -0.5657
 2400TIP3    H128615   1.730   6.442  13.585  0.2572 -1.8268  0.9297
 2400TIP3    H228616   1.684   6.443  13.729  0.7757  2.4029  1.1904
 2401TIP3   OH228617   1.558   3.938  12.517  0.3458  0.4241 -0.3791
 2401TIP3    H128618   1.602   3.951  12.433 -0.5918  0.0880 -0.9454
 2401TIP3    H228619   1.626   3.904  12.575  1.4156  2.2235 -0.5139
 2402TIP3   OH228620   0.234   1.610  15.507  0.0973  0.1268  0.0674
 2402TIP3    H128621   0.236   1.654  15.593 -1.6210  0.6929 -0.1428
 2402TIP3    H228622   0.294   1.661  15.453 -0.7499  1.3725  0.2478
 2403TIP3   OH228623   1.090   6.121  12.787 -0.7433  0.4156 -0.6098
 2403TIP3    H128624   1.165   6.142  12.731 -0.6323 -0.0042 -0.6234
 2403TIP3    H228625   1.015   6.119  12.728 -0.5544 -0.4949 -0.8365
 2404TIP3   OH228626   2.360   2.973   1.961  0.4830  0.6466 -0.0128
 2404TIP3    H128627   2.441   2.958   1.913  1.3040 -1.5606  1.8355
 2404TIP3    H228628   2.341   2.888   2.002 -2.3117  1.3316  0.2949
 2405TIP3   OH228629   0.436   4.048  15.666 -0.3733 -0.0917  0.4691
 2405TIP3    H128630   0.450   3.958  15.637 -0.7081  0.5233 -1.8164
 2405TIP3    H228631   0.381   4.039  15.744  1.6451 -1.9223  1.8154
 2406TIP3   OH228632   6.162   1.011  11.621 -0.5240 -0.1223 -0.4192
 2406TIP3    H128633   6.107   1.043  11.549 -1.7192 -1.3313 -0.0769
 2406TIP3    H228634   6.125   0.926  11.643 -1.4854  1.0345  2.9713
 2407TIP3   OH228635   6.023   2.314  12.263 -0.4317  0.7611  0.7411
 2407TIP3    H128636   5.991   2.342  12.349 -0.8223  0.1516  0.7981
 2407TIP3    H228637   6.115   2.293  12.277 -0.7097 -0.1904  1.2205
 2408TIP3   OH228638   5.115   5.395  12.013  0.1994 -0.1210 -0.0575
 2408TIP3    H128639   5.126   5.302  11.995  2.2592  0.1893 -0.7136
 2408TIP3    H228640   5.020   5.409  12.011 -0.1320 -2.1185 -0.3133
 2409TIP3   OH228641   4.484   3.940  13.153  0.1614  0.3633 -0.0862
 2409TIP3    H128642   4.551   3.996  13.113  0.7006 -1.4925 -1.9748
 2409TIP3    H228643   4.529   3.858  13.170 -1.5628 -0.9376 -1.3916
 2410TIP3   OH228644   3.088   5.260   3.281 -0.6932 -0.2194  0.0827
 2410TIP3    H128645   3.130   5.328   3.334  0.1755 -0.2629 -0.5275
 2410TIP3    H228646   3.052   5.308   3.206 -1.9337 -0.1538  0.7125
 2411TIP3   OH228647   4.520   3.573   0.358 -0.2465  0.2962  0.2004
 2411TIP3    H128648   4.457   3.523   0.411 -0.5033  1.0720  0.6509
 2411TIP3    H228649   4.465   3.621   0.295  0.0562 -0.6243 -0.8032
 2412TIP3   OH228650   4.186   6.328   2.309  0.2092 -0.4666  0.2591
 2412TIP3    H128651   4.175   6.422   2.326  0.1219 -0.7739  2.1304
 2412TIP3    H228652   4.173   6.319   2.215 -0.8485  1.2564  0.1997
 2413TIP3   OH228653   4.685   4.056   3.862 -0.6781 -0.3954  0.4759
 2413TIP3    H128654   4.628   3.991   3.821  1.0185 -0.1443 -2.5929
 2413TIP3    H228655   4.659   4.139   3.823  0.1195  0.0920  0.9434
 2414TIP3   OH228656   5.524   4.313  14.777 -0.6029  0.6361 -0.2701
 2414TIP3    H128657   5.435   4.281  14.796 -1.2902  2.6879  0.2968
 2414TIP3    H228658   5.512   4.373  14.703  0.4744  0.2454 -0.7679
 2415TIP3   OH228659   5.419   6.063   1.608  0.1301  0.2547  0.0985
 2415TIP3    H128660   5.417   6.145   1.559  0.1422 -0.3256 -0.9109
 2415TIP3    H228661   5.445   5.997   1.543  1.0778 -0.4014  1.1113
 2416TIP3   OH228662   0.211   2.183  12.401  0.0393  0.5679  0.1981
 2416TIP3    H128663   0.282   2.121  12.385  0.7190  1.3284  0.2051
 2416TIP3    H228664   0.132   2.138  12.371  0.4411 -0.5097  0.6958
 2417TIP3   OH228665   3.627   6.041  13.235  0.6487 -0.5634 -0.1103
 2417TIP3    H128666   3.649   5.947  13.234  0.4461 -0.6292 -1.9023
 2417TIP3    H228667   3.706   6.084  13.201  0.1770 -0.2329 -0.7952
 2418TIP3   OH228668   6.760   6.282  15.269 -0.1612  0.3432  0.1573
 2418TIP3    H128669   6.847   6.264  15.235 -0.4109  0.8922 -0.8072
 2418TIP3    H228670   6.775   6.332  15.349  0.4064  0.2076  0.1362
 2419TIP3   OH228671   1.912   1.343  11.002  0.3329  0.0434  0.1187
 2419TIP3    H128672   1.977   1.363  11.070  0.0185  0.5461  0.2729
 2419TIP3    H228673   1.954   1.372  10.921  0.5758 -0.2590  0.1319
 2420TIP3   OH228674   3.224   3.354  12.185 -0.5334  0.7024  0.0605
 2420TIP3    H128675   3.312   3.330  12.155 -1.7091 -1.1908 -2.2752
 2420TIP3    H228676   3.183   3.393  12.107 -2.1511  0.3726  0.7189
 2421TIP3   OH228677   6.129   3.959  14.705  0.1796  0.1253  0.4170
 2421TIP3    H128678   6.155   4.014  14.632 -0.7347  1.5192  1.1017
 2421TIP3    H228679   6.205   3.904  14.722  0.0708 -1.0094 -2.2301
 2422TIP3   OH228680   2.381   2.927  13.048 -0.2406 -0.4297  0.0797
 2422TIP3    H128681   2.418   3.010  13.017 -1.1846  0.6123  1.6076
 2422TIP3    H228682   2.423   2.913  13.133 -1.2711 -0.6778  0.5598
 2423TIP3   OH228683   5.112   6.484   0.404 -0.2890  0.1007  0.1795
 2423TIP3    H128684   5.205   6.489   0.428 -0.8724  1.3319  2.4215
 2423TIP3    H228685   5.103   6.544   0.330  0.7879 -0.6100 -0.5749
 2424TIP3   OH228686   0.606   5.185  13.243  0.4955  0.3160  0.5866
 2424TIP3    H128687   0.626   5.241  13.168 -0.7544  0.5688  0.4203
 2424TIP3    H228688   0.617   5.242  13.320  1.9815 -0.0012  0.6234
 2425TIP3   OH228689   5.282   2.317  12.339 -0.1047  0.1856  0.0002
 2425TIP3    H128690   5.376   2.327  12.321  0.3534 -2.5454  0.5090
 2425TIP3    H228691   5.249   2.266  12.265 -0.6549 -0.9382  0.9928
 2426TIP3   OH228692   0.331   4.600  11.335  0.2479  0.1986  0.2269
 2426TIP3    H128693   0.265   4.540  11.301 -1.0283  1.1514  0.9422
 2426TIP3    H228694   0.345   4.663  11.265  0.0126  0.2995  0.2721
 2427TIP3   OH228695   3.182   5.952  13.197  0.2026  0.0908 -0.6273
 2427TIP3    H128696   3.195   5.877  13.254 -2.0270  0.9604  1.2057
 2427TIP3    H228697   3.257   6.009  13.214  0.1119 -0.1471  0.6720
 2428TIP3   OH228698   1.116   4.719   0.478  0.6775  0.1472  0.8317
 2428TIP3    H128699   1.146   4.787   0.539 -0.9687  1.7674 -0.0370
 2428TIP3    H228700   1.187   4.710   0.416  1.1826  0.6494  1.3195
 2429TIP3   OH228701   4.025   4.624   1.251 -0.1336 -0.1367 -0.0013
 2429TIP3    H128702   4.119   4.640   1.253  0.0524 -1.1351  2.2869
 2429TIP3    H228703   3.991   4.692   1.192  1.7403  1.8134  1.0114
 2430TIP3   OH228704   2.160   3.628   5.713  0.3589  0.3220 -0.6530
 2430TIP3    H128705   2.120   3.645   5.627 -0.3945  0.3621 -0.2978
 2430TIP3    H228706   2.113   3.552   5.747  0.6235  0.3357 -0.2498
 2431TIP3   OH228707   3.359   5.633   6.500  0.4718  0.3733 -0.2017
 2431TIP3    H128708   3.373   5.725   6.477  1.8560  0.3291  0.3446
 2431TIP3    H228709   3.404   5.623   6.583  0.4707 -0.8484 -0.3397
 2432TIP3   OH228710   3.019   4.111  14.772  0.2113  0.6187 -0.0628
 2432TIP3    H128711   3.113   4.127  14.774  0.1133  1.1444  1.1825
 2432TIP3    H228712   2.988   4.162  14.697  0.3285  4.2571  2.0829
 2433TIP3   OH228713   4.755   2.486   2.750 -0.2219 -0.0334  0.5482
 2433TIP3    H128714   4.676   2.459   2.703 -0.4503 -0.0475  0.9368
 2433TIP3    H228715   4.726   2.500   2.840  0.3568 -0.6932  0.8482
 2434TIP3   OH228716   6.378   0.961  15.856  0.4637 -0.2570 -0.3524
 2434TIP3    H128717   6.414   0.982  15.770 -1.6481  1.2654 -0.9514
 2434TIP3    H228718   6.448   0.982  15.917  2.1832 -1.8507 -1.6973
 2435TIP3   OH228719   5.531   1.324  16.152 -0.2155  0.3710  0.2163
 2435TIP3    H128720   5.547   1.341  16.059 -1.8895  0.1963 -0.1440
 2435TIP3    H228721   5.511   1.410  16.189 -1.2113  0.2387  0.0254
 2436TIP3   OH228722   2.544   0.782  14.128  0.3047 -0.5193 -0.1501
 2436TIP3    H128723   2.557   0.825  14.043 -0.0851 -1.5966 -0.7761
 2436TIP3    H228724   2.450   0.783  14.141  0.2664 -1.3825 -0.2945
 2437TIP3   OH228725   1.802   5.565  14.227  0.0853  0.0996  0.4081
 2437TIP3    H128726   1.770   5.475  14.235  2.8612 -1.3312 -2.3203
 2437TIP3    H228727   1.787   5.603  14.313 -0.0595 -3.3938  2.1190
 2438TIP3   OH228728   3.847   5.169  13.401  0.2391  0.7456 -0.1017
 2438TIP3    H128729   3.907   5.124  13.461  0.6602 -0.1890 -1.1975
 2438TIP3    H228730   3.762   5.162  13.443  0.2703 -1.1942 -0.2856
 2439TIP3   OH228731   5.111   6.164   5.948  0.0162 -0.2171 -0.8197
 2439TIP3    H128732   5.200   6.149   5.980  0.7926  0.4389 -2.5064
 2439TIP3    H228733   5.090   6.253   5.977 -0.9777 -1.1025  1.3837
 2440TIP3   OH228734   5.773   5.601   4.655  0.1428  0.0810 -0.4485
 2440TIP3    H128735   5.813   5.518   4.680 -0.4144  0.5768  2.3248
 2440TIP3    H228736   5.762   5.648   4.737 -1.3640  2.0989 -1.7314
 2441TIP3   OH228737   6.610   4.126   2.961 -0.2488  0.5915 -0.2867
 2441TIP3    H128738   6.591   4.034   2.983  0.0679  0.3495 -1.0166
 2441TIP3    H228739   6.526   4.161   2.931 -0.4867  0.6866  0.4593
 2442TIP3   OH228740   1.785   0.394  12.372  0.3965  0.0205 -0.5864
 2442TIP3    H128741   1.697   0.366  12.348 -0.8664  4.3584 -1.9862
 2442TIP3    H228742   1.838   0.378  12.294  0.7878 -1.9486  0.0231
 2443TIP3   OH228743   1.987   3.452   2.628 -0.7156  0.6751 -0.0330
 2443TIP3    H128744   2.082   3.454   2.611 -0.2278  1.8916  2.3748
 2443TIP3    H228745   1.949   3.500   2.555  0.7331  1.7595 -0.1267
 2444TIP3   OH228746   4.938   2.301  15.272 -0.1781  0.4976  0.3037
 2444TIP3    H128747   4.959   2.215  15.309 -0.6021  1.5965  3.4447
 2444TIP3    H228748   4.980   2.363  15.332  1.1300  2.5608 -2.5069
 2445TIP3   OH228749   3.592   3.764   0.577 -0.3704 -0.2743 -0.2699
 2445TIP3    H128750   3.668   3.805   0.618 -1.0702  1.7515 -0.8792
 2445TIP3    H228751   3.612   3.765   0.483 -0.5995 -0.9760 -0.3356
 2446TIP3   OH228752   0.251   3.697   2.634  0.3104  0.3568  0.5650
 2446TIP3    H128753   0.168   3.665   2.599  0.1360  1.9270 -0.5640
 2446TIP3    H228754   0.227   3.768   2.694  0.8054  0.6432  0.4389
 2447TIP3   OH228755   4.671   5.736   0.727  0.5157  0.0173  0.7991
 2447TIP3    H128756   4.749   5.740   0.671  0.4624 -2.0091  0.4756
 2447TIP3    H228757   4.598   5.755   0.669  0.6449  0.3023  0.7287
 2448TIP3   OH228758   0.323   6.250   2.863  0.1354 -0.0570 -0.1905
 2448TIP3    H128759   0.399   6.300   2.891 -0.7714  0.2237  2.0101
 2448TIP3    H228760   0.299   6.288   2.779  1.3608  1.0479 -0.0730
 2449TIP3   OH228761   0.020   6.052  12.651  0.4762  0.2620  0.1769
 2449TIP3    H128762   0.113   6.030  12.646  0.2601 -0.8034  0.7044
 2449TIP3    H228763   0.007   6.083  12.741  0.3996  0.8199 -0.0207
 2450TIP3   OH228764   2.682   5.489  12.988 -0.0403  0.3010  0.0921
 2450TIP3    H128765   2.629   5.411  12.977 -1.4594  1.4620 -1.8991
 2450TIP3    H228766   2.644   5.533  13.064 -1.7282  0.9001 -1.0463
 2451TIP3   OH228767   4.795   4.352  13.088  0.3551  0.3348  0.1422
 2451TIP3    H128768   4.861   4.340  13.156  0.8480  0.7242 -0.2674
 2451TIP3    H228769   4.748   4.431  13.115  0.7501  0.6630 -0.1338
 2452TIP3   OH228770   6.334   2.231  15.567  0.0468  0.4180  0.2338
 2452TIP3    H128771   6.262   2.292  15.584 -0.0759  0.2241  0.4099
 2452TIP3    H228772   6.379   2.268  15.491  0.7479  1.4317  1.1066
 2453TIP3   OH228773   2.162   5.503   2.867  0.0944 -0.3453  0.2774
 2453TIP3    H128774   2.082   5.553   2.850  0.7042  0.6005  0.1099
 2453TIP3    H228775   2.135   5.433   2.926 -0.7844  0.1705  0.4989
 2454TIP3   OH228776   2.770   1.901  11.912 -0.0800 -0.0006  0.6348
 2454TIP3    H128777   2.679   1.926  11.926 -0.5592 -1.0964 -0.3081
 2454TIP3    H228778   2.820   1.953  11.975 -1.2747  1.1700  0.6496
 2455TIP3   OH228779   0.896   5.931  14.758  0.0803 -0.0920 -0.1516
 2455TIP3    H128780   0.939   5.970  14.834  0.1212 -1.8202  0.7657
 2455TIP3    H228781   0.962   5.875  14.720 -0.1965  0.1598 -1.0169
 2456TIP3   OH228782   4.548   1.071  11.183  0.1816 -0.4306  0.4239
 2456TIP3    H128783   4.471   1.117  11.150  0.2564 -0.2222  0.5376
 2456TIP3    H228784   4.533   0.979  11.160 -0.1440 -0.4033  0.5293
 2457TIP3   OH228785   0.055   4.924   3.397 -0.5282  0.1188 -0.5946
 2457TIP3    H128786   0.121   4.863   3.364  0.1542  0.1574  0.6566
 2457TIP3    H228787  -0.023   4.869   3.411 -0.2615 -0.2413 -0.5200
 2458TIP3   OH228788   1.303   2.628   2.820 -0.6628 -0.2342  0.7489
 2458TIP3    H128789   1.256   2.642   2.902 -0.7345  2.0823  0.3873
 2458TIP3    H228790   1.257   2.683   2.756 -0.6242 -1.9873 -0.8792
 2459TIP3   OH228791   2.504   4.410  11.018  0.0928 -0.2196  0.2055
 2459TIP3    H128792   2.429   4.424  11.077 -0.2500  2.2081 -0.6727
 2459TIP3    H228793   2.541   4.498  11.006  1.8302 -1.0675 -1.0232
 2460TIP3   OH228794   3.683   4.996   2.387 -0.0261  0.1976  0.1017
 2460TIP3    H128795   3.650   4.907   2.386  0.7712 -0.1024 -0.4441
 2460TIP3    H228796   3.715   5.009   2.477 -1.0949  0.3086  0.4789
 2461TIP3   OH228797   2.231   2.872   2.566  0.1080 -0.0676  0.5173
 2461TIP3    H128798   2.223   2.840   2.476 -0.0083  0.1824  0.4379
 2461TIP3    H228799   2.311   2.924   2.567 -0.1920  0.4016  0.4139
 2462TIP3   OH228800   6.181   6.569   4.156  0.0434 -0.2281 -0.5031
 2462TIP3    H128801   6.252   6.603   4.101  0.5898 -0.8833 -0.2107
 2462TIP3    H228802   6.199   6.476   4.165 -0.8609 -0.4070 -0.4192
 2463TIP3   OH228803   4.088   0.149  13.554 -0.2341 -0.0757  0.1717
 2463TIP3    H128804   4.144   0.074  13.575 -1.0249 -0.0661  2.6145
 2463TIP3    H228805   4.005   0.110  13.527  0.1193 -0.0711 -0.9545
 2464TIP3   OH228806   3.925   6.204  14.322 -0.5073 -0.1218 -0.0822
 2464TIP3    H128807   3.932   6.287  14.369 -0.1269  0.1990 -0.6817
 2464TIP3    H228808   4.008   6.197  14.274 -0.4308 -0.9763  0.1688
 2465TIP3   OH228809   0.805   5.637   3.917  0.2383  0.6484 -0.1966
 2465TIP3    H128810   0.839   5.653   3.829 -0.4497 -0.3250 -0.6620
 2465TIP3    H228811   0.735   5.702   3.927  0.7170  1.1604 -0.1206
 2466TIP3   OH228812   4.018   5.798  11.747 -0.7528  0.3324 -0.1619
 2466TIP3    H128813   3.973   5.882  11.737 -0.2537  0.4370 -1.8105
 2466TIP3    H228814   3.982   5.743  11.678 -2.8452 -1.7153  2.3019
 2467TIP3   OH228815   5.064   6.730   5.693  0.1368  0.5938  0.1012
 2467TIP3    H128816   5.063   6.742   5.788 -1.7506 -0.1059  0.2148
 2467TIP3    H228817   4.982   6.685   5.674  1.5350 -1.4527 -1.5915
 2468TIP3   OH228818   4.741   4.945  16.227  0.6352 -0.1256 -0.0404
 2468TIP3    H128819   4.719   4.951  16.134 -1.2773 -1.4792  0.2601
 2468TIP3    H228820   4.671   4.994  16.272  2.1166  1.4438  0.6818
 2469TIP3   OH228821   4.041   4.080   2.140  0.0563 -0.2290  0.1654
 2469TIP3    H128822   3.965   4.137   2.127  0.1622 -0.6592 -2.9109
 2469TIP3    H228823   4.116   4.134   2.115  0.2941 -1.1859 -1.2833
 2470TIP3   OH228824   4.239   1.321   1.629  0.1631 -0.5733  0.1770
 2470TIP3    H128825   4.223   1.358   1.716  0.7630 -0.7996  0.3886
 2470TIP3    H228826   4.297   1.385   1.586 -0.4066 -0.2931 -0.1862
 2471TIP3   OH228827   0.625   2.991  11.303  0.2533  0.4926 -0.0188
 2471TIP3    H128828   0.657   2.959  11.219 -0.8957 -0.7731 -0.0142
 2471TIP3    H228829   0.602   3.082  11.287 -2.3593 -0.3728 -1.8502
 2472TIP3   OH228830   4.326   4.895   5.025  0.0473 -0.0672 -0.2331
 2472TIP3    H128831   4.285   4.829   4.969  1.8602 -0.6055 -1.0112
 2472TIP3    H228832   4.321   4.976   4.975 -3.3254  0.7998  1.2507
 2473TIP3   OH228833   4.183   0.256   1.355 -0.0532 -0.5160  0.2995
 2473TIP3    H128834   4.274   0.275   1.380 -0.7109  1.2228  1.6247
 2473TIP3    H228835   4.163   0.174   1.399  0.3111  0.0592  1.5941
 2474TIP3   OH228836   0.207   1.654   2.307  0.3970  0.5782  0.1550
 2474TIP3    H128837   0.162   1.683   2.228 -0.1466 -0.2121  0.1629
 2474TIP3    H228838   0.225   1.734   2.356  0.4906  1.0491 -0.6386
 2475TIP3   OH228839   5.876   1.747   0.971 -0.5288 -0.5139  0.6602
 2475TIP3    H128840   5.957   1.714   1.008 -1.2957 -0.0220  2.9553
 2475TIP3    H228841   5.812   1.738   1.042 -2.1481  0.3687 -0.6182
 2476TIP3   OH228842   1.934   2.775  12.784  0.2245 -0.3486 -0.6333
 2476TIP3    H128843   1.942   2.771  12.689  0.1966 -1.6121 -0.5992
 2476TIP3    H228844   2.023   2.789  12.816  0.2162  0.2085 -0.8404
 2477TIP3   OH228845   2.273   4.230   5.472 -0.0240  0.8733  0.1497
 2477TIP3    H128846   2.332   4.272   5.409 -0.3326  0.8595 -0.1482
 2477TIP3    H228847   2.207   4.187   5.418 -0.4913  1.1571  0.4996
 2478TIP3   OH228848   5.273   5.273   5.823 -0.8461  0.2020 -0.2466
 2478TIP3    H128849   5.327   5.260   5.746  0.2979  0.7847  0.4278
 2478TIP3    H228850   5.193   5.225   5.805  0.5670 -2.2122 -0.5561
 2479TIP3   OH228851   3.375   1.897   3.962  0.4512  0.6361  0.0508
 2479TIP3    H128852   3.307   1.832   3.980  0.3408 -0.2205 -2.8618
 2479TIP3    H228853   3.328   1.980   3.958 -0.2976  0.1871 -0.9549
 2480TIP3   OH228854   2.089   4.897  13.023  0.5243  0.3597 -0.1244
 2480TIP3    H128855   2.124   4.956  12.956  3.1908 -1.0257 -0.0558
 2480TIP3    H228856   2.122   4.811  12.998 -2.3595 -1.0176  0.3795
 2481TIP3   OH228857   6.074   2.656   1.325 -0.1994 -0.6343  0.1387
 2481TIP3    H128858   6.013   2.663   1.398  0.6511 -0.3203  0.8376
 2481TIP3    H228859   6.074   2.743   1.284  1.2365 -0.0130  1.3600
 2482TIP3   OH228860   5.881   0.750   3.198 -0.0656  0.1697  0.1720
 2482TIP3    H128861   5.849   0.677   3.145 -0.7135 -0.9404  2.0166
 2482TIP3    H228862   5.868   0.827   3.142 -0.7660 -0.9231 -1.2438
 2483TIP3   OH228863   3.403   0.573  12.977 -0.5357  0.3965  0.3889
 2483TIP3    H128864   3.353   0.643  12.935 -1.1757 -1.2696 -1.7846
 2483TIP3    H228865   3.479   0.617  13.015 -1.9917  2.5402  0.9829
 2484TIP3   OH228866   6.482   5.777   2.476  0.4969 -0.1197 -0.1165
 2484TIP3    H128867   6.522   5.804   2.559 -0.8058  1.4266  0.0507
 2484TIP3    H228868   6.453   5.858   2.436 -1.6882 -1.0886 -0.6287
 2485TIP3   OH228869   0.568   2.339  14.824  0.3194  0.1514  0.3622
 2485TIP3    H128870   0.632   2.330  14.753 -0.1497  0.6721 -0.1309
 2485TIP3    H228871   0.614   2.304  14.901  1.0901  0.2391 -0.0394
 2486TIP3   OH228872   2.517   6.073  13.821 -0.2483 -0.7233 -0.4754
 2486TIP3    H128873   2.538   6.147  13.764 -1.8509  0.6067  0.5472
 2486TIP3    H228874   2.477   6.008  13.762  1.2384 -0.8461 -1.3964
 2487TIP3   OH228875   1.591   6.018   1.138 -0.7483  0.3378 -0.2339
 2487TIP3    H128876   1.501   5.987   1.145 -0.9324  0.7370 -0.7461
 2487TIP3    H228877   1.601   6.042   1.046 -0.3591  1.0369 -0.0160
 2488TIP3   OH228878   4.656   0.059  11.843  0.8525  0.3077  0.0488
 2488TIP3    H128879   4.659   0.021  11.931 -1.1257 -0.4441 -0.1634
 2488TIP3    H228880   4.731   0.020  11.798  0.0861 -1.7793  0.4734
 2489TIP3   OH228881   1.926   3.715   4.377 -0.4803 -0.1081  0.0913
 2489TIP3    H128882   1.861   3.645   4.382  0.0393 -0.7466 -1.3030
 2489TIP3    H228883   1.881   3.786   4.331 -0.6173 -0.0346  0.3423
 2490TIP3   OH228884   5.985   4.181   2.324 -0.4706  0.0515 -0.0659
 2490TIP3    H128885   5.961   4.108   2.266 -0.0798 -0.5100  0.4723
 2490TIP3    H228886   5.975   4.146   2.412  1.6471 -0.0010  0.1920
 2491TIP3   OH228887   4.796   2.902   0.232  0.2468 -0.6086 -0.4083
 2491TIP3    H128888   4.712   2.868   0.200 -0.6481  0.4121  0.7418
 2491TIP3    H228889   4.772   2.963   0.302  1.9241  0.2866 -0.5653
 2492TIP3   OH228890   1.495   2.678  12.177  0.5731 -0.4847 -0.4285
 2492TIP3    H128891   1.512   2.707  12.267 -1.4637  2.1376 -0.7532
 2492TIP3    H228892   1.576   2.696  12.130  0.7235  0.9393  0.3074
 2493TIP3   OH228893   0.373   1.432  16.778  0.1152  0.3109 -0.7980
 2493TIP3    H128894   0.306   1.374  16.815  1.0329 -0.2551  0.0237
 2493TIP3    H228895   0.430   1.375  16.727  0.6112  0.6001 -0.5758
 2494TIP3   OH228896   1.602   4.048   1.753  0.1450  0.5486  0.2110
 2494TIP3    H128897   1.508   4.052   1.735  0.6534  0.3449 -3.2899
 2494TIP3    H228898   1.619   3.956   1.774 -0.1697  0.0074 -1.6827
 2495TIP3   OH228899   3.890   0.666  11.783  0.5996  0.1339  0.9483
 2495TIP3    H128900   3.853   0.577  11.784  0.3665  0.1974  3.0744
 2495TIP3    H228901   3.969   0.658  11.730 -0.3990 -0.9038 -0.4599
 2496TIP3   OH228902   0.542   1.713   3.805  0.3274 -0.4988  0.6325
 2496TIP3    H128903   0.575   1.799   3.833 -0.3473 -0.3582  1.0345
 2496TIP3    H228904   0.619   1.665   3.777  0.5198  0.9371 -1.5692
 2497TIP3   OH228905   5.415   6.615  17.037  0.3583 -0.0231 -0.5641
 2497TIP3    H128906   5.367   6.693  17.014 -1.2298  0.2455  2.9489
 2497TIP3    H228907   5.506   6.644  17.043  0.3588  0.5934 -2.7933
 2498TIP3   OH228908   6.783   0.558  15.982  0.4091 -0.0636  0.4205
 2498TIP3    H128909   6.691   0.565  16.007  0.4612  0.7700  0.4160
 2498TIP3    H228910   6.789   0.606  15.899  0.4705 -1.8090 -0.6314
 2499TIP3   OH228911   3.932   1.888   2.877  0.7331  0.0614 -0.9405
 2499TIP3    H128912   4.024   1.906   2.860  0.6779 -0.2053 -1.5459
 2499TIP3    H228913   3.931   1.802   2.919  0.7449  0.0033 -1.0615
 2500TIP3   OH228914   6.542   5.077   5.616  0.1627  0.1300  0.3609
 2500TIP3    H128915   6.517   5.129   5.692  1.5544  1.5168 -0.0815
 2500TIP3    H228916   6.475   5.096   5.550  1.4810  2.7364 -0.3613
 2501TIP3   OH228917   0.284   2.712   0.372  0.2694 -0.0429  0.0078
 2501TIP3    H128918   0.273   2.657   0.294 -2.1432  0.7330 -0.2689
 2501TIP3    H228919   0.197   2.746   0.390  1.2203  1.6754  1.6875
 2502TIP3   OH228920   5.982   2.203  16.081 -0.2284  0.0742 -0.3031
 2502TIP3    H128921   6.028   2.278  16.044 -0.3111  0.6260  0.6585
 2502TIP3    H228922   5.954   2.233  16.168 -0.7819 -0.8732 -0.1375
 2503TIP3   OH228923   4.445   1.304   4.244  0.1180 -0.0142 -0.0951
 2503TIP3    H128924   4.458   1.354   4.325 -0.6032 -0.5413  0.3611
 2503TIP3    H228925   4.431   1.371   4.177  0.0117  0.4148  0.3480
 2504TIP3   OH228926   3.199   1.204   5.844  0.1771  0.0471 -1.2136
 2504TIP3    H128927   3.281   1.162   5.817  0.7798  2.4380 -3.5471
 2504TIP3    H228928   3.203   1.206   5.939  1.8266 -1.7303 -1.1722
 2505TIP3   OH228929   6.041   0.044   2.308  0.3320  0.6002 -0.1247
 2505TIP3    H128930   6.031   0.056   2.213  0.5992  2.1425  0.0264
 2505TIP3    H228931   6.110  -0.022   2.316 -0.4795 -0.3985 -0.9991
 2506TIP3   OH228932   4.365   5.915  14.798 -0.0535 -0.0585  0.4225
 2506TIP3    H128933   4.421   5.918  14.720 -0.4924  0.4829  0.1209
 2506TIP3    H228934   4.352   5.822  14.814 -0.1877 -0.1776 -0.3269
 2507TIP3   OH228935   3.695   6.790  12.117  0.0386 -0.4130  0.6496
 2507TIP3    H128936   3.635   6.772  12.045 -0.0928 -2.3112  1.2001
 2507TIP3    H228937   3.725   6.704  12.146  2.1433  0.4352  1.1430
 2508TIP3   OH228938   0.343   4.463   4.246 -0.5015 -0.1467  0.2542
 2508TIP3    H128939   0.322   4.504   4.162  0.6017 -0.9258 -0.4386
 2508TIP3    H228940   0.306   4.375   4.239  1.5805 -1.0497 -0.4269
 2509TIP3   OH228941   2.810   3.513  14.244  0.0698 -1.0601 -0.4871
 2509TIP3    H128942   2.741   3.475  14.190 -0.3231 -0.8240 -0.1635
 2509TIP3    H228943   2.882   3.450  14.240 -0.6607 -1.9616  0.2498
 2510TIP3   OH228944   1.840   3.509  11.735  0.3487  0.0630  0.3145
 2510TIP3    H128945   1.864   3.571  11.666 -0.1008  0.0765  0.1618
 2510TIP3    H228946   1.916   3.505  11.792  1.5313 -1.4710 -1.2622
 2511TIP3   OH228947   0.382   1.887  16.363  0.5214 -0.1052  0.5696
 2511TIP3    H128948   0.370   1.895  16.268 -1.2724  1.9489  0.8757
 2511TIP3    H228949   0.331   1.810  16.388  1.2688 -0.8513 -0.1354
 2512TIP3   OH228950   3.969   4.733   2.319  0.0499  0.1365 -0.1124
 2512TIP3    H128951   3.941   4.794   2.387  0.8738  0.2477  0.1411
 2512TIP3    H228952   4.023   4.786   2.260 -1.1844  0.1895 -1.2310
 2513TIP3   OH228953   5.835   0.894   2.179 -0.1351 -0.5008 -0.2252
 2513TIP3    H128954   5.862   0.985   2.175 -0.8000 -0.2716  0.3244
 2513TIP3    H228955   5.917   0.844   2.175  0.4589  0.1760  2.2003
 2514TIP3   OH228956   1.207   5.440   5.189  0.5455 -0.4086  0.0838
 2514TIP3    H128957   1.136   5.488   5.232 -0.4075  0.5711 -2.4088
 2514TIP3    H228958   1.192   5.349   5.214 -0.5978 -0.0184  0.9293
 2515TIP3   OH228959   0.205   4.097   5.671 -0.0039 -1.0175  0.5342
 2515TIP3    H128960   0.193   4.170   5.611 -1.3962  0.5445  2.5617
 2515TIP3    H228961   0.167   4.022   5.625 -1.1403  0.1394 -0.4975
 2516TIP3   OH228962   0.370   1.995  13.888 -0.3006 -0.2868 -0.1887
 2516TIP3    H128963   0.279   1.983  13.917  0.0953 -0.0549  1.2171
 2516TIP3    H228964   0.400   1.906  13.869 -0.6809 -0.4114 -0.2323
 2517TIP3   OH228965   5.594   3.499  16.231 -0.1625 -0.2320 -0.5403
 2517TIP3    H128966   5.687   3.512  16.249 -0.0698 -0.5783 -0.7689
 2517TIP3    H228967   5.591   3.465  16.141 -0.5483  0.4080 -0.7787
 2518TIP3   OH228968   3.757   4.331  15.380  0.1106 -0.1410 -0.6342
 2518TIP3    H128969   3.738   4.416  15.340  0.5601  0.5408  0.5472
 2518TIP3    H228970   3.776   4.351  15.472  1.7032 -1.3344 -0.6514
 2519TIP3   OH228971   4.131   4.291   1.775 -0.2429  0.4188 -0.1290
 2519TIP3    H128972   4.067   4.360   1.754 -0.7438 -0.4399 -1.5673
 2519TIP3    H228973   4.117   4.273   1.868 -1.3290  1.0256 -0.1523
 2520TIP3   OH228974   0.315   0.121  11.129 -0.2600  0.7124 -0.2706
 2520TIP3    H128975   0.408   0.102  11.135 -0.6979 -1.6179  0.1235
 2520TIP3    H228976   0.272   0.041  11.158 -2.4053  1.5104 -1.0308
 2521TIP3   OH228977   3.964   4.334  14.286  0.1444  0.4860  0.2734
 2521TIP3    H128978   3.924   4.340  14.373 -0.4830  0.1472  0.0158
 2521TIP3    H228979   3.908   4.273  14.238 -0.8173  2.2999 -1.0767
 2522TIP3   OH228980   6.254   2.058  13.288 -0.0793  0.0179  0.0181
 2522TIP3    H128981   6.336   2.046  13.240  0.1804  0.9276  0.2009
 2522TIP3    H228982   6.185   2.043  13.224  0.1947 -1.6098  0.0634
 2523TIP3   OH228983   0.205   0.641  14.589 -0.3385 -0.1141  0.3021
 2523TIP3    H128984   0.144   0.705  14.554 -0.7259 -0.4561  0.3433
 2523TIP3    H228985   0.219   0.668  14.680 -0.1852  0.1463  0.1993
 2524TIP3   OH228986   3.817   0.790  12.143 -0.3552  0.4834 -0.6075
 2524TIP3    H128987   3.770   0.781  12.060 -0.4652  1.0562 -0.6130
 2524TIP3    H228988   3.843   0.882  12.145  1.4548  0.0075 -0.9657
 2525TIP3   OH228989   4.916   1.172  11.999 -0.0920  0.1429 -0.1744
 2525TIP3    H128990   4.949   1.145  12.084  0.1429 -0.2022 -0.3736
 2525TIP3    H228991   4.884   1.261  12.013 -1.4594 -0.4495  0.6362
 2526TIP3   OH228992   3.644   1.323  16.908  0.0694 -0.3518 -0.7900
 2526TIP3    H128993   3.667   1.245  16.858 -0.7724 -0.4123 -1.0842
 2526TIP3    H228994   3.716   1.385  16.890 -0.3307 -0.2880 -2.2620
 2527TIP3   OH228995   4.040   5.298   2.424 -0.0170  0.2070 -0.3250
 2527TIP3    H128996   4.033   5.263   2.513 -1.9652 -1.1388 -0.9541
 2527TIP3    H228997   3.951   5.323   2.401  0.3868  0.1569 -2.0583
 2528TIP3   OH228998   1.755   4.094  13.396  0.1397 -0.1100 -0.1746
 2528TIP3    H128999   1.693   4.117  13.327  0.7218  0.0869 -0.6395
 2528TIP3    H229000   1.727   4.007  13.425 -0.4997  0.0816 -0.2043
 2529TIP3   OH229001   0.373   0.775   6.053 -0.2232  0.0769  0.0958
 2529TIP3    H129002   0.420   0.852   6.086  0.5181 -0.8571  1.3451
 2529TIP3    H229003   0.325   0.806   5.977  0.7396  1.5766  0.0657
 2530TIP3   OH229004   1.780   0.155   1.190 -0.3308 -0.2764  0.0768
 2530TIP3    H129005   1.778   0.060   1.179 -1.1548 -0.2783  0.2419
 2530TIP3    H229006   1.874   0.177   1.188 -0.1539 -1.0320 -0.4167
 2531TIP3   OH229007   4.976   4.669  12.338  0.1980 -0.1551  0.8123
 2531TIP3    H129008   4.970   4.580  12.303 -1.4620  0.6047 -1.0144
 2531TIP3    H229009   4.891   4.685  12.377  0.0588  1.0107  0.0839
 2532TIP3   OH229010   6.763   5.508  14.131 -0.6532 -0.4687 -0.3524
 2532TIP3    H129011   6.678   5.470  14.155 -0.7090 -0.1121  0.0321
 2532TIP3    H229012   6.757   5.522  14.037 -1.8253  1.4884 -0.0420
 2533TIP3   OH229013   2.791   0.278   1.676 -0.0458  0.3914  0.7760
 2533TIP3    H129014   2.735   0.339   1.724  0.8512  2.3680 -0.5727
 2533TIP3    H229015   2.877   0.319   1.676  0.4706 -0.6184 -0.5996
 2534TIP3   OH229016   1.438   4.588  11.322  0.8161 -0.4015  0.1395
 2534TIP3    H129017   1.357   4.619  11.282  1.9899  1.2539 -1.1208
 2534TIP3    H229018   1.481   4.537  11.254  0.4228 -2.1185  1.1299
 2535TIP3   OH229019   3.029   6.448  12.885 -0.6959 -0.0445  0.0080
 2535TIP3    H129020   3.037   6.533  12.929  0.4119 -0.4487  0.6236
 2535TIP3    H229021   3.111   6.403  12.906 -0.9740 -0.9911 -0.9047
 2536TIP3   OH229022   6.701   2.713  13.204 -0.8956  0.0372 -0.1997
 2536TIP3    H129023   6.666   2.771  13.272  0.0972  1.8503 -1.1893
 2536TIP3    H229024   6.777   2.672  13.245 -1.2843 -0.1921  0.3192
 2537TIP3   OH229025   5.876   2.876   4.835  0.4159  0.4449  0.6649
 2537TIP3    H129026   5.831   2.954   4.804 -2.6388 -0.9973  1.0763
 2537TIP3    H229027   5.887   2.822   4.756 -1.8959 -0.6452  0.9731
 2538TIP3   OH229028   3.324   0.635   1.512 -0.4102  0.6365 -0.0225
 2538TIP3    H129029   3.252   0.680   1.466  0.9462  2.0209 -0.8894
 2538TIP3    H229030   3.351   0.566   1.452 -0.1853  0.9420 -0.2777
 2539TIP3   OH229031   4.097   1.528  15.060  0.0621 -0.6461 -0.0471
 2539TIP3    H129032   4.094   1.432  15.060 -2.4890 -0.6468 -0.6698
 2539TIP3    H229033   4.049   1.553  15.139 -0.1338  0.1035 -0.3973
 2540TIP3   OH229034   4.710   2.622   5.198 -0.2015  0.0978 -0.5813
 2540TIP3    H129035   4.715   2.717   5.208 -1.9963  0.2217 -0.4272
 2540TIP3    H229036   4.697   2.590   5.287  3.5216 -0.6499 -0.1589
 2541TIP3   OH229037   5.268   4.598   1.076 -1.0139  0.1929 -0.7303
 2541TIP3    H129038   5.257   4.562   1.164 -1.2553 -0.8599 -1.1754
 2541TIP3    H229039   5.319   4.532   1.029 -1.7510  0.2646 -1.6661
 2542TIP3   OH229040   0.871   2.434   1.985 -0.9862  0.1997 -0.3076
 2542TIP3    H129041   0.931   2.487   2.038 -1.4763  1.6822 -1.1608
 2542TIP3    H229042   0.896   2.344   2.004  4.2866  0.5220 -3.4997
 2543TIP3   OH229043   1.299   5.099  11.251  0.2008 -0.5362  0.3445
 2543TIP3    H129044   1.381   5.137  11.281  0.4805 -0.8856  0.0269
 2543TIP3    H229045   1.279   5.030  11.314 -0.2535  0.0510  0.8616
 2544TIP3   OH229046   2.697   0.465   4.805  0.1292 -0.1827 -0.1747
 2544TIP3    H129047   2.692   0.506   4.891  0.4403 -0.7594  0.1246
 2544TIP3    H229048   2.691   0.371   4.822  0.4129 -0.3157 -0.7567
 2545TIP3   OH229049   5.674   6.602  12.585 -0.6734 -0.2434 -0.2271
 2545TIP3    H129050   5.666   6.671  12.651 -0.8375 -0.1140 -0.3841
 2545TIP3    H229051   5.607   6.623  12.520  0.0899  0.1464 -0.9066
 2546TIP3   OH229052   6.321   1.171   4.158 -0.0005  0.0019  0.4570
 2546TIP3    H129053   6.392   1.160   4.221  0.4195 -0.7848 -0.1497
 2546TIP3    H229054   6.358   1.143   4.075 -0.8149  0.2411  0.0073
 2547TIP3   OH229055   3.991   1.595  14.812  0.1952  0.5714  0.0445
 2547TIP3    H129056   4.040   1.580  14.893  0.2523 -4.3169 -0.5894
 2547TIP3    H229057   4.056   1.631  14.751  1.3859 -0.1097  0.8740
 2548TIP3   OH229058   2.936   6.583  11.264  0.4704  0.0355 -0.2537
 2548TIP3    H129059   2.891   6.576  11.180 -0.8069  1.0516  0.3159
 2548TIP3    H229060   2.959   6.492  11.287 -0.6245 -0.4254 -0.9246
 2549TIP3   OH229061   4.072   3.031  16.615  0.5814 -0.2264  0.0229
 2549TIP3    H129062   4.151   3.085  16.609  1.4859 -1.6387 -1.7914
 2549TIP3    H229063   4.058   3.000  16.526 -1.1369 -1.2642  0.6178
 2550TIP3   OH229064   6.595   5.781  14.127 -0.1686  0.2506  0.1754
 2550TIP3    H129065   6.602   5.863  14.175 -1.5486  0.9528 -0.7750
 2550TIP3    H229066   6.651   5.794  14.050  0.1107  0.0533  0.3432
 2551TIP3   OH229067   0.660   1.772  13.361  0.2994 -0.0007  0.2952
 2551TIP3    H129068   0.573   1.777  13.321  1.1522  2.9263 -1.4890
 2551TIP3    H229069   0.716   1.736  13.292  0.9175  0.2527  0.6615
 2552TIP3   OH229070   5.803   3.684   1.109 -0.5415  0.7143  1.0462
 2552TIP3    H129071   5.776   3.630   1.184  2.7368 -0.1136  1.7919
 2552TIP3    H229072   5.897   3.697   1.122  0.2366  0.4041 -3.0105
 2553TIP3   OH229073   2.553   1.344  14.955  0.1056  0.2936  0.7027
 2553TIP3    H129074   2.552   1.267  14.897 -1.9424  1.7684 -1.4210
 2553TIP3    H229075   2.534   1.309  15.042 -0.9907 -1.6065 -0.2267
 2554TIP3   OH229076   2.964   4.566  13.365 -0.7234 -0.1069  0.1429
 2554TIP3    H129077   2.871   4.549  13.347 -0.8592  1.7561 -1.2379
 2554TIP3    H229078   2.975   4.545  13.458 -2.4585 -0.6191  0.2657
 2555TIP3   OH229079   3.049   2.910  14.189  0.1732  0.5022  0.3565
 2555TIP3    H129080   3.105   2.962  14.247  3.4860 -2.3271  0.0396
 2555TIP3    H229081   3.048   2.959  14.107  1.3266  1.1709  0.7109
 2556TIP3   OH229082   1.862   5.612  13.143  0.2787  0.4140 -0.2897
 2556TIP3    H129083   1.844   5.519  13.154 -0.2206  0.5191 -0.1620
 2556TIP3    H229084   1.911   5.637  13.221  0.7552  0.1781 -0.5088
 2557TIP3   OH229085   0.582   2.119  13.495  0.1531  0.3355  0.5115
 2557TIP3    H129086   0.659   2.157  13.453  0.0749 -1.2480 -1.1754
 2557TIP3    H229087   0.528   2.089  13.422 -1.0342 -0.5509  1.7189
 2558TIP3   OH229088   5.103   2.360   1.993 -0.1213  0.1123  0.5134
 2558TIP3    H129089   5.106   2.454   2.013 -1.2337 -0.0297  1.4420
 2558TIP3    H229090   5.036   2.325   2.051  0.6373 -1.3643  0.5563
 2559TIP3   OH229091   4.758   5.205  15.441 -0.2336 -0.0809 -0.6745
 2559TIP3    H129092   4.761   5.127  15.496 -0.8350 -0.5048 -1.2239
 2559TIP3    H229093   4.846   5.213  15.406  0.2606  0.4223  0.6505
 2560TIP3   OH229094   4.318   1.357   2.129 -0.2822  0.5659 -0.4709
 2560TIP3    H129095   4.264   1.279   2.129 -0.0950  0.2653  3.1375
 2560TIP3    H229096   4.402   1.329   2.165  0.0327  2.2413  0.2276
 2561TIP3   OH229097   0.894   0.737   2.723 -0.2050 -0.6626  0.0626
 2561TIP3    H129098   0.832   0.674   2.686  0.2172 -0.2991 -1.2929
 2561TIP3    H229099   0.976   0.719   2.678 -0.5125  2.0595 -1.7761
 2562TIP3   OH229100   2.273   2.206   4.469 -0.7281 -0.0861  0.3576
 2562TIP3    H129101   2.197   2.167   4.512  0.9144 -2.0996  1.6364
 2562TIP3    H229102   2.291   2.147   4.396  0.7260 -0.7651  1.2308
 2563TIP3   OH229103   1.450   5.447  16.912 -0.1436 -0.0376 -0.3175
 2563TIP3    H129104   1.439   5.501  16.990  0.6966  0.2486 -0.3901
 2563TIP3    H229105   1.493   5.504  16.848  0.4603 -0.6867 -0.5069
 2564TIP3   OH229106   6.443   5.841  12.062 -0.1160 -0.2348 -0.0669
 2564TIP3    H129107   6.452   5.830  11.967  0.0165  0.3694 -0.1334
 2564TIP3    H229108   6.484   5.763  12.099 -0.3994 -0.5969 -0.5132
 2565TIP3   OH229109   5.032   5.901   4.779  0.1246 -0.5212 -0.0907
 2565TIP3    H129110   4.957   5.944   4.818  0.7031  2.3527 -1.8495
 2565TIP3    H229111   5.088   5.876   4.853 -2.0736 -1.9817  1.1841
 2566TIP3   OH229112   0.018   5.863  16.879  0.2516 -0.0551 -0.5284
 2566TIP3    H129113   0.094   5.860  16.937  0.0857 -1.4859 -0.3333
 2566TIP3    H229114  -0.013   5.772  16.877 -0.8434  0.3214 -1.4075
 2567TIP3   OH229115   2.556   4.050   4.603 -0.0733 -0.4747 -0.1421
 2567TIP3    H129116   2.616   4.060   4.529  1.0527 -0.5520  0.7307
 2567TIP3    H229117   2.557   3.956   4.623 -1.6395 -0.7109 -1.0289
 2568TIP3   OH229118   4.263   3.163  11.697 -0.2058  0.4911  0.3150
 2568TIP3    H129119   4.259   3.104  11.772  0.0674  0.9121  0.6724
 2568TIP3    H229120   4.355   3.160  11.669 -0.0840  1.0947  0.6304
 2569TIP3   OH229121   2.682   3.790  10.740 -0.1532 -0.3581 -0.2778
 2569TIP3    H129122   2.611   3.732  10.765 -1.6118  0.7451 -1.6232
 2569TIP3    H229123   2.658   3.875  10.777  0.7013 -0.0472 -0.4001
 2570TIP3   OH229124   3.411   4.477   1.260 -0.0735 -0.0137 -1.0154
 2570TIP3    H129125   3.441   4.445   1.175  0.7499 -1.3405 -0.2380
 2570TIP3    H229126   3.487   4.469   1.318 -0.5889  0.9834 -0.1641
 2571TIP3   OH229127   1.373   4.613  11.963  0.0216  0.1727 -0.2258
 2571TIP3    H129128   1.294   4.630  11.911 -0.5589  1.2426  0.9282
 2571TIP3    H229129   1.375   4.519  11.975 -0.0758 -0.0606 -1.7576
 2572TIP3   OH229130   5.288   5.591   3.865  0.3628  0.6024  0.8207
 2572TIP3    H129131   5.254   5.584   3.955 -0.7878 -0.9283  0.3191
 2572TIP3    H229132   5.356   5.524   3.861  0.0011  0.2548  0.3989
 2573TIP3   OH229133   4.712   2.403  12.850  0.3312  0.3320  0.5473
 2573TIP3    H129134   4.694   2.310  12.865  1.4615 -0.3446 -1.8138
 2573TIP3    H229135   4.789   2.421  12.905  1.3285 -0.7030 -0.4485
 2574TIP3   OH229136   1.034   2.393  12.809 -0.0579 -0.0836  0.5801
 2574TIP3    H129137   1.117   2.428  12.780 -0.3998  0.2281 -0.0344
 2574TIP3    H229138   0.977   2.470  12.818 -1.0311 -0.4899 -1.4864
 2575TIP3   OH229139   0.274   2.156   0.219 -0.6205  0.0144  0.7806
 2575TIP3    H129140   0.292   2.224   0.154 -0.2772  0.0710  0.9312
 2575TIP3    H229141   0.180   2.142   0.214 -0.4124 -1.0834 -0.8189
 2576TIP3   OH229142   0.420   4.677  16.320  0.3568  0.3373  0.6705
 2576TIP3    H129143   0.448   4.625  16.395 -0.6840  0.9540  1.5178
 2576TIP3    H229144   0.466   4.760  16.329 -0.7529  0.8912  1.3696
 2577TIP3   OH229145   4.008   5.095  12.370  0.5370  0.4850 -0.0543
 2577TIP3    H129146   3.948   5.022  12.384 -0.1390  0.8628 -0.8813
 2577TIP3    H229147   4.094   5.061  12.392  0.8230 -1.7069 -3.7723
 2578TIP3   OH229148   2.060   2.652   4.590  0.4268 -0.3084  0.0866
 2578TIP3    H129149   1.983   2.616   4.634  0.1287 -0.2509 -0.3842
 2578TIP3    H229150   2.089   2.581   4.532  0.1113  0.0398 -0.5033
 2579TIP3   OH229151   5.599   2.911   5.103 -0.3987 -0.0484  0.2979
 2579TIP3    H129152   5.537   2.984   5.100  1.5849  1.7010 -1.4365
 2579TIP3    H229153   5.673   2.940   5.049  1.0744 -2.8278  0.6404
 2580TIP3   OH229154   5.675   3.967  11.726  0.4947 -0.2869 -0.1541
 2580TIP3    H129155   5.658   4.055  11.760 -0.0478 -0.7914  0.9269
 2580TIP3    H229156   5.691   3.914  11.804  0.3041 -1.2615 -0.7627
 2581TIP3   OH229157   0.465   1.635   3.267 -0.5186  0.3288 -0.4126
 2581TIP3    H129158   0.557   1.634   3.242 -0.8210 -0.7823 -1.6159
 2581TIP3    H229159   0.464   1.604   3.357  0.3804  1.6221  0.0586
 2582TIP3   OH229160   5.417   5.663  10.402  0.5735 -0.2782  0.1602
 2582TIP3    H129161   5.347   5.602  10.426 -0.3684 -0.0407 -1.7793
 2582TIP3    H229162   5.492   5.607  10.383 -0.1890 -0.8595 -1.3026
 2583TIP3   OH229163   1.493   3.544  12.064  0.9907 -0.1507  0.3328
 2583TIP3    H129164   1.489   3.616  12.001  0.7110  0.9488  1.5614
 2583TIP3    H229165   1.551   3.479  12.023  0.7332  0.4742 -1.0832
 2584TIP3   OH229166   6.063   4.661   6.538 -0.0620  1.1637 -0.0823
 2584TIP3    H129167   6.103   4.578   6.562  0.7931  1.1074 -1.5524
 2584TIP3    H229168   5.996   4.677   6.605 -0.9403 -1.1892 -0.3018
 2585TIP3   OH229169   2.051   6.302   6.116  0.3895 -0.2203 -0.7204
 2585TIP3    H129170   1.971   6.346   6.087  0.5917  1.1991  0.7240
 2585TIP3    H229171   2.040   6.211   6.088 -1.7043 -0.0459 -0.6264
 2586TIP3   OH229172   0.297   3.422  13.147 -0.2791  0.2668 -0.7954
 2586TIP3    H129173   0.297   3.489  13.078 -0.2392  1.1549  0.0497
 2586TIP3    H229174   0.304   3.471  13.229  0.9903 -0.8366 -0.2042
 2587TIP3   OH229175   5.158   6.525  11.081  0.6975  0.0714 -0.0720
 2587TIP3    H129176   5.142   6.617  11.100 -0.6987  0.0554 -1.0270
 2587TIP3    H229177   5.226   6.499  11.144  0.6354  1.5614  0.6569
 2588TIP3   OH229178   0.122   5.388   5.013  0.4988  0.4078 -0.2693
 2588TIP3    H129179   0.177   5.440   4.954 -0.5355  0.9367 -0.8096
 2588TIP3    H229180   0.183   5.332   5.060  1.3206 -0.6787 -2.4721
 2589TIP3   OH229181   4.880   0.480   6.102 -0.0688  0.5334  0.0693
 2589TIP3    H129182   4.819   0.536   6.054  0.6171  2.0792  0.9428
 2589TIP3    H229183   4.825   0.409   6.136 -0.9847  0.7256 -0.9447
 2590TIP3   OH229184   3.634   0.558   4.894  0.2536 -0.4249 -0.2701
 2590TIP3    H129185   3.613   0.590   4.982 -1.7974  1.4974 -1.3632
 2590TIP3    H229186   3.716   0.602   4.872  0.2111 -0.0580  0.2820
 2591TIP3   OH229187   4.471   6.619  15.015 -0.3954 -0.0679  0.0217
 2591TIP3    H129188   4.452   6.593  14.925 -0.5937  1.1648 -0.3130
 2591TIP3    H229189   4.479   6.536  15.063  1.2232 -0.8097 -1.4129
 2592TIP3   OH229190   6.478   3.184   2.146  0.2074 -0.3977 -0.0308
 2592TIP3    H129191   6.507   3.184   2.237 -1.9171 -0.4878  0.6810
 2592TIP3    H229192   6.559   3.197   2.096  1.4639 -0.6598  1.8253
 2593TIP3   OH229193   4.240   0.277   0.351 -0.1440 -0.3817 -0.3220
 2593TIP3    H129194   4.186   0.200   0.335  1.7290 -2.0751  0.9198
 2593TIP3    H229195   4.181   0.352   0.341 -2.4976 -2.0650  0.3078
 2594TIP3   OH229196   5.196   6.279   4.962 -0.3607 -0.1942 -0.8888
 2594TIP3    H129197   5.268   6.325   5.006 -0.3487 -1.2303  0.2206
 2594TIP3    H229198   5.229   6.264   4.873 -0.7634  2.8010 -1.6645
 2595TIP3   OH229199   6.702   4.445  10.260  0.0351 -0.3823  0.2610
 2595TIP3    H129200   6.614   4.483  10.258  0.1316 -0.0418  1.7972
 2595TIP3    H229201   6.734   4.462  10.348  0.9302 -2.1219  0.3216
 2596TIP3   OH229202   4.000   0.202  14.495 -0.0445 -0.0436 -0.2092
 2596TIP3    H129203   3.933   0.239  14.438  0.5245 -1.1949 -1.6947
 2596TIP3    H229204   4.055   0.150  14.437 -0.4872 -2.7721  1.6519
 2597TIP3   OH229205   2.876   0.505   1.895  0.2568 -0.3220  1.0050
 2597TIP3    H129206   2.818   0.580   1.906  0.6354 -0.2398  2.8838
 2597TIP3    H229207   2.895   0.477   1.985  0.3565 -2.4872  0.3579
 2598TIP3   OH229208   2.426   6.180   2.701 -0.0100  0.5251  0.0421
 2598TIP3    H129209   2.442   6.273   2.719 -0.1688  0.2297  1.9081
 2598TIP3    H229210   2.334   6.176   2.676  0.1544  0.9345 -0.6567
 2599TIP3   OH229211   3.803   5.392   2.338  0.2802 -0.4575  0.5623
 2599TIP3    H129212   3.766   5.327   2.278  0.4466  0.1008 -0.1567
 2599TIP3    H229213   3.802   5.474   2.288  1.8231 -0.2832  0.7847
 2600TIP3   OH229214   2.569   1.581  15.436 -0.0771  0.4607  0.3266
 2600TIP3    H129215   2.661   1.574  15.411 -0.4686 -0.2369 -0.9839
 2600TIP3    H229216   2.571   1.613  15.526  1.4744 -0.8428  0.7909
 2601TIP3   OH229217   1.933   2.477  13.493  0.1541  0.0796 -0.4747
 2601TIP3    H129218   1.947   2.555  13.547  2.0010  0.5457 -1.5413
 2601TIP3    H229219   2.004   2.418  13.517  0.3594 -0.1536 -1.5965
 2602TIP3   OH229220   3.042   3.993   5.262 -0.7023 -0.0644 -0.4112
 2602TIP3    H129221   3.027   3.909   5.218  0.6944  0.1473 -1.3601
 2602TIP3    H229222   3.094   3.971   5.340 -2.3356 -0.3241  0.6442
 2603TIP3   OH229223   3.854   0.037   0.946 -0.7640  0.3426  0.0090
 2603TIP3    H129224   3.945   0.028   0.972 -0.4692 -1.6928 -1.4599
 2603TIP3    H229225   3.838   0.131   0.946  0.3330  0.6566  3.3361
 2604TIP3   OH229226   2.688   5.170   3.438  0.3288  0.0820  0.0880
 2604TIP3    H129227   2.731   5.206   3.360  1.9293 -0.6257  0.5902
 2604TIP3    H229228   2.655   5.246   3.486 -1.5030  0.4861 -1.6863
 2605TIP3   OH229229   3.545   2.650   4.460 -0.2532 -0.0541  0.2285
 2605TIP3    H129230   3.535   2.685   4.371 -0.0278  1.5005  0.7819
 2605TIP3    H229231   3.456   2.644   4.494 -0.2522  0.6955  0.3772
 2606TIP3   OH229232   3.487   1.022  13.736 -0.4677 -0.7225 -0.1909
 2606TIP3    H129233   3.464   0.994  13.647 -0.9986 -0.7454 -0.0454
 2606TIP3    H229234   3.579   0.997  13.745 -0.3142 -0.4332 -0.8501
 2607TIP3   OH229235   0.626   0.003   3.340  0.3962 -0.1899 -0.1951
 2607TIP3    H129236   0.704   0.053   3.318  2.2132 -2.4379  0.8020
 2607TIP3    H229237   0.601  -0.040   3.257  0.3941  0.2922 -0.4464
 2608TIP3   OH229238   1.233   0.557  10.688  0.1549 -0.8591 -0.4620
 2608TIP3    H129239   1.156   0.521  10.733  0.5504 -0.2974  0.7006
 2608TIP3    H229240   1.235   0.649  10.714  0.1589 -0.3980 -1.9921
 2609TIP3   OH229241   4.049   6.166   1.090  0.0144  0.1223  0.2932
 2609TIP3    H129242   4.035   6.173   0.996  0.5408 -0.9194  0.1258
 2609TIP3    H229243   4.015   6.080   1.114 -0.4605  0.5193  1.1376
 2610TIP3   OH229244   5.382   5.708   2.842  0.0185 -0.7896  0.3284
 2610TIP3    H129245   5.445   5.756   2.896  0.6327  0.0132 -1.0574
 2610TIP3    H229246   5.435   5.669   2.772 -0.9623 -0.4348 -0.6361
 2611TIP3   OH229247   3.193   5.395  12.184 -0.1751 -0.0213  0.1611
 2611TIP3    H129248   3.157   5.354  12.105 -0.0723 -1.4687  0.8295
 2611TIP3    H229249   3.116   5.421  12.234 -0.2938 -1.3123  0.6801
 2612TIP3   OH229250   2.809   1.467  14.817 -0.1591 -0.0682 -0.0464
 2612TIP3    H129251   2.814   1.528  14.890 -0.4475  0.3038 -0.3368
 2612TIP3    H229252   2.720   1.433  14.819  0.3285 -1.3852  0.8335
 2613TIP3   OH229253   6.336   2.128  13.608 -0.1261 -0.5459  0.1257
 2613TIP3    H129254   6.400   2.189  13.571 -2.1360  1.4872 -0.1685
 2613TIP3    H229255   6.358   2.126  13.701  0.4308  0.0571  0.0206
 2614TIP3   OH229256   6.655   6.002   4.463 -0.0679  0.0439  0.1794
 2614TIP3    H129257   6.580   5.961   4.506 -1.5551  2.4694  0.0903
 2614TIP3    H229258   6.725   5.997   4.528  0.1700 -3.3037 -0.1606
 2615TIP3   OH229259   3.536   6.200  16.392 -0.2405  0.6948 -0.3357
 2615TIP3    H129260   3.522   6.142  16.468  3.6407 -1.4753 -1.0217
 2615TIP3    H229261   3.456   6.190  16.341 -0.9218 -1.9064  1.0058
 2616TIP3   OH229262   5.952   4.464   3.032  0.5122  0.5242 -0.0665
 2616TIP3    H129263   5.949   4.559   3.041  1.3319  0.5935 -0.4662
 2616TIP3    H229264   5.869   4.442   2.990 -0.4346  0.8642  1.5378
 2617TIP3   OH229265   6.780   1.678  14.961  0.4751  0.1719  0.5249
 2617TIP3    H129266   6.756   1.586  14.970  0.0491  0.3596  1.3783
 2617TIP3    H229267   6.799   1.688  14.868 -1.4642 -0.3014  0.0259
 2618TIP3   OH229268   3.947   3.768  13.050 -0.1178  0.5125 -0.2199
 2618TIP3    H129269   3.879   3.758  12.984  0.9264  1.0740 -1.4292
 2618TIP3    H229270   4.020   3.715  13.017 -0.3351 -1.0433  1.6412
 2619TIP3   OH229271   0.378   0.139   0.010 -0.0589  0.0848 -0.0836
 2619TIP3    H129272   0.312   0.131   0.079 -2.4531  2.3804 -1.9039
 2619TIP3    H229273   0.386   0.233  -0.006  4.1726 -0.0022  0.3657
 2620TIP3   OH229274   3.412   3.277  16.505 -0.2470 -0.5971 -0.0868
 2620TIP3    H129275   3.465   3.241  16.576 -0.0163  0.2260  0.1800
 2620TIP3    H229276   3.337   3.317  16.549 -0.0458  0.0135 -0.2813
 2621TIP3   OH229277   6.763   4.282   3.549  0.0674 -0.6733  0.1619
 2621TIP3    H129278   6.802   4.248   3.468 -0.5221 -1.7199  0.2923
 2621TIP3    H229279   6.675   4.310   3.522 -0.4152 -1.7435  0.5742
 2622TIP3   OH229280   4.959   2.638  12.596  0.9499 -0.2128  0.0956
 2622TIP3    H129281   4.987   2.555  12.633  1.6177  0.7390  1.8689
 2622TIP3    H229282   5.023   2.702  12.631  0.9835  0.9221 -1.8869
 2623TIP3   OH229283   6.696   0.646  14.043  0.0803 -0.0166 -0.0985
 2623TIP3    H129284   6.696   0.600  14.127  1.8781 -0.1783 -0.1519
 2623TIP3    H229285   6.672   0.579  13.979 -0.8268 -0.0023  0.2094
 2624TIP3   OH229286   2.556   5.926   1.582 -0.6442  0.2132 -0.1621
 2624TIP3    H129287   2.464   5.899   1.588 -0.4182 -1.1552 -2.0303
 2624TIP3    H229288   2.560   5.978   1.502 -0.0233  1.4382  0.6366
 2625TIP3   OH229289   2.339   4.503   2.190 -0.0216  0.5001 -0.6118
 2625TIP3    H129290   2.410   4.470   2.245 -0.2644 -1.3092 -1.2988
 2625TIP3    H229291   2.259   4.479   2.238 -0.2017  0.6983 -0.8094
 2626TIP3   OH229292   6.656   0.137   5.456  1.0096 -0.1620  0.6755
 2626TIP3    H129293   6.601   0.062   5.479  0.9471 -0.0187  1.0009
 2626TIP3    H229294   6.623   0.166   5.371  0.7110 -0.1968  0.7793
 2627TIP3   OH229295   1.036   1.127   0.014 -0.2228  0.0162 -0.3920
 2627TIP3    H129296   1.048   1.207  -0.037 -1.0654 -0.8495 -2.0348
 2627TIP3    H229297   0.963   1.147   0.073 -0.2086  0.5509 -0.5501
 2628TIP3   OH229298   5.120   3.209   4.562  0.3884 -0.0757  0.7749
 2628TIP3    H129299   5.104   3.141   4.497  0.2441  0.6801  0.0068
 2628TIP3    H229300   5.033   3.243   4.583  0.6731  2.6122 -1.8594
 2629TIP3   OH229301   1.969   3.278  15.114  0.2581  0.0138 -0.1055
 2629TIP3    H129302   1.891   3.315  15.072  1.0801  0.6678 -1.0999
 2629TIP3    H229303   1.983   3.194  15.070  0.3754  0.1055 -0.2435
 2630TIP3   OH229304   1.829   0.795   5.220 -0.2250  0.6336  0.2329
 2630TIP3    H129305   1.834   0.700   5.210 -0.5270  0.6552 -0.1596
 2630TIP3    H229306   1.757   0.809   5.280  0.2007  0.5939  0.7623
 2631TIP3   OH229307   3.885   1.783  14.133 -0.4234 -0.8394  0.2944
 2631TIP3    H129308   3.900   1.782  14.228 -1.8027  0.0399  0.5558
 2631TIP3    H229309   3.856   1.694  14.113  0.4640 -1.2047  0.5783
 2632TIP3   OH229310   0.573   1.747   1.361  0.2713 -0.1614 -0.1954
 2632TIP3    H129311   0.596   1.671   1.414  1.0053 -0.1170 -0.4361
 2632TIP3    H229312   0.654   1.768   1.314  0.0303  0.6676 -0.2483
 2633TIP3   OH229313   6.368   3.491   1.014  0.0879 -0.1762 -0.0306
 2633TIP3    H129314   6.405   3.505   1.101  1.2627 -2.4395 -0.0836
 2633TIP3    H229315   6.396   3.567   0.963 -0.1458  0.9068  1.3781
 2634TIP3   OH229316   1.307   5.187   1.627 -0.0930  0.3780  0.4821
 2634TIP3    H129317   1.272   5.105   1.661  0.3826 -0.4446 -0.9485
 2634TIP3    H229318   1.339   5.233   1.705 -2.2355  0.1719  1.5798
 2635TIP3   OH229319   4.547   3.046  14.753 -0.2179 -0.5221  0.1353
 2635TIP3    H129320   4.595   2.967  14.779 -0.0517  0.1644  2.1270
 2635TIP3    H229321   4.583   3.070  14.668 -1.0258 -3.1570 -1.0372
 2636TIP3   OH229322   6.654   1.154  13.236  0.2539 -0.2958 -0.8346
 2636TIP3    H129323   6.688   1.196  13.157 -0.8016  0.0640 -1.1199
 2636TIP3    H229324   6.678   1.062  13.226  0.0569 -0.2683 -1.6213
 2637TIP3   OH229325   6.085   3.220  15.700 -0.0495  0.3657 -0.2307
 2637TIP3    H129326   6.010   3.277  15.717  0.6339  1.8237 -1.8514
 2637TIP3    H229327   6.125   3.206  15.786 -0.3584  2.2062  0.2454
 2638TIP3   OH229328   3.820   4.263   4.175 -0.1829 -0.1297 -0.7187
 2638TIP3    H129329   3.765   4.340   4.188  1.0147  0.6767 -0.3676
 2638TIP3    H229330   3.834   4.228   4.263  1.0414  0.5100 -0.6417
 2639TIP3   OH229331   5.166   0.354   2.803  0.0326  0.4536  0.3192
 2639TIP3    H129332   5.115   0.405   2.865  1.0664 -0.6582  2.1728
 2639TIP3    H229333   5.179   0.412   2.728 -2.6974  1.2486  0.3733
 2640TIP3   OH229334   5.425   3.473  16.457  0.1815  0.4363  0.2930
 2640TIP3    H129335   5.482   3.446  16.385 -0.9846 -0.5592 -0.2899
 2640TIP3    H229336   5.480   3.467  16.535  0.7112 -1.1575 -0.1567
 2641TIP3   OH229337   6.731   4.491  11.799  0.1048 -0.9204 -0.2776
 2641TIP3    H129338   6.681   4.501  11.879  2.1797 -1.2464  1.1290
 2641TIP3    H229339   6.767   4.403  11.803  1.8280 -0.2711 -0.5730
 2642TIP3   OH229340   4.869   0.802   4.123  0.0883  0.9234  0.1183
 2642TIP3    H129341   4.820   0.853   4.058  0.8933  0.2146 -1.0916
 2642TIP3    H229342   4.840   0.837   4.208 -1.3359  1.5734 -0.5895
 2643TIP3   OH229343   1.325   0.603   3.657 -0.2523 -0.3579  0.7109
 2643TIP3    H129344   1.278   0.524   3.684 -0.9079 -0.1351  0.2586
 2643TIP3    H229345   1.287   0.625   3.572  0.9274 -0.3721  0.1678
 2644TIP3   OH229346   3.433   2.301  13.142  0.2231  0.4124 -0.1463
 2644TIP3    H129347   3.344   2.328  13.164  0.1991 -0.3826  0.8417
 2644TIP3    H229348   3.483   2.317  13.222  0.1792 -2.4606  0.5771
 2645TIP3   OH229349   2.869   5.172  13.657  0.6893 -0.3037  0.3785
 2645TIP3    H129350   2.950   5.196  13.613 -0.3064  0.5582 -1.0741
 2645TIP3    H229351   2.834   5.099  13.606  0.4806 -0.6070  0.9373
 2646TIP3   OH229352   2.129   4.557   5.823  0.3055 -0.0529 -0.4948
 2646TIP3    H129353   2.107   4.650   5.817 -0.4280 -0.2180 -0.4441
 2646TIP3    H229354   2.108   4.522   5.736  0.2726 -0.2393 -0.4111
 2647TIP3   OH229355   4.755   1.503   1.003 -0.0862  0.0228  0.3793
 2647TIP3    H129356   4.737   1.473   0.914  1.2259 -1.3782  0.5546
 2647TIP3    H229357   4.675   1.485   1.051 -0.5120  0.0195 -0.3143
 2648TIP3   OH229358   5.247   0.117   0.911  0.1289  0.1030 -0.3487
 2648TIP3    H129359   5.232   0.196   0.964  1.3574  1.3303 -1.7253
 2648TIP3    H229360   5.321   0.140   0.855  0.9204 -2.2895 -0.3718
 2649TIP3   OH229361   5.076   3.277   2.858 -0.0872  0.1840  0.1496
 2649TIP3    H129362   5.096   3.233   2.941  0.0683  0.1173  0.0775
 2649TIP3    H229363   4.983   3.262   2.845  0.0881 -0.6623 -0.1832
 2650TIP3   OH229364   2.713   1.014   0.446 -0.2049 -0.4012 -0.5575
 2650TIP3    H129365   2.713   0.975   0.358 -0.0134  0.0614 -0.7673
 2650TIP3    H229366   2.710   1.108   0.430  2.4362 -0.1794 -0.1190
 2651TIP3   OH229367   5.139   5.053  15.443  0.6684  0.8866  0.5541
 2651TIP3    H129368   5.110   5.143  15.461  0.2275  0.6035  1.3081
 2651TIP3    H229369   5.234   5.056  15.454  0.5574  1.0482  1.5675
 2652TIP3   OH229370   1.450   1.035   3.651  0.4583  0.1587 -0.0988
 2652TIP3    H129371   1.397   1.114   3.641 -0.4935 -0.6092 -1.4509
 2652TIP3    H229372   1.407   0.986   3.721 -0.0031  0.0225 -0.4747
 2653TIP3   OH229373   3.691   2.708   0.980  0.3793 -0.1055  0.2781
 2653TIP3    H129374   3.631   2.770   1.020  1.8794  1.0094  0.9011
 2653TIP3    H229375   3.652   2.622   0.997 -2.1394  0.6334 -1.2612
 2654TIP3   OH229376   2.836   0.249   2.259 -0.3083 -0.2739 -0.0219
 2654TIP3    H129377   2.840   0.170   2.312  1.0056 -0.6804 -0.7059
 2654TIP3    H229378   2.766   0.301   2.299 -1.2083 -1.7691  0.4247
 2655TIP3   OH229379   2.940   4.739  16.141  0.5263 -0.6057 -0.2020
 2655TIP3    H129380   2.975   4.826  16.162 -1.5918 -0.0098  1.1580
 2655TIP3    H229381   2.994   4.679  16.191  0.6356  0.1483  0.6206
 2656TIP3   OH229382   0.872   1.269  13.526 -0.2611 -0.2043 -0.2165
 2656TIP3    H129383   0.806   1.337  13.515  0.6813  0.5973 -1.2092
 2656TIP3    H229384   0.946   1.313  13.567  0.2937 -0.6570 -0.7022
 2657TIP3   OH229385   3.509   5.175   1.890 -0.0266  0.1132 -0.6790
 2657TIP3    H129386   3.567   5.172   1.814 -1.6751 -0.1952 -1.9791
 2657TIP3    H229387   3.512   5.266   1.919  1.1110  0.0948 -0.6984
 2658TIP3   OH229388   2.129   6.711   0.093  0.1221  0.0245  0.6814
 2658TIP3    H129389   2.089   6.788   0.051  2.4906  1.7439  1.3417
 2658TIP3    H229390   2.165   6.661   0.020  1.3413  1.2757  0.3714
 2659TIP3   OH229391   1.521   2.904  15.331  0.1021 -0.5040  0.0944
 2659TIP3    H129392   1.568   2.988  15.329  1.1690 -1.0564  0.8420
 2659TIP3    H229393   1.516   2.877  15.239  2.0837 -0.8418  0.0356
 2660TIP3   OH229394   0.307   5.670  10.546 -0.0943  0.0257  0.3640
 2660TIP3    H129395   0.312   5.586  10.501 -2.0127  1.0672 -2.0071
 2660TIP3    H229396   0.294   5.647  10.638  0.6326 -2.2265 -0.0386
 2661TIP3   OH229397   1.037   1.777   5.985  0.8055 -0.8087 -0.0995
 2661TIP3    H129398   0.997   1.858   6.018 -1.3047 -1.5072 -0.8248
 2661TIP3    H229399   1.131   1.790   6.001  0.7395  2.3532 -1.4067
 2662TIP3   OH229400   4.323   6.080  11.982 -0.1698 -0.2308 -0.0159
 2662TIP3    H129401   4.418   6.095  11.988  0.0886 -1.8353  0.2499
 2662TIP3    H229402   4.310   5.993  12.019 -1.6568 -0.3759 -0.8207
 2663TIP3   OH229403   3.760   0.174   5.397  0.0835  0.1353  0.2685
 2663TIP3    H129404   3.724   0.147   5.313 -1.9377 -1.4325  1.5372
 2663TIP3    H229405   3.853   0.156   5.390 -0.1735 -0.7568 -1.3383
 2664TIP3   OH229406   2.793   1.921  12.609  0.2081 -0.6189 -0.3729
 2664TIP3    H129407   2.765   1.978  12.680 -1.0138 -2.2875  0.5633
 2664TIP3    H229408   2.816   1.980  12.538 -0.4522  1.0265  0.7299
 2665TIP3   OH229409   5.981   1.139  15.119 -0.0071 -0.4417 -0.0725
 2665TIP3    H129410   5.889   1.137  15.145 -0.1005 -0.5085 -0.4027
 2665TIP3    H229411   5.981   1.181  15.033  0.1255 -1.5425 -0.6355
 2666TIP3   OH229412   6.591   1.014   4.815  0.3977 -0.6192 -0.0340
 2666TIP3    H129413   6.523   1.049   4.873  1.5899  1.6256  0.1572
 2666TIP3    H229414   6.545   0.988   4.736 -0.8271 -0.1826  0.5168
 2667TIP3   OH229415   1.485   3.997   4.615  0.0502 -0.3548 -0.1325
 2667TIP3    H129416   1.509   3.948   4.694 -1.1204  0.5936  0.8311
 2667TIP3    H229417   1.569   4.015   4.572  0.7005 -0.8204  0.9113
 2668TIP3   OH229418   4.890   6.384   1.041 -0.0009  0.4794 -0.0253
 2668TIP3    H129419   4.916   6.308   0.990  0.8117  2.6685 -3.1265
 2668TIP3    H229420   4.972   6.428   1.062 -0.5714  2.1254 -1.0744
 2669TIP3   OH229421   1.895   1.230  16.762 -0.7096  0.1983  0.2292
 2669TIP3    H129422   1.905   1.221  16.856  1.4521 -3.9390 -0.1621
 2669TIP3    H229423   1.810   1.189  16.743  0.0803 -1.5441  0.2452
 2670TIP3   OH229424   5.029   0.291   0.627  0.3965 -0.4410 -0.2292
 2670TIP3    H129425   5.022   0.298   0.722 -0.7365  0.4859 -0.3710
 2670TIP3    H229426   4.992   0.205   0.607  1.2053 -0.9047  0.2101
 2671TIP3   OH229427   3.454   2.953   2.313 -0.4019 -0.2585 -0.1205
 2671TIP3    H129428   3.360   2.965   2.302 -0.2399 -0.2463 -1.6976
 2671TIP3    H229429   3.472   2.982   2.402 -1.7802  0.4279 -0.0496
 2672TIP3   OH229430   5.213   6.786  15.932  0.3858  0.8190  0.2965
 2672TIP3    H129431   5.157   6.734  15.873  1.1993 -1.2290  1.2546
 2672TIP3    H229432   5.163   6.866  15.946 -1.1918  0.0968 -0.8091
 2673TIP3   OH229433   6.013   4.641  11.202 -0.4228 -0.2694  0.5575
 2673TIP3    H129434   5.976   4.606  11.121 -1.6358  0.0787  0.9334
 2673TIP3    H229435   5.976   4.585  11.271 -1.4490  0.9939  1.0670
 2674TIP3   OH229436   0.412   4.152   1.730 -0.1007 -0.3669 -0.1692
 2674TIP3    H129437   0.463   4.076   1.758  0.2214 -0.0393  0.1275
 2674TIP3    H229438   0.413   4.211   1.805 -0.6822 -0.2350 -0.2605
 2675TIP3   OH229439   5.507   1.684   2.265 -0.5859 -0.5152  0.1244
 2675TIP3    H129440   5.470   1.604   2.303 -1.4257 -2.0263 -3.4103
 2675TIP3    H229441   5.595   1.658   2.237 -0.2388  0.3228  0.4056
 2676TIP3   OH229442   6.389   4.631   0.458 -0.5735  0.3254  0.4425
 2676TIP3    H129443   6.342   4.611   0.377  0.9318  0.2981 -0.4716
 2676TIP3    H229444   6.470   4.672   0.429 -1.1079  2.7243  2.0567
 2677TIP3   OH229445   3.378   4.497   0.433 -0.4352  0.4785  1.2478
 2677TIP3    H129446   3.298   4.447   0.417 -0.0802  0.0714  0.6860
 2677TIP3    H229447   3.396   4.540   0.350  0.1648  0.2120  1.2318
 2678TIP3   OH229448   2.548   4.945   5.268  0.3958 -0.1228  0.2833
 2678TIP3    H129449   2.522   4.938   5.176 -0.1388  0.2173  0.4049
 2678TIP3    H229450   2.577   4.856   5.291 -0.3478 -0.4316  0.0476
 2679TIP3   OH229451   2.444   0.133  14.885 -0.5218 -0.1053  0.0884
 2679TIP3    H129452   2.358   0.159  14.850 -0.5968  0.8042  0.9034
 2679TIP3    H229453   2.423   0.079  14.961 -0.3584 -1.9551 -1.1357
 2680TIP3   OH229454   2.565   6.435  13.195  0.5248 -0.1265  0.0105
 2680TIP3    H129455   2.549   6.530  13.191  0.0279 -0.2433 -1.1440
 2680TIP3    H229456   2.541   6.411  13.284 -1.1646  0.5415 -0.2197
 2681TIP3   OH229457   4.849   3.957  15.711  0.4812  0.5901  0.0267
 2681TIP3    H129458   4.865   3.902  15.788 -0.4228  0.7348  0.3331
 2681TIP3    H229459   4.882   4.043  15.736  1.6994  0.2716 -0.3738
 2682TIP3   OH229460   3.235   5.494  13.765  0.1902  0.2948 -0.1173
 2682TIP3    H129461   3.175   5.429  13.804 -1.8901  1.0633 -1.8258
 2682TIP3    H229462   3.236   5.566  13.828 -0.4514  0.1296  0.0962
 2683TIP3   OH229463   0.261   0.795  15.086 -0.4429 -0.4083 -0.1359
 2683TIP3    H129464   0.270   0.890  15.085  0.7242 -0.5114 -0.3223
 2683TIP3    H229465   0.334   0.764  15.139  0.2673 -1.2916 -1.5557
 2684TIP3   OH229466   4.224   3.442  11.638 -0.6643  0.3274  0.1553
 2684TIP3    H129467   4.255   3.481  11.720 -1.9237  1.4987  0.1053
 2684TIP3    H229468   4.256   3.352  11.641  1.8821  1.1503  0.5443
 2685TIP3   OH229469   4.976   6.293  12.058 -0.1165  0.7284  0.4054
 2685TIP3    H129470   4.942   6.208  12.088 -1.2730  1.5423  1.5190
 2685TIP3    H229471   4.978   6.286  11.963 -2.1963  0.1343  0.3437
 2686TIP3   OH229472   0.509   0.058   2.904 -0.0408  0.0481  0.1037
 2686TIP3    H129473   0.516   0.146   2.942  0.2629 -0.5323  1.4715
 2686TIP3    H229474   0.552   0.065   2.819  0.8723  0.9939  0.6072
 2687TIP3   OH229475   2.653   2.672   5.885  0.2544  0.2661  0.0095
 2687TIP3    H129476   2.624   2.651   5.797  0.4175 -1.3887  0.3195
 2687TIP3    H229477   2.746   2.693   5.876  0.4535 -0.6332 -0.1265
 2688TIP3   OH229478   4.064   6.217   6.747  0.1656  0.5556  0.0984
 2688TIP3    H129479   3.984   6.195   6.699 -0.0041 -1.3664  1.1477
 2688TIP3    H229480   4.064   6.312   6.753 -1.6511  0.6273 -0.5927
 2689TIP3   OH229481   3.356   5.167   5.673 -0.8080  0.2593  0.1250
 2689TIP3    H129482   3.346   5.171   5.768 -0.3656 -0.2970  0.2078
 2689TIP3    H229483   3.448   5.144   5.660 -0.8216  0.5053 -0.4428
 2690TIP3   OH229484   2.124   3.549  12.064 -0.5126 -0.6119  0.2671
 2690TIP3    H129485   2.215   3.576  12.055 -0.6631  0.1429  0.9358
 2690TIP3    H229486   2.105   3.503  11.982  0.1832  0.0355 -0.2782
 2691TIP3   OH229487   0.904   3.301   1.036  0.4528 -0.1915 -0.0607
 2691TIP3    H129488   0.834   3.348   1.082 -0.4265 -1.3547 -0.1704
 2691TIP3    H229489   0.956   3.369   0.995 -0.1995  0.7375  0.6200
 2692TIP3   OH229490   0.036   0.497  12.518  0.4554 -0.5572  0.1474
 2692TIP3    H129491   0.059   0.533  12.432  0.8800 -0.3436  0.3463
 2692TIP3    H229492   0.091   0.419  12.527 -0.5789 -1.3798 -0.3496
 2693TIP3   OH229493   4.113   0.159   3.220 -0.2224 -0.5855  0.4590
 2693TIP3    H129494   4.141   0.132   3.307 -1.6302  0.1754  1.1951
 2693TIP3    H229495   4.140   0.088   3.162  1.9190 -0.5197  1.2749
 2694TIP3   OH229496   2.699   6.424   6.534  0.1046  0.3645  0.6522
 2694TIP3    H129497   2.747   6.346   6.562 -0.7380 -0.1380  0.7365
 2694TIP3    H229498   2.637   6.392   6.468 -1.5411  0.5845  1.9940
 2695TIP3   OH229499   0.904   0.937   2.451 -0.5720  0.1040  0.2147
 2695TIP3    H129500   0.947   0.977   2.526 -1.2690  1.2605  0.0074
 2695TIP3    H229501   0.936   0.846   2.452 -0.0809  0.2619  1.5214
 2696TIP3   OH229502   2.292   6.761  10.603 -0.1052 -0.1781  0.3942
 2696TIP3    H129503   2.213   6.756  10.657  0.0347 -0.5569  0.5698
 2696TIP3    H229504   2.313   6.854  10.599 -1.4271  0.1009 -0.9161
 2697TIP3   OH229505   6.364   5.519   2.170 -0.5080 -0.3124  0.0479
 2697TIP3    H129506   6.277   5.504   2.131 -0.0177  0.8423 -1.5982
 2697TIP3    H229507   6.415   5.557   2.099  1.0571  0.0100  1.3060
 2698TIP3   OH229508   6.650   6.027  11.536 -0.1928  0.6630 -0.2786
 2698TIP3    H129509   6.677   5.936  11.537 -0.3997  0.6043  0.5775
 2698TIP3    H229510   6.623   6.043  11.445 -0.2572 -0.1518 -0.4088
 2699TIP3   OH229511   3.892   4.358  16.105  0.3699 -0.2316 -0.3449
 2699TIP3    H129512   3.957   4.428  16.105 -1.1715  1.2529  0.4773
 2699TIP3    H229513   3.945   4.277  16.105  2.1806  0.8493 -2.5565
 2700TIP3   OH229514   1.219   6.058  12.081  0.2074 -0.5526 -0.0988
 2700TIP3    H129515   1.295   6.105  12.045 -1.8310  1.4182 -2.1488
 2700TIP3    H229516   1.221   6.077  12.175  1.0811  1.2873 -0.4487
 2701TIP3   OH229517   6.330   0.490  10.841 -0.3330  0.0379  0.1147
 2701TIP3    H129518   6.267   0.557  10.813 -1.7265 -1.2023  0.1277
 2701TIP3    H229519   6.366   0.455  10.759 -0.6765 -0.1591  0.0437
 2702TIP3   OH229520   6.745   4.700  10.994  0.0634 -0.3706  0.5888
 2702TIP3    H129521   6.825   4.650  10.978 -0.8437 -1.5891 -0.3415
 2702TIP3    H229522   6.720   4.733  10.908 -0.9355 -0.7945  0.7082
 2703TIP3   OH229523   1.227   0.236  16.868  0.3358 -0.2976 -1.3192
 2703TIP3    H129524   1.204   0.144  16.854  0.0601 -0.2955 -0.8785
 2703TIP3    H229525   1.282   0.236  16.946  0.9491 -0.1736 -1.7462
 2704TIP3   OH229526   4.361   0.363  15.948  0.6477 -0.0583  0.2586
 2704TIP3    H129527   4.374   0.269  15.950  0.3099 -0.0858  1.5342
 2704TIP3    H229528   4.266   0.375  15.956  0.6048  0.3852 -0.6687
 2705TIP3   OH229529   6.441   5.906  12.347 -0.4039 -0.2400  0.6053
 2705TIP3    H129530   6.393   5.894  12.265  0.0707 -2.5339  0.5749
 2705TIP3    H229531   6.466   5.998  12.348 -1.1217  0.0159 -1.4278
 2706TIP3   OH229532   5.064   2.967   4.433 -0.2456  0.2003  0.0500
 2706TIP3    H129533   5.094   2.959   4.342 -0.1719  1.3938 -0.0460
 2706TIP3    H229534   4.971   2.988   4.426 -0.2664  0.1800  0.2504
 2707TIP3   OH229535   6.375   6.344   5.046 -0.1075  0.2778  0.0172
 2707TIP3    H129536   6.405   6.271   4.992 -1.2941 -0.7481  0.6891
 2707TIP3    H229537   6.291   6.316   5.080 -2.0916  3.1363 -2.0326
 2708TIP3   OH229538   3.335   1.482  13.742  0.1114  0.3433 -0.2090
 2708TIP3    H129539   3.318   1.568  13.703 -0.5307  0.5763  0.5568
 2708TIP3    H229540   3.271   1.475  13.813  0.8046 -0.3613  0.3581
 2709TIP3   OH229541   5.158   2.403  14.669  0.2305  0.1642  0.5489
 2709TIP3    H129542   5.191   2.493  14.665 -1.7950  1.0017  1.2010
 2709TIP3    H229543   5.231   2.349  14.639  1.2859  2.0671 -0.5008
 2710TIP3   OH229544   5.532   1.618  15.223  0.8603 -0.4607 -0.0643
 2710TIP3    H129545   5.481   1.663  15.156  1.3764 -1.0914 -0.9010
 2710TIP3    H229546   5.472   1.551  15.257 -0.8103  2.3174  2.9694
 2711TIP3   OH229547   6.626   4.741   4.636 -0.2166  0.2583  0.5804
 2711TIP3    H129548   6.563   4.783   4.695  0.4653  1.5254  0.4261
 2711TIP3    H229549   6.708   4.788   4.649  0.1382  0.0976 -0.8594
 2712TIP3   OH229550   4.254   3.539   0.148 -0.4063  0.0703 -0.1543
 2712TIP3    H129551   4.340   3.498   0.153 -0.7044 -0.5694 -0.1359
 2712TIP3    H229552   4.199   3.487   0.207 -0.4219  1.4886  1.1590
 2713TIP3   OH229553   3.548   3.104  10.279  0.1952  0.4878  0.0023
 2713TIP3    H129554   3.507   3.028  10.238 -0.3666  0.4152  0.6996
 2713TIP3    H229555   3.479   3.145  10.331  0.6930  1.0441  0.2432
 2714TIP3   OH229556   5.765   0.737   0.401 -0.2514  0.2842 -0.1662
 2714TIP3    H129557   5.679   0.766   0.431  0.1872  0.3140  1.1289
 2714TIP3    H229558   5.798   0.810   0.350 -0.5533  0.7131  0.2415
 2715TIP3   OH229559   2.301   0.600   3.171 -0.4861 -0.4068 -0.5865
 2715TIP3    H129560   2.392   0.581   3.192 -0.6501 -0.7175 -0.1419
 2715TIP3    H229561   2.273   0.526   3.117 -0.7846 -0.8717  0.1797
 2716TIP3   OH229562   2.470   3.222  11.462 -0.1252 -0.0703  0.0125
 2716TIP3    H129563   2.429   3.309  11.464 -1.1088 -0.5284  0.2497
 2716TIP3    H229564   2.447   3.182  11.546  0.6158 -0.4318  0.0484
 2717TIP3   OH229565   0.371   4.817   2.208 -0.2433 -0.4426 -0.5795
 2717TIP3    H129566   0.394   4.781   2.294  0.3444  1.9999  0.3806
 2717TIP3    H229567   0.275   4.811   2.204 -0.2910 -0.4201  0.3334
 2718TIP3   OH229568   1.411   4.728  10.470 -0.0903  0.3528 -0.3350
 2718TIP3    H129569   1.383   4.810  10.511  0.3230  0.0766  0.5143
 2718TIP3    H229570   1.407   4.746  10.376 -0.5718  1.1562 -0.1702
 2719TIP3   OH229571   3.205   0.484  13.158 -0.4952  0.2173  0.0960
 2719TIP3    H129572   3.279   0.486  13.097 -1.0151 -1.0497 -0.5997
 2719TIP3    H229573   3.164   0.570  13.148 -0.3149  0.1920 -1.0416
 2720TIP3   OH229574   1.180   2.947  11.517 -0.3107  0.0371 -0.0201
 2720TIP3    H129575   1.101   3.001  11.516  0.1604  0.7460 -0.7664
 2720TIP3    H229576   1.150   2.861  11.548 -1.4607  0.1558 -0.7258
 2721TIP3   OH229577   5.417   1.003  15.675 -0.5706  0.1149  0.2076
 2721TIP3    H129578   5.374   1.077  15.719 -0.8239 -1.6707  3.2318
 2721TIP3    H229579   5.349   0.936  15.670 -0.5365  0.1743 -3.0889
 2722TIP3   OH229580   2.217   4.049  16.432  0.5811  0.4384 -0.2861
 2722TIP3    H129581   2.171   3.986  16.377  1.6566  0.1077 -0.8517
 2722TIP3    H229582   2.149   4.106  16.467 -0.3130 -0.4706 -0.5123
 2723TIP3   OH229583   0.986   0.770  16.607  0.0477  0.4084 -0.2052
 2723TIP3    H129584   0.986   0.845  16.667  1.6026 -0.7147  1.3020
 2723TIP3    H229585   0.898   0.733  16.614  0.0151  0.6689  0.9551
 2724TIP3   OH229586   5.026   6.274  15.566 -0.1667 -0.7847 -0.0181
 2724TIP3    H129587   5.067   6.330  15.500  1.3342 -0.7787  0.8767
 2724TIP3    H229588   5.064   6.302  15.649 -2.1390 -0.6764  0.9155
 2725TIP3   OH229589   2.080   6.187  14.125 -0.3322 -0.2078 -0.2001
 2725TIP3    H129590   1.999   6.146  14.156 -1.7450  0.2271 -2.9750
 2725TIP3    H229591   2.105   6.247  14.195 -2.6656 -0.0668  0.6030
 2726TIP3   OH229592   4.470   2.191  14.724 -0.0329 -0.0137  0.2339
 2726TIP3    H129593   4.469   2.285  14.707 -1.7223  0.0015  0.2827
 2726TIP3    H229594   4.447   2.151  14.640  0.2373 -0.3631  0.3242
 2727TIP3   OH229595   3.569   1.423   5.302 -0.4547 -0.3429 -0.2636
 2727TIP3    H129596   3.611   1.506   5.277  0.8150 -0.9223 -0.1287
 2727TIP3    H229597   3.526   1.442   5.386  0.7656 -0.0939  0.3264
 2728TIP3   OH229598   4.407   2.469  12.087  0.1501 -0.0625 -0.1622
 2728TIP3    H129599   4.438   2.389  12.130  1.5847  1.6252  2.1302
 2728TIP3    H229600   4.468   2.482  12.014  1.1526  0.0061  0.6754
 2729TIP3   OH229601   6.028   5.445   0.303  0.2591 -0.0377  0.0481
 2729TIP3    H129602   5.950   5.447   0.248 -0.6462 -0.4704  1.2514
 2729TIP3    H229603   6.101   5.444   0.242 -0.5918  2.2841 -1.1389
 2730TIP3   OH229604   4.931   3.338  12.215 -0.1129 -0.3434  0.3313
 2730TIP3    H129605   4.944   3.364  12.123  1.1997  0.2248  0.6588
 2730TIP3    H229606   4.988   3.262  12.227 -0.5818 -0.6636  0.5857
 2731TIP3   OH229607   1.178   4.173  16.636 -0.6007  0.2787 -0.1620
 2731TIP3    H129608   1.157   4.085  16.668 -1.3576 -0.0082 -1.3695
 2731TIP3    H229609   1.264   4.193  16.674 -1.5383  0.1044  2.2485
 2732TIP3   OH229610   6.039   0.149  16.802 -0.4942 -0.4116  0.2368
 2732TIP3    H129611   6.111   0.086  16.809  0.8849  1.2259  2.0884
 2732TIP3    H229612   5.991   0.122  16.724  2.3221 -1.4132 -1.3210
 2733TIP3   OH229613   3.838   5.162  15.452 -0.5404 -0.2570  0.5074
 2733TIP3    H129614   3.758   5.187  15.404 -1.3640  0.9772  2.4168
 2733TIP3    H229615   3.884   5.245  15.467  0.7677 -0.8705  0.0836
 2734TIP3   OH229616   3.788   4.350   2.595  0.3410 -0.1791 -0.2402
 2734TIP3    H129617   3.728   4.301   2.539  0.7752 -1.0118 -0.0087
 2734TIP3    H229618   3.827   4.416   2.538 -1.1305  0.6943 -0.2765
 2735TIP3   OH229619   0.230   5.568  14.133 -0.2018 -0.1411 -0.4635
 2735TIP3    H129620   0.244   5.655  14.170  0.1105 -0.9219  1.3568
 2735TIP3    H229621   0.139   5.546  14.155 -0.4371 -0.0897 -1.3487
 2736TIP3   OH229622   6.552   2.038   5.296  0.6444 -0.5907  0.2383
 2736TIP3    H129623   6.524   2.103   5.231 -2.7043  0.0564  2.0788
 2736TIP3    H229624   6.622   2.082   5.344 -1.4752  1.8590  1.3866
 2737TIP3   OH229625   4.891   4.470   4.145  0.4924 -0.7368 -0.0121
 2737TIP3    H129626   4.868   4.404   4.210  2.6687 -1.9462 -0.3847
 2737TIP3    H229627   4.883   4.424   4.061 -1.3250  0.5207 -0.5935
 2738TIP3   OH229628   3.542   0.944  12.631 -1.3087  0.4770  0.9998
 2738TIP3    H129629   3.480   0.870  12.634 -0.5109 -0.4188 -1.6039
 2738TIP3    H229630   3.533   0.978  12.542  0.2023  1.8842  1.3466
 2739TIP3   OH229631   5.909   3.130  13.919  0.1531 -0.3990  0.2813
 2739TIP3    H129632   5.937   3.058  13.862  0.8019  0.0035  0.0796
 2739TIP3    H229633   5.842   3.176  13.869  0.2655 -0.4257  0.1047
 2740TIP3   OH229634   5.761   3.077   0.652 -0.5420 -0.0833 -0.9700
 2740TIP3    H129635   5.774   3.156   0.705  1.3664 -1.4156  0.7041
 2740TIP3    H229636   5.679   3.040   0.685  0.2147 -0.4724  0.5705
 2741TIP3   OH229637   2.338   3.128   1.714  0.0975 -0.0967 -0.2280
 2741TIP3    H129638   2.295   3.096   1.793  0.1870  0.6883  0.1435
 2741TIP3    H229639   2.302   3.074   1.643  1.4737 -2.1899  0.5711
 2742TIP3   OH229640   2.007   4.374   0.368  0.0468 -0.1810  0.3183
 2742TIP3    H129641   2.043   4.286   0.373  2.3893  0.5960 -1.1117
 2742TIP3    H229642   2.083   4.430   0.353 -1.4459  2.0076  0.4575
 2743TIP3   OH229643   2.585   3.876  14.250 -0.0380 -0.1148 -0.0388
 2743TIP3    H129644   2.604   3.896  14.341  1.7651  0.1057 -0.4205
 2743TIP3    H229645   2.570   3.781  14.249 -0.7146 -0.0180  0.5732
 2744TIP3   OH229646   3.693   5.213  14.916  0.4256 -0.3217  0.1177
 2744TIP3    H129647   3.697   5.308  14.906  0.5769 -0.4692 -1.4662
 2744TIP3    H229648   3.785   5.186  14.919  0.4181 -0.5288 -0.9582
 2745TIP3   OH229649   4.104   4.991   3.674  0.0985 -0.6170 -0.4532
 2745TIP3    H129650   4.039   5.062   3.672 -1.4437 -1.9354 -3.3310
 2745TIP3    H229651   4.184   5.031   3.641  0.1350  0.4541  0.8269
 2746TIP3   OH229652   1.201   3.733   3.318  0.3426  0.3095  0.0749
 2746TIP3    H129653   1.146   3.730   3.239 -1.4152  0.0971  1.2560
 2746TIP3    H229654   1.156   3.794   3.376  1.9972  1.0084  0.6617
 2747TIP3   OH229655   4.842   0.571   3.394  0.1928  0.1922  0.3494
 2747TIP3    H129656   4.894   0.503   3.435  2.9993  0.9254 -1.7102
 2747TIP3    H229657   4.835   0.640   3.461  1.3715 -0.1917  0.8904
 2748TIP3   OH229658   4.745   4.705  12.489 -0.0520  0.4122 -0.0601
 2748TIP3    H129659   4.814   4.676  12.549  0.9967 -0.3780 -1.6034
 2748TIP3    H229660   4.685   4.630  12.484 -0.3704  0.6349  0.2879
 2749TIP3   OH229661   3.146   0.425  12.523  0.4404  0.4920 -0.2125
 2749TIP3    H129662   3.120   0.392  12.609  0.7152  0.8991  0.0301
 2749TIP3    H229663   3.108   0.512  12.518 -1.0728 -0.1791 -1.2324
 2750TIP3   OH229664   5.278   1.574  16.144  0.1441 -0.2648 -0.1590
 2750TIP3    H129665   5.292   1.661  16.106 -0.6817 -0.4967 -1.0350
 2750TIP3    H229666   5.349   1.564  16.207 -0.6148  1.6647  1.1151
 2751TIP3   OH229667   3.095   4.937   1.846 -0.7800 -0.8906 -0.2163
 2751TIP3    H129668   3.118   4.899   1.931 -0.1543 -1.5289 -0.6587
 2751TIP3    H229669   3.165   4.908   1.787  0.7536  2.3821 -0.2368
 2752TIP3   OH229670   6.529   2.901   4.269 -0.7294 -0.4497 -0.1095
 2752TIP3    H129671   6.538   2.892   4.174  0.7029  2.7512 -0.3752
 2752TIP3    H229672   6.616   2.883   4.303 -1.0321 -0.7120  0.5512
 2753TIP3   OH229673   4.321   0.206   1.949  0.4633  0.1233  0.2654
 2753TIP3    H129674   4.316   0.118   1.985 -0.0012  0.1030  0.1483
 2753TIP3    H229675   4.415   0.227   1.951  0.6229 -0.5364 -0.1018
 2754TIP3   OH229676   0.018   6.403   3.863  0.1841 -0.0004 -0.0199
 2754TIP3    H129677   0.103   6.373   3.895  0.3560 -0.1930 -0.6520
 2754TIP3    H229678   0.003   6.486   3.909  2.2029  1.7211 -2.2359
 2755TIP3   OH229679   3.750   2.080  13.381 -0.1510 -0.0449  0.1127
 2755TIP3    H129680   3.735   2.093  13.475  0.8052 -0.1673  0.2974
 2755TIP3    H229681   3.839   2.044  13.376  0.4675  1.5299 -0.9403
 2756TIP3   OH229682   0.672   6.640   4.444 -0.1662 -0.1344  0.3894
 2756TIP3    H129683   0.681   6.588   4.524 -1.2079  0.4252  0.8968
 2756TIP3    H229684   0.578   6.645   4.429 -0.0302  0.6632 -0.2705
 2757TIP3   OH229685   4.968   6.703   1.927 -0.2243  0.6654  0.2949
 2757TIP3    H129686   4.943   6.789   1.962 -1.0942  0.8794 -0.8053
 2757TIP3    H229687   5.053   6.684   1.968 -0.6145  1.4675  1.5203
 2758TIP3   OH229688   1.793   1.742  16.968 -0.1040 -0.2431 -0.4352
 2758TIP3    H129689   1.839   1.676  16.916 -0.2322 -1.6617  1.1875
 2758TIP3    H229690   1.846   1.753  17.046 -2.1267 -1.5008  1.2328
 2759TIP3   OH229691   6.301   2.824   2.294 -0.1753  0.6389 -0.4561
 2759TIP3    H129692   6.354   2.780   2.360 -0.6235  0.9333  0.1105
 2759TIP3    H229693   6.322   2.779   2.212 -0.7330 -0.7597  0.1249
 2760TIP3   OH229694   3.232   1.589  11.602 -0.7500 -0.1664  0.1916
 2760TIP3    H129695   3.315   1.557  11.568  0.8111  2.8475  0.8775
 2760TIP3    H229696   3.202   1.654  11.538 -0.6710  1.4098  1.6751
 2761TIP3   OH229697   5.747   2.701  14.931 -0.0028 -0.3788 -0.4268
 2761TIP3    H129698   5.810   2.717  15.001  1.1951 -0.4145 -1.4636
 2761TIP3    H229699   5.726   2.607  14.939  1.9442 -0.9661 -1.5140
 2762TIP3   OH229700   3.603   1.172   4.753  0.0548 -0.4837  0.4816
 2762TIP3    H129701   3.660   1.247   4.735 -0.1726 -0.6648 -1.1354
 2762TIP3    H229702   3.629   1.143   4.841  0.8217  0.8705  0.7336
 2763TIP3   OH229703   1.927   3.302  15.386  0.2968  0.2272 -0.5497
 2763TIP3    H129704   2.000   3.265  15.436  1.1943  0.7301 -1.4546
 2763TIP3    H229705   1.957   3.302  15.295 -0.5884  1.0308 -0.8673
 2764TIP3   OH229706   5.634   2.705   4.312 -0.4750  0.5765 -0.6376
 2764TIP3    H129707   5.698   2.768   4.344 -0.8317  1.1455 -1.0223
 2764TIP3    H229708   5.676   2.664   4.237 -0.0188 -0.0617 -0.0437
 2765TIP3   OH229709   3.114   0.095   5.156 -0.6504  0.5809 -0.2714
 2765TIP3    H129710   3.133   0.145   5.077 -0.1533  0.6872 -0.0848
 2765TIP3    H229711   3.038   0.042   5.133 -0.7186  0.8681 -0.7095
 2766TIP3   OH229712   0.819   1.946   2.646 -0.2394 -0.0696  0.9154
 2766TIP3    H129713   0.836   2.040   2.641 -0.7061 -0.0504 -0.8934
 2766TIP3    H229714   0.901   1.908   2.677  0.6757  0.7436 -0.4132
 2767TIP3   OH229715   3.982   2.780   3.481 -0.0475 -0.4038  0.1658
 2767TIP3    H129716   3.963   2.754   3.392 -2.2791 -2.3516  1.1157
 2767TIP3    H229717   3.935   2.863   3.493  1.9149  0.9635 -0.9767
 2768TIP3   OH229718   3.334   2.567  14.686 -0.3689  0.1087 -0.1135
 2768TIP3    H129719   3.369   2.655  14.669  1.4191 -0.4051  0.7026
 2768TIP3    H229720   3.296   2.573  14.773 -0.0626  0.0251  0.0267
 2769TIP3   OH229721   0.979   0.350  16.878 -0.3657  0.2177 -0.1641
 2769TIP3    H129722   0.952   0.373  16.967  0.8260 -0.2944  0.3628
 2769TIP3    H229723   1.070   0.322  16.888  0.2641  1.5446 -1.7773
 2770TIP3   OH229724   2.151   5.686   4.319  0.0555  0.1995  0.5168
 2770TIP3    H129725   2.111   5.769   4.296  0.2588  0.4038  0.8950
 2770TIP3    H229726   2.210   5.666   4.247  0.5819  0.7637  0.7821
 2771TIP3   OH229727   6.639   3.381   0.342  0.0086 -0.0097  0.3445
 2771TIP3    H129728   6.613   3.437   0.269 -2.3284  1.2707  2.0391
 2771TIP3    H229729   6.734   3.392   0.348 -0.1796  2.6787 -0.3309
 2772TIP3   OH229730   0.384   2.288   1.029  0.2685  0.1468  0.4083
 2772TIP3    H129731   0.353   2.321   1.113 -0.3030  0.2690  0.1526
 2772TIP3    H229732   0.413   2.366   0.981  0.2160  0.1238  0.3382
 2773TIP3   OH229733   6.157   6.473  15.852 -0.0821 -0.3342 -0.1306
 2773TIP3    H129734   6.064   6.494  15.847 -0.4152 -2.0315 -2.5761
 2773TIP3    H229735   6.164   6.413  15.926 -0.7696  0.3448  0.5037
 2774TIP3   OH229736   3.196   3.833  12.444  0.6551  0.4645  0.2311
 2774TIP3    H129737   3.284   3.846  12.479  0.4245  0.2966  0.8926
 2774TIP3    H229738   3.183   3.908  12.385  1.7628 -0.2631 -0.9896
 2775TIP3   OH229739   0.070   1.553   2.736  0.2003 -0.2699 -0.0711
 2775TIP3    H129740   0.088   1.562   2.830 -2.8659 -0.4877  0.6204
 2775TIP3    H229741   0.101   1.465   2.715  1.2777 -0.0830  0.5953
 2776TIP3   OH229742   2.936   4.561  12.122 -0.3134 -0.4239 -0.5734
 2776TIP3    H129743   2.919   4.497  12.190  2.6108 -1.5361 -0.7375
 2776TIP3    H229744   2.927   4.646  12.165 -3.1657 -0.8836 -0.0822
 2777TIP3   OH229745   4.389   1.412   4.896  0.4363 -0.2673  0.7785
 2777TIP3    H129746   4.438   1.374   4.969 -0.7490  0.7224  2.1788
 2777TIP3    H229747   4.321   1.464   4.939  0.1073  0.8999 -1.0588
 2778TIP3   OH229748   5.759   0.604   1.810  0.1802 -1.0035 -0.4162
 2778TIP3    H129749   5.763   0.676   1.748  0.1767 -1.2439 -0.6981
 2778TIP3    H229750   5.840   0.611   1.861 -0.5388  0.1392  0.6229
 2779TIP3   OH229751   1.846   2.718   0.069  0.8013 -0.3136  0.4440
 2779TIP3    H129752   1.752   2.703   0.077  0.3476  2.3192  1.0473
 2779TIP3    H229753   1.855   2.773  -0.008  1.4539  1.8507  1.9733
 2780TIP3   OH229754   5.458   3.164   2.754 -0.3787  0.2216  0.1012
 2780TIP3    H129755   5.520   3.198   2.689  1.3275  2.0379  2.4998
 2780TIP3    H229756   5.435   3.077   2.721  1.9107  0.2557 -1.9182
 2781TIP3   OH229757   1.873   0.425   3.140  0.1150  0.1448 -0.4985
 2781TIP3    H129758   1.921   0.344   3.121  0.7516  0.5234 -0.5560
 2781TIP3    H229759   1.788   0.414   3.097  0.7616  0.1316 -1.8321
 2782TIP3   OH229760   2.668   3.673  14.058 -0.2871  0.1036 -0.0824
 2782TIP3    H129761   2.749   3.646  14.102 -0.5794  0.6780  0.8407
 2782TIP3    H229762   2.607   3.601  14.072 -0.3779  0.2842  0.4611
 2783TIP3   OH229763   0.418   3.459  13.658 -0.3168  0.2726 -0.1591
 2783TIP3    H129764   0.483   3.467  13.588 -2.1666 -0.9990 -2.1518
 2783TIP3    H229765   0.428   3.539  13.709  0.6535  1.6185 -2.3255
 2784TIP3   OH229766   6.349   1.133   0.999  0.1329 -0.0417  0.7216
 2784TIP3    H129767   6.370   1.187   0.923  0.3224 -0.0010  0.8019
 2784TIP3    H229768   6.299   1.059   0.963  2.1618 -1.2409  0.2168
 2785TIP3   OH229769   2.774   1.628   4.447 -0.0088  0.6852  0.5408
 2785TIP3    H129770   2.848   1.570   4.432  0.0674  0.9480 -0.0934
 2785TIP3    H229771   2.716   1.578   4.506 -0.2268 -0.2786 -0.4621
 2786TIP3   OH229772   0.974   4.524  12.562 -0.3049 -0.0626 -0.0464
 2786TIP3    H129773   1.015   4.530  12.476  0.6638 -1.0826  0.3232
 2786TIP3    H229774   0.924   4.605  12.571  0.0941  0.3332 -1.3034
 2787TIP3   OH229775   3.625   2.007  10.723 -0.0987 -0.2424  0.0292
 2787TIP3    H129776   3.536   2.042  10.724 -0.9783 -1.9119  4.7488
 2787TIP3    H229777   3.678   2.074  10.766  0.7320  0.1514 -1.5248
 2788TIP3   OH229778   4.948   5.799  14.553 -0.4712  0.5322 -0.2867
 2788TIP3    H129779   5.026   5.754  14.521 -0.3289  0.3481  0.3188
 2788TIP3    H229780   4.938   5.873  14.493 -0.4093 -0.0013 -0.9687
 2789TIP3   OH229781   0.642   4.978  11.952 -0.0197 -0.0442 -0.0405
 2789TIP3    H129782   0.607   4.940  11.871 -1.1123 -0.5689  0.6514
 2789TIP3    H229783   0.730   5.006  11.929 -0.4017  0.0720 -1.4951
 2790TIP3   OH229784   5.221   2.611  11.863 -0.1613 -0.1375  0.0560
 2790TIP3    H129785   5.297   2.610  11.922 -0.2634  2.0736  0.2957
 2790TIP3    H229786   5.156   2.556  11.907  0.1132  0.6801  1.5470
 2791TIP3   OH229787   5.997   1.919  11.144  0.3517  0.1686 -0.4545
 2791TIP3    H129788   5.988   1.984  11.213  2.8791  1.0327 -0.8477
 2791TIP3    H229789   6.009   1.836  11.191  0.6083  0.5306  0.1285
 2792TIP3   OH229790   3.278   6.395   6.427  0.1878 -0.7015 -0.0520
 2792TIP3    H129791   3.287   6.398   6.332  0.4088 -0.7592 -0.0338
 2792TIP3    H229792   3.194   6.352   6.442 -0.1476 -0.1184 -0.2284
 2793TIP3   OH229793   3.569   2.828  16.150  0.4190  0.0831  0.4145
 2793TIP3    H129794   3.527   2.802  16.068 -0.4897 -1.9193  1.4390
 2793TIP3    H229795   3.634   2.760  16.167  1.1857  0.9279  0.9377
 2794TIP3   OH229796   1.291   4.159  16.000  0.3868 -0.2621  0.4305
 2794TIP3    H129797   1.313   4.248  15.973 -1.4897  0.2214  0.3812
 2794TIP3    H229798   1.364   4.106  15.969  1.6180  1.2739  0.6096
 2795TIP3   OH229799   5.612   6.647  15.457  0.4725 -0.0480  0.1435
 2795TIP3    H129800   5.678   6.593  15.502  0.5849 -0.4795 -0.5253
 2795TIP3    H229801   5.539   6.587  15.440 -0.9151  0.8429  2.5022
 2796TIP3   OH229802   1.111   3.708   3.071 -0.0968  0.6036  0.1407
 2796TIP3    H129803   1.067   3.627   3.043 -1.2398  0.9370  0.9121
 2796TIP3    H229804   1.135   3.751   2.989  2.4699 -1.4873 -0.3453
 2797TIP3   OH229805   5.411   1.564   3.783 -0.1860 -0.0909  0.1760
 2797TIP3    H129806   5.495   1.519   3.770 -2.1349 -3.9951 -0.2673
 2797TIP3    H229807   5.370   1.562   3.697 -1.7894 -0.7129  0.9199
 2798TIP3   OH229808   1.165   5.471   0.925 -0.3729  0.2647  0.1812
 2798TIP3    H129809   1.090   5.524   0.897 -1.7226 -1.8045 -0.3209
 2798TIP3    H229810   1.188   5.420   0.848  1.6002  0.8380  0.3376
 2799TIP3   OH229811   1.239   6.363  11.803 -0.4848  0.0266 -0.3526
 2799TIP3    H129812   1.246   6.375  11.708  0.8628 -1.4725 -0.4899
 2799TIP3    H229813   1.145   6.359  11.820 -0.7741  1.3308 -1.4664
 2800TIP3   OH229814   6.375   4.165  11.680 -0.1120  0.1061  0.5447
 2800TIP3    H129815   6.354   4.123  11.763 -0.8381  0.4255  0.5249
 2800TIP3    H229816   6.350   4.256  11.692  1.2585  0.5167  0.5181
 2801TIP3   OH229817   4.180   2.031  12.725 -0.1608  0.1921 -0.5048
 2801TIP3    H129818   4.201   2.119  12.695  2.2977 -0.8321 -2.0758
 2801TIP3    H229819   4.239   2.016  12.799 -0.3838 -0.2392 -0.4098
 2802TIP3   OH229820   2.741   0.857   6.281  0.0525  0.6084  0.0238
 2802TIP3    H129821   2.783   0.804   6.213  1.6979 -0.6677  1.9510
 2802TIP3    H229822   2.726   0.796   6.353 -2.1706  1.8022  0.6511
 2803TIP3   OH229823   6.116   1.241   3.731  0.1493 -0.2259  0.4281
 2803TIP3    H129824   6.184   1.276   3.673  0.4371  0.4292  1.1429
 2803TIP3    H229825   6.104   1.151   3.703  1.9627 -0.6337  0.8762
 2804TIP3   OH229826   3.896   0.976  11.391  0.7465 -0.2361  0.1430
 2804TIP3    H129827   3.801   0.970  11.381  0.8155 -0.6310 -0.3293
 2804TIP3    H229828   3.926   0.885  11.388  1.1934 -0.0800 -0.3406
 2805TIP3   OH229829   2.475   4.568   3.951  0.0511 -0.0526 -0.4577
 2805TIP3    H129830   2.460   4.647   3.899  1.3761  0.1288 -0.6035
 2805TIP3    H229831   2.409   4.571   4.020  0.5002  1.5310 -0.0700
 2806TIP3   OH229832   6.244   3.603  14.545 -0.0753 -0.1710 -0.0362
 2806TIP3    H129833   6.191   3.527  14.570  0.9279 -1.1682 -0.8042
 2806TIP3    H229834   6.205   3.634  14.464  0.6807 -1.1282 -0.7970
 2807TIP3   OH229835   2.231   4.857  14.365  0.1328 -0.6366  0.3871
 2807TIP3    H129836   2.226   4.863  14.270 -2.7613 -1.3639  0.3873
 2807TIP3    H229837   2.286   4.781  14.382  2.2936  0.6338 -0.5998
 2808TIP3   OH229838   5.952   2.269  15.649  0.4075  0.0550  0.6801
 2808TIP3    H129839   5.958   2.186  15.602  0.0333  1.2907 -1.7290
 2808TIP3    H229840   6.021   2.323  15.611  0.9904  0.7222  2.5755
 2809TIP3   OH229841   5.756   1.657   3.629  0.4044  0.5171 -0.5931
 2809TIP3    H129842   5.740   1.736   3.680 -1.1739  1.4569 -2.4386
 2809TIP3    H229843   5.846   1.666   3.599  0.6332  0.9894  0.2018
 2810TIP3   OH229844   3.758   0.092   0.352  0.1843  0.4921 -0.0284
 2810TIP3    H129845   3.709   0.014   0.326 -1.3480  1.0401  1.0696
 2810TIP3    H229846   3.747   0.153   0.279  0.0950  0.2404 -0.2244
 2811TIP3   OH229847   5.741   2.941   1.031 -0.4791 -0.6140 -0.3764
 2811TIP3    H129848   5.803   3.001   1.073 -0.6500 -0.4857 -0.3035
 2811TIP3    H229849   5.762   2.855   1.067 -0.2514 -0.5910 -0.4596
 2812TIP3   OH229850   2.722   0.231  16.072 -0.5703  0.4160 -0.0543
 2812TIP3    H129851   2.692   0.321  16.082  2.0730  1.5603 -1.3660
 2812TIP3    H229852   2.814   0.234  16.098  0.1760 -1.3858 -2.2044
 2813TIP3   OH229853   5.153   5.125  13.103 -0.4223 -0.3055 -0.0917
 2813TIP3    H129854   5.090   5.103  13.035  0.1976 -0.3585 -0.6574
 2813TIP3    H229855   5.200   5.201  13.069  0.4237 -0.8078 -0.0784
 2814TIP3   OH229856   4.746   4.454  15.995  0.2410  0.1456  0.3183
 2814TIP3    H129857   4.838   4.462  16.020  0.7307  0.3584 -1.4019
 2814TIP3    H229858   4.722   4.542  15.967 -0.1334 -0.1534 -0.3177
 2815TIP3   OH229859   0.283   0.669  12.452  0.3517 -0.0632 -0.1475
 2815TIP3    H129860   0.372   0.634  12.447  0.4705  0.1375  0.4884
 2815TIP3    H229861   0.232   0.611  12.396  0.4955 -1.4313  1.0568
 2816TIP3   OH229862   1.277   1.713   3.018  0.0268  0.2618  0.6404
 2816TIP3    H129863   1.315   1.665   2.944  1.1344  2.1417 -0.0609
 2816TIP3    H229864   1.192   1.743   2.986  0.4029  0.8726  0.2119
 2817TIP3   OH229865   2.257   6.392  13.696 -0.7166  0.2371 -0.3648
 2817TIP3    H129866   2.251   6.310  13.647 -1.5431  0.1265 -0.0974
 2817TIP3    H229867   2.259   6.365  13.788  1.3765  0.4136 -0.3097
 2818TIP3   OH229868   0.247   3.799  15.189 -0.1053  0.4369  0.4687
 2818TIP3    H129869   0.285   3.792  15.276 -0.3695 -0.1240  0.5434
 2818TIP3    H229870   0.322   3.796  15.129 -0.0211 -1.0333  0.5970
 2819TIP3   OH229871   2.271   4.900   0.758 -0.5320  0.4418 -0.4149
 2819TIP3    H129872   2.297   4.992   0.751 -0.9849  0.4908 -1.7874
 2819TIP3    H229873   2.180   4.903   0.785 -0.1946  0.3505  0.7868
 2820TIP3   OH229874   0.916   5.154  12.388 -0.0658  0.5084  0.0165
 2820TIP3    H129875   0.959   5.137  12.304  0.0204 -0.1466  0.1858
 2820TIP3    H229876   0.963   5.228  12.425  0.4074  0.3015 -0.1638
 2821TIP3   OH229877   5.444   4.260  12.027  0.2273 -0.3346  0.0431
 2821TIP3    H129878   5.375   4.312  11.986 -0.1119  1.3006  2.4498
 2821TIP3    H229879   5.430   4.171  11.995 -3.1997 -0.1204  0.6118
 2822TIP3   OH229880   0.385   1.944  12.418 -0.0788 -0.3181  0.2321
 2822TIP3    H129881   0.440   1.919  12.344 -0.0369  1.9925 -0.6078
 2822TIP3    H229882   0.447   1.963  12.488  0.2690  1.7172 -0.5373
 2823TIP3   OH229883   5.087   2.610   5.439  0.4535 -0.2396  0.0156
 2823TIP3    H129884   5.141   2.663   5.498  1.5982  1.7180 -2.6149
 2823TIP3    H229885   4.997   2.633   5.462  0.8627  0.5053  0.9398
 2824TIP3   OH229886   3.673   0.534  13.768  0.2214 -0.2385 -0.0440
 2824TIP3    H129887   3.716   0.618  13.756  1.4466 -0.5870  1.5544
 2824TIP3    H229888   3.699   0.483  13.691 -1.3217  1.1088 -1.5179
 2825TIP3   OH229889   1.151   5.869  12.642  0.0323  0.2001 -0.6549
 2825TIP3    H129890   1.056   5.864  12.658  0.2341 -1.8010  0.2555
 2825TIP3    H229891   1.159   5.872  12.547 -0.9312 -0.2155 -0.7647
 2826TIP3   OH229892   5.753   3.119   0.125  0.1550 -0.5904 -0.7786
 2826TIP3    H129893   5.740   3.069   0.205  1.0585 -0.0146 -0.2426
 2826TIP3    H229894   5.845   3.145   0.128 -0.4764  1.9632 -0.4803
 2827TIP3   OH229895   3.703   5.176   2.166  0.5145 -0.0340 -0.3959
 2827TIP3    H129896   3.629   5.191   2.106  0.2594  0.4720  0.0384
 2827TIP3    H229897   3.667   5.120   2.235  0.5262  0.2422 -0.1645
 2828TIP3   OH229898   2.640   3.941   1.950  0.3660  0.0058  0.5433
 2828TIP3    H129899   2.618   3.871   1.888 -1.9704 -0.7855  2.1439
 2828TIP3    H229900   2.659   3.895   2.032  2.7870  1.0762  0.6438
 2829TIP3   OH229901   5.494   1.300   1.248 -0.0503  0.5400  0.3326
 2829TIP3    H129902   5.402   1.274   1.244 -0.3484  1.5462  0.2446
 2829TIP3    H229903   5.502   1.369   1.182  0.6074  0.9035  0.7799
 2830TIP3   OH229904   4.964   5.830  12.471 -0.0860 -0.0834 -0.4431
 2830TIP3    H129905   5.029   5.783  12.522 -1.1052  0.5809  1.5994
 2830TIP3    H229906   4.918   5.763  12.421 -0.4402 -1.0908  1.1682
 2831TIP3   OH229907   5.424   1.247  13.013 -0.2274  0.1519  0.3725
 2831TIP3    H129908   5.440   1.254  12.919  3.4517 -1.6762  0.7025
 2831TIP3    H229909   5.464   1.325  13.051  3.1350 -1.5520  0.6938
 2832TIP3   OH229910   6.464   3.380  16.950 -0.1543  0.3572 -0.1232
 2832TIP3    H129911   6.391   3.326  16.922  0.1963 -1.4530  2.1141
 2832TIP3    H229912   6.424   3.448  17.004 -0.3266  0.2592 -0.1274
 2833TIP3   OH229913   5.334   5.551   5.893  0.1300 -0.1562  0.0828
 2833TIP3    H129914   5.267   5.517   5.953  0.5631  0.1125  0.7293
 2833TIP3    H229915   5.323   5.499   5.813  0.3557 -1.4105  0.8283
 2834TIP3   OH229916   0.984   2.235   4.156 -0.3496 -0.3854 -0.4975
 2834TIP3    H129917   0.896   2.266   4.181  0.2752 -0.7471  2.5641
 2834TIP3    H229918   0.974   2.140   4.145 -0.2179 -0.5729  0.8031
 2835TIP3   OH229919   2.971   2.571   2.015  0.1802 -0.1398 -0.0197
 2835TIP3    H129920   2.912   2.592   2.087 -1.0906 -0.4069 -0.9409
 2835TIP3    H229921   2.931   2.496   1.972  0.6975  0.2497 -1.2413
 2836TIP3   OH229922   3.716   1.041  11.878  0.0831  0.6179 -0.1793
 2836TIP3    H129923   3.766   1.001  11.806 -0.4972 -1.4964  0.5158
 2836TIP3    H229924   3.778   1.044  11.951 -0.1780 -0.0157  0.0725
 2837TIP3   OH229925   5.581   6.699   0.533 -0.0717  0.0037 -0.4440
 2837TIP3    H129926   5.622   6.618   0.564 -2.7751 -0.5867  2.1083
 2837TIP3    H229927   5.653   6.762   0.527  1.6564 -1.7635  0.5593
 2838TIP3   OH229928   1.231   5.644  12.803  0.5576  0.5582 -0.0248
 2838TIP3    H129929   1.326   5.644  12.818  0.8335 -0.6873 -1.5149
 2838TIP3    H229930   1.218   5.714  12.739  0.6766 -0.1712 -0.8573
 2839TIP3   OH229931   0.179   4.717  13.878  0.0663  0.5024 -0.1132
 2839TIP3    H129932   0.113   4.660  13.916 -0.3010  0.3438 -0.9612
 2839TIP3    H229933   0.139   4.751  13.798  0.6205  1.2315 -0.0945
 2840TIP3   OH229934   3.218   1.041  13.015  0.2033  0.2196 -0.4421
 2840TIP3    H129935   3.216   1.135  13.035  1.6276  0.7603 -2.5695
 2840TIP3    H229936   3.303   1.012  13.047  0.3647 -0.0295 -1.0967
 2841TIP3   OH229937   1.761   2.559  14.842 -0.6908  0.5714  0.0425
 2841TIP3    H129938   1.718   2.644  14.853 -0.9397  0.1335  3.3483
 2841TIP3    H229939   1.793   2.537  14.929  3.4827 -0.6722 -1.5868
 2842TIP3   OH229940   3.643   1.609  16.744 -0.1020 -0.0866 -0.8862
 2842TIP3    H129941   3.635   1.650  16.830  0.9571  0.1340 -0.8907
 2842TIP3    H229942   3.582   1.658  16.689 -0.4393  0.0702 -0.3820
 2843TIP3   OH229943   5.416   0.275  15.933  0.0044 -0.0589 -0.3869
 2843TIP3    H129944   5.472   0.323  15.993  0.3801 -1.0155  0.0471
 2843TIP3    H229945   5.347   0.338  15.909 -0.7778  0.0479  1.8747
 2844TIP3   OH229946   3.472   5.226  10.924  0.0989  0.3595  0.5869
 2844TIP3    H129947   3.396   5.196  10.874  1.3857 -1.3918 -0.4476
 2844TIP3    H229948   3.461   5.321  10.930 -0.8199  0.4744 -1.8684
 2845TIP3   OH229949   6.791   2.910   2.877 -0.0332  0.0767  0.1740
 2845TIP3    H129950   6.701   2.937   2.857  0.0635  0.4669  0.2640
 2845TIP3    H229951   6.781   2.848   2.950 -0.2987 -0.5588 -0.3872
 2846TIP3   OH229952   2.103   5.456  16.327 -0.6200  0.3971 -0.1229
 2846TIP3    H129953   2.069   5.509  16.255 -3.4422  2.5026  2.5168
 2846TIP3    H229954   2.162   5.514  16.374 -1.0968  0.1046  0.8694
 2847TIP3   OH229955   1.776   6.479  14.103 -0.0191 -0.2211 -0.1058
 2847TIP3    H129956   1.807   6.511  14.188  0.7136 -1.7082  0.2223
 2847TIP3    H229957   1.852   6.487  14.046 -0.8877  2.0538 -1.0308
 2848TIP3   OH229958   1.144   5.528  16.883 -0.1643 -0.2819  0.2374
 2848TIP3    H129959   1.101   5.570  16.957 -1.1095 -1.7793  0.5762
 2848TIP3    H229960   1.168   5.441  16.915  1.9726  0.0472 -0.3609
 2849TIP3   OH229961   5.925   0.058  16.194 -0.4819 -0.1253  0.4129
 2849TIP3    H129962   5.845   0.011  16.171 -0.7293 -0.1711  1.3319
 2849TIP3    H229963   5.898   0.149  16.203  0.3768  0.7251 -3.4992
 2850TIP3   OH229964   4.493   5.554  13.950 -0.2961  0.0255 -0.3466
 2850TIP3    H129965   4.437   5.628  13.927 -0.6187 -0.4326 -1.0573
 2850TIP3    H229966   4.445   5.477  13.918  0.1264 -0.4757  0.2072
 2851TIP3   OH229967   0.098   3.266   3.996  0.2861  0.1971 -0.1528
 2851TIP3    H129968   0.141   3.181   3.998 -1.8195 -0.9256  1.4165
 2851TIP3    H229969   0.169   3.329   3.982  2.1624 -1.6564  0.5673
 2852TIP3   OH229970   6.750   3.719  12.266  0.3322 -0.0926  0.3288
 2852TIP3    H129971   6.821   3.753  12.212 -1.2183  1.9779 -0.5987
 2852TIP3    H229972   6.773   3.746  12.355  1.8459 -1.6163  0.4477
 2853TIP3   OH229973   3.112   4.889   0.881 -0.5801 -0.5530 -0.5991
 2853TIP3    H129974   3.126   4.898   0.787 -1.3268  1.4311 -0.5694
 2853TIP3    H229975   3.019   4.871   0.889 -0.9494  1.2678 -0.2155
 2854TIP3   OH229976   2.001   4.224   1.613  0.4884 -0.1555 -0.2300
 2854TIP3    H129977   2.083   4.271   1.633  0.6060 -0.0299 -0.9871
 2854TIP3    H229978   2.025   4.161   1.545 -0.2280  0.5077 -1.1211
 2855TIP3   OH229979   0.558   5.741  13.741 -0.7684  0.3020  0.3127
 2855TIP3    H129980   0.578   5.650  13.764  1.7632  0.7909  0.3311
 2855TIP3    H229981   0.576   5.746  13.647  1.0439  1.1783  0.6542
 2856TIP3   OH229982   5.968   6.237  12.753 -0.3458 -0.0566  0.3520
 2856TIP3    H129983   5.995   6.313  12.701 -1.6170 -0.2693 -0.6688
 2856TIP3    H229984   5.878   6.257  12.780  0.8416  0.9735  4.2857
 2857TIP3   OH229985   6.060   1.703  11.993 -0.3452  0.1468 -0.8883
 2857TIP3    H129986   5.975   1.716  12.034 -0.3027 -1.5731 -0.1902
 2857TIP3    H229987   6.042   1.657  11.911 -0.1078  0.1117 -0.9231
 2858TIP3   OH229988   2.836   2.264  10.197  0.4568 -0.0159 -0.2500
 2858TIP3    H129989   2.898   2.192  10.180 -0.4698 -1.3192  1.5134
 2858TIP3    H229990   2.881   2.318  10.262  0.0669 -0.5571  0.4840
 2859TIP3   OH229991   1.499   0.313   1.118 -0.0203  0.4232  0.6069
 2859TIP3    H129992   1.539   0.336   1.201 -0.4286  0.6991  0.7258
 2859TIP3    H229993   1.453   0.231   1.135 -0.3691  0.6451  0.7344
 2860TIP3   OH229994   5.506   6.045   4.903  0.2421 -0.1368  0.1258
 2860TIP3    H129995   5.485   5.963   4.858  0.0815 -0.2098  0.3320
 2860TIP3    H229996   5.519   6.108   4.832 -2.0737  0.2515 -0.0260
 2861TIP3   OH229997   6.574   6.638   1.823  0.1819 -0.5910 -0.0239
 2861TIP3    H129998   6.482   6.654   1.844 -0.1491 -1.4259 -0.7792
 2861TIP3    H229999   6.616   6.723   1.831 -0.3041 -0.4851  2.0343
 2862TIP3   OH230000   2.872   0.159   1.980  0.4692 -0.0309  0.8304
 2862TIP3    H130001   2.819   0.209   1.918 -0.3413 -1.6302  0.1705
 2862TIP3    H230002   2.808   0.108   2.031  1.3050 -2.2989 -0.2385
 2863TIP3   OH230003   0.815   3.772  13.407 -0.2458  0.1438  0.1022
 2863TIP3    H130004   0.865   3.848  13.435 -0.8807  1.2334 -1.5737
 2863TIP3    H230005   0.728   3.784  13.445 -0.3162  0.2094 -0.0779
 2864TIP3   OH230006   5.186   1.896   3.982 -0.0110 -0.4849 -0.3574
 2864TIP3    H130007   5.139   1.921   4.061 -0.0753 -0.7884 -0.2970
 2864TIP3    H230008   5.252   1.835   4.013  0.9268  0.5156 -0.3340
 2865TIP3   OH230009   1.818   0.985  15.820 -0.4206  0.6111  0.7408
 2865TIP3    H130010   1.740   1.008  15.870 -1.0278 -0.1231  0.1524
 2865TIP3    H230011   1.891   1.000  15.881 -1.0387  0.9855  1.4035
 2866TIP3   OH230012   4.772   2.763  11.771  0.3053 -0.3835 -0.4428
 2866TIP3    H130013   4.733   2.679  11.747  0.2479 -0.0858 -1.4249
 2866TIP3    H230014   4.854   2.766  11.721  0.1364  0.2908 -0.6872
 2867TIP3   OH230015   4.340   1.917  11.567 -0.0720 -0.2463 -0.0704
 2867TIP3    H130016   4.288   1.859  11.512  0.8502  0.3690 -1.6383
 2867TIP3    H230017   4.284   1.933  11.644 -1.8835 -0.2275 -1.3285
 2868TIP3   OH230018   2.499   5.797  16.458 -0.2525 -0.5052  0.6204
 2868TIP3    H130019   2.461   5.871  16.506 -1.5261  0.7794 -2.1595
 2868TIP3    H230020   2.563   5.837  16.400 -0.1656 -1.7244 -0.1517
 2869TIP3   OH230021   3.568   2.872   1.982 -0.6565  0.3323 -0.1975
 2869TIP3    H130022   3.549   2.943   1.921  0.8500 -0.1886 -1.3199
 2869TIP3    H230023   3.585   2.917   2.065  0.1709  1.2803 -0.8609
 2870TIP3   OH230024   5.877   4.798   2.223 -0.1871 -0.1614  0.1561
 2870TIP3    H130025   5.838   4.884   2.207 -1.0330 -0.5364  0.1702
 2870TIP3    H230026   5.955   4.797   2.168  1.0913  1.4620  1.8162
 2871TIP3   OH230027   3.521   1.657   3.230 -0.0636  0.7772  0.6240
 2871TIP3    H130028   3.508   1.604   3.151 -3.0139 -1.1010  2.1935
 2871TIP3    H230029   3.587   1.610   3.280 -0.6000  0.1009  0.7177
 2872TIP3   OH230030   6.240   0.071   4.648 -0.0719  0.6068 -0.2883
 2872TIP3    H130031   6.268  -0.020   4.658 -1.6190 -0.0728 -1.6430
 2872TIP3    H230032   6.190   0.089   4.728  1.7841  0.9408  0.8601
 2873TIP3   OH230033   2.039   2.390  12.689 -0.2146 -0.1823  0.0204
 2873TIP3    H130034   2.065   2.446  12.616 -1.9441  0.5059 -0.1167
 2873TIP3    H230035   2.049   2.445  12.766  0.8244 -0.6402  0.2206
 2874TIP3   OH230036   2.595   3.366   3.485  0.0283  0.4293  0.4516
 2874TIP3    H130037   2.674   3.412   3.514 -0.1468  1.3452 -0.4382
 2874TIP3    H230038   2.549   3.344   3.566  0.9980  0.2372  0.9651
 2875TIP3   OH230039   6.604   6.712  14.712  0.9806 -0.4290 -0.5755
 2875TIP3    H130040   6.573   6.625  14.737  0.5168 -0.1616 -0.1944
 2875TIP3    H230041   6.678   6.729  14.770 -0.1722  0.2441  0.7459
 2876TIP3   OH230042   5.817   4.930  11.466 -0.3464 -0.1696  0.2090
 2876TIP3    H130043   5.822   4.842  11.429 -0.1122 -0.2815  0.5009
 2876TIP3    H230044   5.725   4.955  11.458 -1.0833 -1.6113  2.7733
 2877TIP3   OH230045   4.585   6.412  14.051 -0.0402 -0.3233  0.4733
 2877TIP3    H130046   4.534   6.428  14.130  1.1233 -0.8638  1.3600
 2877TIP3    H230047   4.675   6.399  14.082  0.6931  0.7753 -1.0544
 2878TIP3   OH230048   2.668   3.936   0.369 -0.3881  0.2526  0.1181
 2878TIP3    H130049   2.731   3.977   0.428  0.4636 -1.2070  0.2739
 2878TIP3    H230050   2.715   3.923   0.287 -0.4634 -0.7938  0.2153
 2879TIP3   OH230051   3.884   0.257  15.496 -0.4019  0.1630  0.8489
 2879TIP3    H130052   3.922   0.343  15.479 -1.1439  0.6455  1.5483
 2879TIP3    H230053   3.827   0.240  15.421  0.1237  0.0635  0.4749
 2880TIP3   OH230054   4.578   3.249  12.642 -0.3458 -0.6500 -0.6245
 2880TIP3    H130055   4.505   3.311  12.643 -0.8476 -1.2361 -0.2226
 2880TIP3    H230056   4.651   3.297  12.681 -0.7820 -0.3753 -0.1332
 2881TIP3   OH230057   4.914   3.669  16.195  0.0116  0.6465  0.5672
 2881TIP3    H130058   4.955   3.635  16.275  0.9129  1.5694  0.5082
 2881TIP3    H230059   4.985   3.709  16.146 -0.3164 -0.8467 -1.2514
 2882TIP3   OH230060   1.422   5.413  13.785  0.1672  0.2471  0.4770
 2882TIP3    H130061   1.492   5.416  13.851  1.9856 -2.2046 -1.1481
 2882TIP3    H230062   1.349   5.371  13.830  0.8424 -0.0010  1.3705
 2883TIP3   OH230063   2.418   5.323  14.603  0.2365  0.1011  0.3051
 2883TIP3    H130064   2.423   5.258  14.532  1.2887  1.7858 -1.2453
 2883TIP3    H230065   2.501   5.370  14.599 -0.0929  0.9099  2.0307
 2884TIP3   OH230066   3.117   4.411   1.293 -0.1007  0.8593 -0.3015
 2884TIP3    H130067   3.105   4.423   1.387  1.9559  1.1026 -0.0293
 2884TIP3    H230068   3.208   4.435   1.277 -0.4457  0.9575 -2.3913
 2885TIP3   OH230069   2.511   6.149   5.689  0.1995 -0.1653  0.2943
 2885TIP3    H130070   2.423   6.187   5.700 -0.1272 -0.3898 -1.3147
 2885TIP3    H230071   2.567   6.202   5.746 -0.3020  2.5829 -1.5720
 2886TIP3   OH230072   5.802   5.414   2.662 -0.3626 -0.0592 -0.1378
 2886TIP3    H130073   5.868   5.346   2.654  0.7458  0.8987  0.4691
 2886TIP3    H230074   5.837   5.488   2.613 -1.6600  0.0161 -0.9974
 2887TIP3   OH230075   3.122   3.491  11.902 -0.3108 -0.1697  0.1013
 2887TIP3    H130076   3.124   3.478  11.808 -1.4866 -2.3796  0.3181
 2887TIP3    H230077   3.181   3.565  11.918  0.3753 -0.1471 -2.2739
 2888TIP3   OH230078   4.481   1.355  10.737 -0.2750 -0.0038 -0.2083
 2888TIP3    H130079   4.494   1.376  10.644 -0.7081  1.3094 -0.0011
 2888TIP3    H230080   4.463   1.261  10.739 -2.9213  0.3538 -1.7805
 2889TIP3   OH230081   4.673   4.545   1.301 -0.7574 -0.3483  0.1651
 2889TIP3    H130082   4.765   4.523   1.317 -0.0350  1.0504 -1.6921
 2889TIP3    H230083   4.631   4.460   1.286  0.1272 -1.0438  1.4512
 2890TIP3   OH230084   2.410   0.482   4.516 -0.0919  0.0331 -0.2330
 2890TIP3    H130085   2.400   0.519   4.603  0.5721  0.0165 -0.1439
 2890TIP3    H230086   2.399   0.557   4.457 -0.7336  0.0095 -0.1488
 2891TIP3   OH230087   0.262   5.140   5.650 -0.0799  0.4632 -0.2992
 2891TIP3    H130088   0.240   5.165   5.740 -0.3114  0.8737 -0.4648
 2891TIP3    H230089   0.232   5.214   5.597  2.7559  1.6090 -0.4683
 2892TIP3   OH230090   6.735   2.344  15.295 -0.2786 -0.0488 -0.3172
 2892TIP3    H130091   6.742   2.384  15.208  0.1122 -1.1768 -0.8154
 2892TIP3    H230092   6.817   2.298  15.307  0.3752  1.4242  1.3660
 2893TIP3   OH230093   2.395   2.842  15.090 -0.6302  0.0847  0.1052
 2893TIP3    H130094   2.365   2.804  15.007  1.8733 -0.2329 -0.7247
 2893TIP3    H230095   2.489   2.827  15.091 -0.4875  0.6567  2.7471
 2894TIP3   OH230096   0.491   1.594  12.203 -0.4067  0.1317  0.4757
 2894TIP3    H130097   0.415   1.585  12.260 -1.1083 -0.0262 -0.4733
 2894TIP3    H230098   0.476   1.532  12.132  0.0471  0.9252 -0.3301
 2895TIP3   OH230099   3.971   5.217   2.060 -0.0642  0.4329 -0.5335
 2895TIP3    H130100   3.942   5.303   2.029 -1.6301 -0.2823 -1.1897
 2895TIP3    H230101   3.894   5.180   2.104  1.2876  0.2884  1.8774
 2896TIP3   OH230102   6.807   1.441  12.926  0.2408 -0.0516  0.3330
 2896TIP3    H130103   6.847   1.528  12.925  0.5163 -0.1682  1.0647
 2896TIP3    H230104   6.839   1.400  13.007 -0.3371 -0.6199  0.2818
 2897TIP3   OH230105   5.283   3.094  12.803 -0.4173  0.2547  0.2838
 2897TIP3    H130106   5.327   3.030  12.748 -1.3171  0.2138 -0.4127
 2897TIP3    H230107   5.324   3.178  12.781  0.8097 -0.0640  1.2454
 2898TIP3   OH230108   1.044   6.494  14.630  0.0431 -0.4465 -0.0965
 2898TIP3    H130109   1.012   6.554  14.698 -0.1467 -0.1694 -0.4246
 2898TIP3    H230110   1.125   6.459  14.666  0.8300  0.9603 -0.4188
 2899TIP3   OH230111   2.983   0.929  14.769  0.2639  0.0634 -0.1979
 2899TIP3    H130112   2.969   0.957  14.679  0.8097  1.8626  0.2379
 2899TIP3    H230113   3.013   0.838  14.762  0.9850  0.4013 -1.8699
 2900TIP3   OH230114   5.367   4.860   1.193  0.1490  0.8310  0.5832
 2900TIP3    H130115   5.372   4.772   1.156  1.7030  0.5483  1.4052
 2900TIP3    H230116   5.318   4.850   1.274  2.1037  0.3061  1.7517
 2901TIP3   OH230117   0.744   5.242   1.347  0.2584 -0.3346 -0.3844
 2901TIP3    H130118   0.699   5.171   1.301 -0.8795 -0.4378  0.8427
 2901TIP3    H230119   0.829   5.250   1.302 -0.4264 -1.0561 -1.8682
 2902TIP3   OH230120   3.524   6.117   0.330 -0.1265 -0.4208 -0.0472
 2902TIP3    H130121   3.509   6.090   0.239  1.3563  2.0657 -1.1455
 2902TIP3    H230122   3.578   6.048   0.367 -0.8047 -1.5059 -1.0018
 2903TIP3   OH230123   3.095   2.159  13.301  0.3713  0.1339 -0.3719
 2903TIP3    H130124   3.113   2.077  13.255 -0.7825  0.4117 -1.3683
 2903TIP3    H230125   3.006   2.147  13.337  0.0397  1.0855 -0.8627
 2904TIP3   OH230126   1.404   2.170  15.034  0.2252 -0.2361 -0.0860
 2904TIP3    H130127   1.450   2.245  14.996  3.4047 -0.2807  3.2244
 2904TIP3    H230128   1.418   2.099  14.971  2.5385  0.4526 -0.4281
 2905TIP3   OH230129   4.391   0.779  16.165  0.6937  0.2948  0.0109
 2905TIP3    H130130   4.360   0.811  16.250  1.5713 -0.2355  0.5559
 2905TIP3    H230131   4.461   0.840  16.141  1.7648 -0.6408  0.6255
 2906TIP3   OH230132   1.206   0.511   5.651 -0.4105  0.3938  0.0419
 2906TIP3    H130133   1.254   0.483   5.729  0.2450  0.6874 -0.2527
 2906TIP3    H230134   1.175   0.429   5.611 -0.1588  0.2058  0.2297
 2907TIP3   OH230135   6.557   5.772   6.342 -0.4377  0.0548 -0.0655
 2907TIP3    H130136   6.635   5.745   6.391  0.1718  2.1360  0.2104
 2907TIP3    H230137   6.545   5.703   6.277  1.0380 -0.8251  0.5259
 2908TIP3   OH230138   4.391   0.873   2.536  0.2820  0.0907 -0.4721
 2908TIP3    H130139   4.411   0.908   2.623 -1.2610  0.7963 -0.3584
 2908TIP3    H230140   4.470   0.887   2.485  0.8078  0.7521  0.4952
 2909TIP3   OH230141   3.618   3.838   4.799 -0.2637 -0.3132 -0.2099
 2909TIP3    H130142   3.671   3.815   4.723 -1.0242 -2.3406 -0.1845
 2909TIP3    H230143   3.674   3.819   4.874 -1.0400 -2.7802 -0.1718
 2910TIP3   OH230144   4.248   2.213  13.237  0.1461  0.6070 -0.1137
 2910TIP3    H130145   4.191   2.222  13.161  0.0800 -2.2236 -0.5023
 2910TIP3    H230146   4.193   2.175  13.304  1.3414 -1.7322 -0.3432
 2911TIP3   OH230147   2.945   0.355   5.025  0.6760 -0.3155 -0.6786
 2911TIP3    H130148   2.877   0.420   5.041 -0.2001 -0.5520 -3.0503
 2911TIP3    H230149   3.010   0.400   4.971  2.1874 -0.2503  1.1156
 2912TIP3   OH230150   1.839   4.186   1.835 -0.9170 -0.9629  0.0411
 2912TIP3    H130151   1.891   4.204   1.757 -0.0232 -0.4541  0.7398
 2912TIP3    H230152   1.754   4.159   1.801 -2.0976  3.4241 -1.1682
 2913TIP3   OH230153   3.534   1.952   1.591 -0.1780 -0.0318 -0.1305
 2913TIP3    H130154   3.467   1.962   1.659  0.3709 -0.8402  0.5634
 2913TIP3    H230155   3.491   1.976   1.510 -0.0264  4.1373  0.8006
 2914TIP3   OH230156   3.889   4.158   5.400 -0.3668 -0.3169  0.3032
 2914TIP3    H130157   3.804   4.147   5.444 -0.5867  1.2125  0.2991
 2914TIP3    H230158   3.938   4.216   5.457 -0.5095  1.3910 -1.2411
 2915TIP3   OH230159   5.827   2.713   2.964  0.0029 -0.9631  0.3255
 2915TIP3    H130160   5.886   2.778   3.001 -1.1990  1.0265 -1.0795
 2915TIP3    H230161   5.868   2.688   2.881 -2.1690  2.4286 -2.0203
 2916TIP3   OH230162   0.432   0.180   1.639 -0.4544 -0.3546 -0.6070
 2916TIP3    H130163   0.522   0.205   1.659 -0.6992 -0.4387  0.7008
 2916TIP3    H230164   0.438   0.088   1.615 -0.3530 -0.8105  1.0223
 2917TIP3   OH230165   1.821   3.077  13.693  0.2982 -0.5199 -0.5374
 2917TIP3    H130166   1.857   3.002  13.646  0.0211 -0.2343 -1.2223
 2917TIP3    H230167   1.805   3.045  13.782 -0.4764 -1.4774 -1.0098
 2918TIP3   OH230168   4.607   6.071   5.759 -0.4749 -0.9338 -0.4201
 2918TIP3    H130169   4.561   6.140   5.807  0.1366 -0.1280 -0.9632
 2918TIP3    H230170   4.614   5.999   5.822 -2.0435 -0.9083 -0.1798
 2919TIP3   OH230171   0.707   3.959   5.635 -0.3986 -0.0832 -0.4830
 2919TIP3    H130172   0.690   3.883   5.690  1.0071  0.2635  0.4766
 2919TIP3    H230173   0.745   4.024   5.694  0.8526  0.4183 -1.7670
 2920TIP3   OH230174   1.741   2.468   2.910 -0.2664 -0.1777 -0.2829
 2920TIP3    H130175   1.710   2.536   2.970 -0.2017  1.0644 -1.5874
 2920TIP3    H230176   1.663   2.437   2.865 -0.2746 -0.8869  0.1998
 2921TIP3   OH230177   0.055   6.210  12.102  0.2101 -0.0885  0.5237
 2921TIP3    H130178   0.073   6.118  12.084  1.1443 -0.2963  2.2580
 2921TIP3    H230179  -0.028   6.210  12.149 -0.1235  0.0231 -0.0647
 2922TIP3   OH230180   4.605   1.523   3.551  0.6405  0.2677 -0.0524
 2922TIP3    H130181   4.534   1.459   3.553  0.2687  0.6854  0.1866
 2922TIP3    H230182   4.684   1.472   3.569  0.7370 -0.6260 -2.5359
 2923TIP3   OH230183   0.267   5.296   5.908  0.0853  0.9769  0.1799
 2923TIP3    H130184   0.304   5.250   5.983  0.7529  0.5392 -0.3918
 2923TIP3    H230185   0.339   5.352   5.877 -0.1465  1.0767 -0.1815
 2924TIP3   OH230186   4.786   2.621  10.595  0.0885  0.0957 -0.2502
 2924TIP3    H130187   4.837   2.695  10.560  0.5853  1.0245  2.1949
 2924TIP3    H230188   4.704   2.661  10.625  0.2735 -0.3578  0.8981
 2925TIP3   OH230189   0.657   5.824  11.967 -0.2454  0.4437 -0.5944
 2925TIP3    H130190   0.697   5.863  12.045  0.3573  1.2055 -1.2679
 2925TIP3    H230191   0.702   5.865  11.893 -1.1215  0.0790 -1.3589
 2926TIP3   OH230192   4.649   1.956   1.160  0.0300 -0.4059  0.0989
 2926TIP3    H130193   4.708   1.959   1.236  0.0339 -1.5642  0.1588
 2926TIP3    H230194   4.566   1.988   1.193  0.2828 -0.0013  0.3523
 2927TIP3   OH230195   5.430   0.638  14.318 -0.0376  0.1560 -1.1022
 2927TIP3    H130196   5.408   0.546  14.333 -0.2485  0.0458 -2.0252
 2927TIP3    H230197   5.371   0.686  14.375  0.9186 -0.3070  0.3264
 2928TIP3   OH230198   1.445   0.489   5.513 -0.1242 -0.3469 -0.1745
 2928TIP3    H130199   1.530   0.467   5.551 -0.0718 -0.0244 -0.1046
 2928TIP3    H230200   1.397   0.534   5.583  0.3868  1.2582 -0.8069
 2929TIP3   OH230201   6.800   0.303   1.827  0.2586 -0.1185 -0.5260
 2929TIP3    H130202   6.885   0.331   1.794  0.0466  2.3022  0.7833
 2929TIP3    H230203   6.818   0.268   1.914 -0.2634  2.6291  0.7837
 2930TIP3   OH230204   5.527   4.361  12.254  0.4987 -0.2827 -0.0664
 2930TIP3    H130205   5.529   4.328  12.164  3.8422  2.4899 -1.2515
 2930TIP3    H230206   5.578   4.297  12.304  0.5061 -0.7271 -0.6294
 2931TIP3   OH230207   1.228   2.699   3.464  0.3017 -0.1816 -0.4222
 2931TIP3    H130208   1.289   2.755   3.414  0.6726  0.6527  0.9105
 2931TIP3    H230209   1.278   2.673   3.541 -0.3405 -1.2737 -0.3572
 2932TIP3   OH230210   3.904   3.355  16.389 -0.4716  0.0070  0.3924
 2932TIP3    H130211   3.899   3.354  16.484 -0.6544 -1.1377  0.3760
 2932TIP3    H230212   3.964   3.427  16.369  1.8797 -1.5333  1.4879
 2933TIP3   OH230213   2.549   3.341   1.206  0.0776 -0.0885  0.0056
 2933TIP3    H130214   2.551   3.402   1.280  1.9991 -0.4353  0.2880
 2933TIP3    H230215   2.584   3.259   1.242  0.9415 -0.2935 -1.2415
 2934TIP3   OH230216   1.553   3.148  11.753 -0.6008  0.6599 -0.9146
 2934TIP3    H130217   1.499   3.087  11.704 -1.2274  0.3111  0.1749
 2934TIP3    H230218   1.633   3.157  11.701  0.0475 -2.0463 -0.5244
 2935TIP3   OH230219   6.663   3.025   5.069  0.3066  0.4275 -0.0912
 2935TIP3    H130220   6.587   3.075   5.039 -0.4780 -0.4168  0.4477
 2935TIP3    H230221   6.644   2.935   5.044  1.3199  0.2556 -0.2915
 2936TIP3   OH230222   0.557   2.353   2.457 -0.8698  0.1859  0.4861
 2936TIP3    H130223   0.471   2.383   2.426  0.5633  1.6877 -2.3423
 2936TIP3    H230224   0.571   2.270   2.411  0.3553  1.3672 -1.3759
 2937TIP3   OH230225   5.400   6.743  10.597  0.4411  0.1771  0.1670
 2937TIP3    H130226   5.430   6.657  10.566 -2.0111 -0.5158 -0.5072
 2937TIP3    H230227   5.462   6.767  10.666  1.0814 -2.2124  0.4950
 2938TIP3   OH230228   3.286   0.958   6.297  0.3572  0.0273  0.8025
 2938TIP3    H130229   3.204   0.950   6.345 -0.6282 -0.7862 -0.9119
 2938TIP3    H230230   3.329   1.034   6.336 -1.1073  0.3416  1.8943
 2939TIP3   OH230231   4.399   2.588   3.146 -0.6644  0.0589 -0.0045
 2939TIP3    H130232   4.310   2.614   3.123 -0.5662  0.3604 -0.0417
 2939TIP3    H230233   4.398   2.580   3.241 -0.5611  0.7021  0.0548
 2940TIP3   OH230234   3.765   2.353  10.514  1.2425  0.3350  0.3825
 2940TIP3    H130235   3.848   2.393  10.488  0.7993  0.8884 -0.2257
 2940TIP3    H230236   3.790   2.271  10.556  2.0035 -1.5255 -3.2620
 2941TIP3   OH230237   4.012   1.249  11.704 -0.0628  0.3573  0.0288
 2941TIP3    H130238   3.959   1.178  11.739  0.4830 -0.5250 -0.8822
 2941TIP3    H230239   3.953   1.297  11.646 -0.0301 -0.3327 -0.6033
 2942TIP3   OH230240   5.527   2.985  13.004 -0.1913 -0.0011  0.3739
 2942TIP3    H130241   5.443   2.955  12.969  0.8434 -2.2138 -0.3811
 2942TIP3    H230242   5.516   3.080  13.014 -2.3267 -0.0420 -0.9203
 2943TIP3   OH230243   0.716   0.717   3.267  0.5037  0.0426  0.0170
 2943TIP3    H130244   0.759   0.634   3.287  0.3625  0.3507  1.7070
 2943TIP3    H230245   0.782   0.784   3.286 -0.3670  0.4618  1.6525
 2944TIP3   OH230246   5.736   0.835   2.833 -0.0228 -0.0690  0.0478
 2944TIP3    H130247   5.691   0.904   2.783 -0.2981 -0.4478 -0.2323
 2944TIP3    H230248   5.820   0.823   2.789 -0.5957 -0.9739 -0.8342
 2945TIP3   OH230249   6.362   4.724   1.237  0.5078  0.0457 -0.1456
 2945TIP3    H130250   6.368   4.818   1.254 -2.2609  0.7581 -2.3529
 2945TIP3    H230251   6.309   4.717   1.158 -0.0059 -3.4283  0.3415
 2946TIP3   OH230252   5.280   4.084   2.234  0.1402 -0.1520 -0.0001
 2946TIP3    H130253   5.207   4.140   2.260 -1.7889 -1.7282 -1.6569
 2946TIP3    H230254   5.336   4.141   2.181 -0.6831  0.7247  0.0456
 2947TIP3   OH230255   3.336   0.684   3.787  0.0155  0.4064  0.2329
 2947TIP3    H130256   3.395   0.749   3.748 -0.6483  1.7220  1.3387
 2947TIP3    H230257   3.368   0.674   3.876 -0.5069 -0.0244  0.3746
 2948TIP3   OH230258   5.915   4.115  15.094  0.1911 -0.8860 -0.1372
 2948TIP3    H130259   5.854   4.099  15.166  0.6690  1.5940  0.9368
 2948TIP3    H230260   5.859   4.133  15.019 -0.3859 -0.6186  0.3416
 2949TIP3   OH230261   5.419   4.521  11.136  0.1018 -0.0354 -0.3298
 2949TIP3    H130262   5.324   4.528  11.142  0.1466  0.4068 -0.0842
 2949TIP3    H230263   5.436   4.428  11.127 -0.1650 -0.5730  3.1849
 2950TIP3   OH230264   2.860   2.358  12.810  0.7145  0.0892  0.4564
 2950TIP3    H130265   2.897   2.307  12.882 -0.7926  0.8793  1.8457
 2950TIP3    H230266   2.857   2.448  12.843  0.7613  0.6179 -0.9136
 2951TIP3   OH230267   4.216   3.444   1.196  0.0869 -0.8908 -0.0312
 2951TIP3    H130268   4.151   3.513   1.213  2.2146  1.0785  0.7191
 2951TIP3    H230269   4.203   3.421   1.104  0.6288  2.1517 -1.0132
 2952TIP3   OH230270   0.800   6.804   0.278  0.6190 -0.2286  0.0273
 2952TIP3    H130271   0.726   6.864   0.289 -0.1100 -1.0291 -0.4161
 2952TIP3    H230272   0.840   6.831   0.195  1.5962  0.9926  0.8550
 2953TIP3   OH230273   6.419   1.192  13.738 -0.0653 -0.1563  0.1896
 2953TIP3    H130274   6.445   1.267  13.790 -2.2014  0.1124  0.9601
 2953TIP3    H230275   6.457   1.208  13.651  0.3558  1.2869  0.6204
 2954TIP3   OH230276   0.858   2.858  16.307  0.7392  1.1197  0.4127
 2954TIP3    H130277   0.826   2.855  16.216  1.4335  1.0782  0.1612
 2954TIP3    H230278   0.840   2.948  16.336 -1.0080  0.6703  0.8140
 2955TIP3   OH230279   3.602   1.649   5.696 -0.7453 -0.0555  0.4580
 2955TIP3    H130280   3.685   1.654   5.648 -1.2462 -1.7528 -0.6497
 2955TIP3    H230281   3.612   1.714   5.766  1.7198 -0.5201  0.6580
 2956TIP3   OH230282   3.958   0.386   3.478  0.0292  0.2995  0.4326
 2956TIP3    H130283   3.985   0.403   3.569 -3.8485  1.3502  1.5872
 2956TIP3    H230284   3.926   0.296   3.479 -0.9945  0.6548  0.4124
 2957TIP3   OH230285   4.153   0.107  12.646 -0.2423 -0.4932  0.3024
 2957TIP3    H130286   4.164   0.049  12.571 -1.4721  0.0268 -0.3204
 2957TIP3    H230287   4.074   0.074  12.690  0.8007 -1.1726  1.7511
 2958TIP3   OH230288   1.889   0.938  17.045 -0.6978 -0.4523 -0.0952
 2958TIP3    H130289   1.804   0.932  17.002 -0.0168 -1.9396 -1.3016
 2958TIP3    H230290   1.920   1.027  17.025 -1.6219 -0.1621 -0.2778
 2959TIP3   OH230291   3.121   0.331  11.720 -0.0694 -0.3189  0.3700
 2959TIP3    H130292   3.043   0.367  11.763  0.8012  0.9462  0.9410
 2959TIP3    H230293   3.087   0.263  11.662 -1.8910  1.8594 -1.2713
 2960TIP3   OH230294   0.191   3.116   1.963  0.2328 -0.0116 -0.0244
 2960TIP3    H130295   0.245   3.094   1.887 -3.0237  0.8926 -2.8413
 2960TIP3    H230296   0.129   3.043   1.971  0.6711 -0.2386  2.0487
 2961TIP3   OH230297   6.652   3.808  10.959  0.2460  0.4366 -0.2364
 2961TIP3    H130298   6.631   3.893  10.921 -1.3399  0.8157  1.3357
 2961TIP3    H230299   6.584   3.750  10.926  1.2609 -0.2300 -1.2184
 2962TIP3   OH230300   1.903   1.788   5.105 -0.1926 -0.7642 -0.0514
 2962TIP3    H130301   1.853   1.814   5.182 -0.7857  1.2612 -1.0530
 2962TIP3    H230302   1.978   1.848   5.104 -0.4195 -0.4742 -1.2649
 2963TIP3   OH230303   3.470   4.558   4.006 -0.0840  0.4470  0.7460
 2963TIP3    H130304   3.423   4.509   3.939 -2.1416  1.4274  1.3957
 2963TIP3    H230305   3.485   4.494   4.076 -2.6039  0.5829  1.5209
 2964TIP3   OH230306   3.435   6.613   4.518 -0.1014 -0.0845 -0.7633
 2964TIP3    H130307   3.348   6.603   4.555 -0.1940  1.0450 -0.6268
 2964TIP3    H230308   3.434   6.559   4.439  0.1842 -2.7379  0.9364
 2965TIP3   OH230309   6.674   0.127   4.933 -0.0694  1.0493 -0.2034
 2965TIP3    H130310   6.673   0.092   4.844  2.9796  0.1702  0.0219
 2965TIP3    H230311   6.622   0.208   4.927 -1.3261  0.1685 -2.3511
 2966TIP3   OH230312   3.562   3.730   6.030  0.2720 -0.7204  0.5996
 2966TIP3    H130313   3.647   3.774   6.022 -0.3269  0.3683 -0.0036
 2966TIP3    H230314   3.584   3.637   6.039  1.4735 -0.7033 -1.5821
 2967TIP3   OH230315   2.760   6.769  14.911 -0.1404  0.1546 -0.3382
 2967TIP3    H130316   2.676   6.735  14.944  0.2953  1.1288  1.9647
 2967TIP3    H230317   2.746   6.863  14.905  0.1777  0.1242 -1.9864
 2968TIP3   OH230318   3.498   1.276  16.648 -0.2844 -0.1802 -0.0274
 2968TIP3    H130319   3.519   1.189  16.683 -1.0455 -0.3040  0.1604
 2968TIP3    H230320   3.562   1.335  16.687  0.6147 -0.7379 -0.6139
 2969TIP3   OH230321   4.484   6.090  13.638 -0.1781  0.0563  0.4011
 2969TIP3    H130322   4.490   6.117  13.730 -0.4102  0.6863  0.2412
 2969TIP3    H230323   4.560   6.035  13.624 -1.0191 -1.4531  1.4174
 2970TIP3   OH230324   2.894   0.121   4.861  0.5067  0.1842 -0.1905
 2970TIP3    H130325   2.812   0.138   4.816  0.2535  0.8474  0.5060
 2970TIP3    H230326   2.914   0.202   4.908  0.9754 -0.3393  0.5481
 2971TIP3   OH230327   4.098   6.208  14.639  0.3158 -0.2693 -0.0536
 2971TIP3    H130328   4.087   6.116  14.618 -0.0113  0.4661 -3.7472
 2971TIP3    H230329   4.011   6.247  14.627  0.8709  0.8310 -0.7550
 2972TIP3   OH230330   5.914   4.816  15.287  0.0834  0.4183 -0.2964
 2972TIP3    H130331   5.867   4.733  15.277  1.9423 -0.8021  0.4762
 2972TIP3    H230332   5.848   4.883  15.273 -1.3298 -1.1855 -1.6899
 2973TIP3   OH230333   4.444   4.152   1.754  0.3099  0.4322 -0.5190
 2973TIP3    H130334   4.519   4.139   1.813  0.0239 -0.5343 -0.3461
 2973TIP3    H230335   4.379   4.197   1.807  0.5183  0.6809 -0.4710
 2974TIP3   OH230336   5.778   5.870   4.818 -0.3927  0.4929  0.5574
 2974TIP3    H130337   5.758   5.847   4.909 -1.4556  1.5768  0.6179
 2974TIP3    H230338   5.765   5.965   4.814  0.2813  0.5521 -0.5736
 2975TIP3   OH230339   5.615   5.605  11.079 -0.0923  0.1873 -0.4191
 2975TIP3    H130340   5.580   5.637  11.162  0.1162 -0.4679 -0.0717
 2975TIP3    H230341   5.595   5.674  11.016  0.7035  1.1710  0.3791
 2976TIP3   OH230342   0.831   5.491  16.822  0.0920  0.3397 -0.5630
 2976TIP3    H130343   0.914   5.453  16.847 -0.0834  0.5949  0.4432
 2976TIP3    H230344   0.782   5.419  16.782  0.0605 -0.2957  0.6017
 2977TIP3   OH230345   1.035   4.020  15.915 -0.7992  0.2644  0.4512
 2977TIP3    H130346   1.081   4.055  15.991 -2.2541  0.3936  1.3059
 2977TIP3    H230347   1.078   4.060  15.840  0.2007  0.6957  1.2334
 2978TIP3   OH230348   4.689   3.338   4.451  0.3897  0.3176  0.4502
 2978TIP3    H130349   4.606   3.334   4.498 -0.4924  0.9623 -0.9924
 2978TIP3    H230350   4.666   3.370   4.364  2.0752 -0.0723 -0.1783
 2979TIP3   OH230351   3.202   4.190  15.929 -0.3301  0.0356 -0.0463
 2979TIP3    H130352   3.262   4.229  15.993  0.6495  0.8007 -1.3983
 2979TIP3    H230353   3.115   4.223  15.954 -0.4967 -2.1286  2.7529
 2980TIP3   OH230354   0.768   4.356   2.111  0.0514  0.0639  0.7346
 2980TIP3    H130355   0.850   4.321   2.076  1.0477  0.9648  2.1120
 2980TIP3    H230356   0.756   4.440   2.067 -1.4842 -1.1364 -1.3287
 2981TIP3   OH230357   3.230   4.619  13.443 -0.4561 -0.3321  0.3845
 2981TIP3    H130358   3.161   4.601  13.379  0.9108 -1.0807 -0.9463
 2981TIP3    H230359   3.183   4.643  13.523 -2.2465  2.0456 -1.2314
 2982TIP3   OH230360   2.525   5.132  13.629  0.4341  0.0448  0.5939
 2982TIP3    H130361   2.466   5.205  13.610 -0.6366 -0.9070  0.1405
 2982TIP3    H230362   2.522   5.122  13.724 -0.1264  0.0225  0.5783
 2983TIP3   OH230363   4.171   5.798  13.432 -0.2889  0.4627  0.0137
 2983TIP3    H130364   4.159   5.743  13.509 -2.0952  0.8790  0.0584
 2983TIP3    H230365   4.217   5.875  13.465  0.2178  0.0214  0.3741
 2984TIP3   OH230366   0.588   0.170  11.100 -0.4489  0.4955 -0.1730
 2984TIP3    H130367   0.582   0.227  11.177 -0.4894  0.8576 -0.4443
 2984TIP3    H230368   0.633   0.223  11.034  0.2804 -0.0773 -0.1488
 2985TIP3   OH230369   0.123   6.731  15.243  0.3212  0.2955 -0.1898
 2985TIP3    H130370   0.098   6.816  15.279  0.2846  0.5537 -0.8159
 2985TIP3    H230371   0.046   6.703  15.192  0.6526  0.2928 -0.6982
 2986TIP3   OH230372   0.515   2.495   0.441 -0.3334  0.2255  0.6839
 2986TIP3    H130373   0.420   2.488   0.427 -0.2156 -0.5049  0.1702
 2986TIP3    H230374   0.535   2.587   0.422 -0.9285  0.3718  0.7397
 2987TIP3   OH230375   1.323   1.686   5.672 -0.2301  0.6228  0.0369
 2987TIP3    H130376   1.251   1.630   5.644  0.0641 -0.2138  0.9036
 2987TIP3    H230377   1.292   1.775   5.654 -2.1903  0.4063  1.8406
 2988TIP3   OH230378   0.857   5.058   0.085 -0.4960 -0.2881  0.1079
 2988TIP3    H130379   0.922   4.999   0.125 -0.1827 -0.0350 -0.0257
 2988TIP3    H230380   0.822   5.108   0.159  0.8610  0.9448 -0.0573
 2989TIP3   OH230381   6.534   4.785   0.275 -0.3724  0.1175 -0.6352
 2989TIP3    H130382   6.577   4.861   0.315 -0.6153 -0.0823  0.0180
 2989TIP3    H230383   6.591   4.761   0.203  0.1054  0.4579 -0.3787
 2990TIP3   OH230384   0.837   4.549   3.916 -0.7089 -0.3757  0.5871
 2990TIP3    H130385   0.838   4.504   3.832  0.1287 -0.3134  0.5567
 2990TIP3    H230386   0.774   4.620   3.904  1.6078  1.5737 -1.0515
 2991TIP3   OH230387   1.839   6.017   2.227 -0.5258 -0.2040  1.1517
 2991TIP3    H130388   1.775   5.976   2.285 -0.0912 -1.9210  0.4875
 2991TIP3    H230389   1.786   6.054   2.156 -0.8329 -1.1595  0.8711
 2992TIP3   OH230390   0.112   1.845  15.683  0.1811  0.2509  1.0171
 2992TIP3    H130391   0.032   1.800  15.710 -1.0764  2.3733  1.1353
 2992TIP3    H230392   0.116   1.922  15.740  0.9294  1.5111 -0.6448
 2993TIP3   OH230393   2.049   1.651  16.000 -0.0058 -0.0229 -0.1300
 2993TIP3    H130394   2.133   1.627  15.961 -0.2422 -3.0896  0.9919
 2993TIP3    H230395   1.986   1.593  15.957 -1.1579  0.4690  0.8443
 2994TIP3   OH230396   2.061   0.416   1.366  0.1086  0.0049  0.3244
 2994TIP3    H130397   2.108   0.346   1.411 -2.6454 -1.1872  1.5233
 2994TIP3    H230398   2.067   0.491   1.426  0.0560 -0.2971  0.7134
 2995TIP3   OH230399   4.809   5.348  14.095  0.2533  0.0567 -0.0954
 2995TIP3    H130400   4.747   5.420  14.081  0.7829  0.3899 -0.7708
 2995TIP3    H230401   4.777   5.304  14.173  0.1406  1.2480  0.5494
 2996TIP3   OH230402   4.617   1.635  11.124 -0.4365  0.1484  0.5715
 2996TIP3    H130403   4.698   1.685  11.117 -0.8656  0.7916  0.1149
 2996TIP3    H230404   4.608   1.591  11.039  0.3352 -1.3576  1.2217
 2997TIP3   OH230405   5.694   3.213  15.515  0.1620  0.1462 -0.1901
 2997TIP3    H130406   5.651   3.256  15.441  2.1177  2.9913  0.1775
 2997TIP3    H230407   5.638   3.138  15.535 -0.1938 -1.1349 -4.8404
 2998TIP3   OH230408   1.625   3.215  11.272 -0.2182 -0.1363 -0.3537
 2998TIP3    H130409   1.640   3.198  11.179  0.6743 -2.0885  0.0936
 2998TIP3    H230410   1.624   3.128  11.312 -1.3667  0.6193  1.3718
 2999TIP3   OH230411   3.311   3.697   0.631  0.0411  0.3549 -0.1097
 2999TIP3    H130412   3.323   3.619   0.576 -1.1293  0.3448 -0.3887
 2999TIP3    H230413   3.391   3.748   0.618 -0.2163  0.3911 -1.9113
 3000TIP3   OH230414   2.609   2.974  15.592  0.0418 -0.1543 -0.0594
 3000TIP3    H130415   2.569   2.937  15.513  0.1445  0.0702 -0.2191
 3000TIP3    H230416   2.553   2.944  15.664 -1.0970  1.0878 -0.3784
 3001TIP3   OH230417   0.721   5.785  12.314  0.4468 -0.4223  0.3823
 3001TIP3    H130418   0.675   5.845  12.373  0.1466 -0.1114 -0.1606
 3001TIP3    H230419   0.652   5.728  12.281  0.4321  0.0611 -0.4549
 3002TIP3   OH230420   1.607   3.680  11.826  0.3782  0.3064 -0.2681
 3002TIP3    H130421   1.630   3.593  11.795  1.4363  0.6139 -0.3579
 3002TIP3    H230422   1.632   3.739  11.755  0.5788  0.7796  0.1885
 3003TIP3   OH230423   0.051   1.902  11.756  0.0209  0.2091 -0.6582
 3003TIP3    H130424  -0.012   1.971  11.777  0.8992  0.3234  1.9749
 3003TIP3    H230425   0.005   1.844  11.695 -1.0957  2.5168 -2.1179
 3004TIP3   OH230426   2.561   0.710   2.988  0.0984 -0.1686  0.4714
 3004TIP3    H130427   2.635   0.683   2.933  0.7000  0.7692  0.7908
 3004TIP3    H230428   2.546   0.801   2.963 -0.4910 -0.1435  0.9235
 3005TIP3   OH230429   6.136   3.251  13.159 -0.0101  0.3285  0.1084
 3005TIP3    H130430   6.179   3.331  13.188  2.3463 -0.3229 -1.3796
 3005TIP3    H230431   6.178   3.229  13.076 -2.2246 -1.2091 -0.7120
 3006TIP3   OH230432   3.069   5.011  16.021 -0.4903  0.0938 -0.5504
 3006TIP3    H130433   3.090   4.982  15.932 -2.4860 -0.7496 -0.7841
 3006TIP3    H230434   3.005   5.081  16.009 -1.3490 -0.5398  0.2389
 3007TIP3   OH230435   1.605   5.608  16.473 -0.1598  0.0060 -0.0265
 3007TIP3    H130436   1.515   5.608  16.440 -0.3857  0.7036  0.5742
 3007TIP3    H230437   1.634   5.517  16.463  0.0305  0.2690 -2.7774
 3008TIP3   OH230438   5.703   6.525   4.140  0.3490 -0.1730 -0.4007
 3008TIP3    H130439   5.793   6.513   4.169 -0.7348 -0.0554  3.5429
 3008TIP3    H230440   5.651   6.466   4.194 -2.0034 -0.6083 -2.8564
 3009TIP3   OH230441   1.572   2.165  11.716  0.2817 -0.2001  0.0781
 3009TIP3    H130442   1.647   2.207  11.674  0.6519  1.4341  2.1898
 3009TIP3    H230443   1.496   2.197  11.667  0.7915  0.3294 -0.3852
 3010TIP3   OH230444   3.812   3.012   0.246  0.0223  0.0020 -0.1722
 3010TIP3    H130445   3.851   2.930   0.276  0.6833  0.2548 -0.3342
 3010TIP3    H230446   3.765   2.988   0.166  0.9708 -0.0501 -0.7273
 3011TIP3   OH230447   4.844   0.637   1.227  0.2564  0.4364  0.2891
 3011TIP3    H130448   4.810   0.642   1.137 -0.6731 -0.1925  0.5871
 3011TIP3    H230449   4.767   0.652   1.282  1.2050  3.1962  1.0228
 3012TIP3   OH230450   2.457   4.540   3.262  0.4712  0.5876 -0.5413
 3012TIP3    H130451   2.377   4.587   3.237 -0.2044 -0.5145 -0.5261
 3012TIP3    H230452   2.514   4.548   3.185  0.2064  1.0618 -0.6958
 3013TIP3   OH230453   1.817   3.679   2.662 -0.4937  0.0003  0.2862
 3013TIP3    H130454   1.756   3.607   2.680 -0.0019 -0.6756 -0.6831
 3013TIP3    H230455   1.862   3.693   2.745  1.1264 -2.4595 -0.0808
 3014TIP3   OH230456   1.455   6.158   3.149  0.4569 -0.2357 -0.5015
 3014TIP3    H130457   1.387   6.223   3.130 -0.7202 -1.4706 -0.6592
 3014TIP3    H230458   1.426   6.080   3.102  1.5203 -1.0693  0.2039
 3015TIP3   OH230459   1.997   4.749   1.632 -0.3851 -0.7813 -0.1895
 3015TIP3    H130460   2.004   4.715   1.721  2.2051  1.4961  0.6166
 3015TIP3    H230461   2.032   4.838   1.637 -1.1012 -0.1985 -3.3089
 3016TIP3   OH230462   5.285   3.136   1.617 -0.5850 -0.2051  0.0566
 3016TIP3    H130463   5.258   3.066   1.557 -2.2006  0.5678 -0.1434
 3016TIP3    H230464   5.213   3.199   1.616  1.0382  1.7600 -0.1792
 3017TIP3   OH230465   2.443   2.984  13.339 -0.8773  0.1950  0.6990
 3017TIP3    H130466   2.390   3.043  13.393 -0.0166  0.9600  0.7336
 3017TIP3    H230467   2.488   2.928  13.402 -0.9202  0.1735  0.7108
 3018TIP3   OH230468   4.220   3.279  16.543 -0.6211  0.1866  0.0226
 3018TIP3    H130469   4.285   3.287  16.614  0.0265 -0.2231 -0.5153
 3018TIP3    H230470   4.169   3.360  16.549  0.1991  0.7059  0.1948
 3019TIP3   OH230471   0.516   4.170  14.975 -0.4552 -0.1096  0.7207
 3019TIP3    H130472   0.610   4.162  14.991  0.1033  1.5985 -1.2349
 3019TIP3    H230473   0.487   4.237  15.037  0.5248  2.3454 -1.3191
 3020TIP3   OH230474   2.884   6.765  16.171  0.2241  0.0339 -0.1780
 3020TIP3    H130475   2.905   6.726  16.086  1.8523 -1.4235  0.8146
 3020TIP3    H230476   2.905   6.858  16.162  0.6954 -0.1710 -1.2643
 3021TIP3   OH230477   4.609   2.081   3.325 -0.0377  0.2064 -0.1745
 3021TIP3    H130478   4.531   2.129   3.299 -0.8963 -0.7210  0.5597
 3021TIP3    H230479   4.655   2.139   3.386  0.0848  0.9232 -0.9320
 3022TIP3   OH230480   2.968   2.624   5.570 -0.0910  0.2717 -0.9963
 3022TIP3    H130481   2.967   2.720   5.566  1.0649  0.2999 -0.9096
 3022TIP3    H230482   3.019   2.604   5.648 -0.5715 -0.4185 -0.8540
 3023TIP3   OH230483   2.901   4.202  10.316  0.3051 -0.5381  0.1620
 3023TIP3    H130484   2.970   4.263  10.291 -0.0971  1.0254  2.5428
 3023TIP3    H230485   2.846   4.251  10.377 -0.8667 -2.8229  1.0729
 3024TIP3   OH230486   5.396   1.012  16.601  0.6986  0.0237 -0.4212
 3024TIP3    H130487   5.397   1.023  16.506  2.8417 -0.0739 -0.4502
 3024TIP3    H230488   5.451   0.936  16.617 -1.1521 -1.1201  0.8181
 3025TIP3   OH230489   0.841   4.195  14.984  0.6860  0.0362  0.7747
 3025TIP3    H130490   0.918   4.249  14.965 -0.1070  1.0762  0.3736
 3025TIP3    H230491   0.784   4.252  15.037 -0.8173  0.1468 -0.8713
 3026TIP3   OH230492   6.678   0.800   5.495 -0.2546 -0.2275 -0.4944
 3026TIP3    H130493   6.749   0.764   5.549  1.0277  1.4401 -1.0022
 3026TIP3    H230494   6.714   0.802   5.407 -0.6781  1.2485 -0.6561
 3027TIP3   OH230495   4.598   4.166   6.685  0.5713 -0.4163 -0.3763
 3027TIP3    H130496   4.504   4.180   6.680  0.3095 -0.3023  2.7801
 3027TIP3    H230497   4.636   4.251   6.665 -0.0330 -0.2004 -0.6288
 3028TIP3   OH230498   3.277   6.280   2.739 -0.3665  0.4123  0.0485
 3028TIP3    H130499   3.298   6.275   2.832 -1.3229  1.0215  0.3144
 3028TIP3    H230500   3.301   6.369   2.713  3.8974 -0.9175 -1.3678
 3029TIP3   OH230501   0.926   6.126  12.521  0.2242 -0.4360  0.1845
 3029TIP3    H130502   0.972   6.165  12.446 -0.7739  1.5236  0.5247
 3029TIP3    H230503   0.898   6.201  12.573 -2.1011 -1.5910  0.7271
 3030TIP3   OH230504   4.801   0.988   1.029  0.0867 -0.0650 -0.4041
 3030TIP3    H130505   4.743   0.943   1.090  0.1674  0.3936  0.0280
 3030TIP3    H230506   4.826   1.069   1.076 -1.0104  1.0222 -1.6286
 3031TIP3   OH230507   4.537   4.887   3.771  0.2083  0.5526  0.0346
 3031TIP3    H130508   4.472   4.914   3.835  0.1255  2.8328 -0.9001
 3031TIP3    H230509   4.621   4.914   3.808  0.2809  0.7288 -0.2515
 3032TIP3   OH230510   5.608   3.748  12.792  0.4111  0.5915 -0.3514
 3032TIP3    H130511   5.546   3.792  12.734 -1.1961  1.8516  2.1784
 3032TIP3    H230512   5.692   3.755  12.746 -0.8654  0.8743 -2.8134
 3033TIP3   OH230513   4.298   2.521   4.957  0.1453  0.0632 -0.0891
 3033TIP3    H130514   4.391   2.523   4.981  0.4655 -0.4097 -1.2045
 3033TIP3    H230515   4.260   2.597   5.001  0.8391 -0.3023  1.2133
 3034TIP3   OH230516   1.216   0.680   1.093 -0.2412 -0.5428 -0.2790
 3034TIP3    H130517   1.151   0.638   1.037  2.3928 -1.2743 -3.0317
 3034TIP3    H230518   1.208   0.774   1.074 -0.0542 -0.6977 -1.1634
 3035TIP3   OH230519   5.129   5.527   4.351  0.3466 -0.7862  0.1582
 3035TIP3    H130520   5.145   5.602   4.408 -1.8386  0.8816 -1.2535
 3035TIP3    H230521   5.060   5.477   4.395  0.8139 -1.2152  0.4168
 3036TIP3   OH230522   2.877   3.540  11.239  0.6062 -0.4888  0.4279
 3036TIP3    H130523   2.802   3.531  11.299  1.4153 -0.0940  1.5431
 3036TIP3    H230524   2.837   3.561  11.155 -0.5714 -0.9318  0.8397
 3037TIP3   OH230525   5.507   0.855  15.919 -0.0809 -0.1502 -0.1516
 3037TIP3    H130526   5.428   0.894  15.956  0.8494  0.7762  0.9319
 3037TIP3    H230527   5.523   0.906  15.839  1.5865  2.4326  1.6646
 3038TIP3   OH230528   2.392   5.377  15.255 -0.5929 -0.4771  0.8887
 3038TIP3    H130529   2.370   5.285  15.272  0.4610 -1.0738 -0.7363
 3038TIP3    H230530   2.376   5.389  15.161 -0.4281  0.9312  1.0183
 3039TIP3   OH230531   2.505   4.424  16.102 -0.0391 -0.1442 -0.4856
 3039TIP3    H130532   2.470   4.471  16.025  0.3012 -0.6032 -0.9287
 3039TIP3    H230533   2.571   4.483  16.138  1.6893 -0.9829 -2.1008
 3040TIP3   OH230534   5.431   5.409   5.144 -0.5393 -0.2626  0.0772
 3040TIP3    H130535   5.429   5.446   5.056  2.1231 -0.7966 -0.2854
 3040TIP3    H230536   5.491   5.465   5.193  1.5248 -2.4618  0.2431
 3041TIP3   OH230537   1.145   5.447   4.147 -0.2834  0.2952 -0.0882
 3041TIP3    H130538   1.161   5.354   4.130 -0.8963  0.2381 -0.3752
 3041TIP3    H230539   1.054   5.461   4.121 -0.5384  0.7287  1.0081
 3042TIP3   OH230540   4.659   4.220   5.486  0.5643 -0.0429 -0.2660
 3042TIP3    H130541   4.745   4.188   5.512  0.0940  0.0464  1.5196
 3042TIP3    H230542   4.663   4.314   5.500  0.2157 -0.0236 -0.2912
 3043TIP3   OH230543   0.332   2.319   3.832  0.1241 -0.0370 -0.2177
 3043TIP3    H130544   0.292   2.319   3.745 -2.0802 -1.3077  0.7093
 3043TIP3    H230545   0.259   2.301   3.892  1.4604  1.3115  1.9651
 3044TIP3   OH230546   0.759   4.342  15.960 -1.1055  0.2780  0.2506
 3044TIP3    H130547   0.697   4.355  16.032 -1.3508 -0.2877  0.1432
 3044TIP3    H230548   0.707   4.305  15.889 -0.1366 -3.4966  1.2541
 3045TIP3   OH230549   5.631   2.934  13.771  0.1212  0.0870  0.3998
 3045TIP3    H130550   5.635   2.839  13.767  0.2957  0.1153 -0.2298
 3045TIP3    H230551   5.565   2.958  13.706  0.0190  0.3907  0.6121
 3046TIP3   OH230552   1.356   2.647  14.460 -1.4050  0.0697  0.1925
 3046TIP3    H130553   1.278   2.660  14.406 -1.0295  0.2730 -0.3140
 3046TIP3    H230554   1.385   2.736  14.482 -1.3242 -0.0048  0.3921
 3047TIP3   OH230555   2.605   5.294  15.777  0.8228 -0.4504  0.3343
 3047TIP3    H130556   2.599   5.290  15.681 -1.3272  0.1585  0.3925
 3047TIP3    H230557   2.621   5.203  15.803  0.5284 -0.7886 -0.5816
 3048TIP3   OH230558   1.778   2.992  12.430  0.1384 -0.7319  0.2794
 3048TIP3    H130559   1.832   3.064  12.462 -0.7440  0.1444 -0.1734
 3048TIP3    H230560   1.737   3.025  12.350 -1.6795 -1.0895  1.0080
 3049TIP3   OH230561   6.091   2.829  14.853  0.2774 -0.3010  0.5518
 3049TIP3    H130562   6.059   2.918  14.866 -2.9816 -1.2418 -0.0486
 3049TIP3    H230563   6.057   2.779  14.927  2.6628 -0.9980  1.2764
 3050TIP3   OH230564   1.927   5.951   0.352  0.6784  0.4601  0.1396
 3050TIP3    H130565   1.869   5.912   0.418  0.1232  2.0351  0.6437
 3050TIP3    H230566   1.922   5.892   0.277  2.1619 -1.9931  1.8211
 3051TIP3   OH230567   3.929   4.985  11.387  0.5466 -0.0112  0.1534
 3051TIP3    H130568   3.879   5.044  11.331  0.2841 -1.2509 -0.9598
 3051TIP3    H230569   3.956   5.040  11.460  2.1004  2.0478 -1.8266
 3052TIP3   OH230570   5.277   3.297   5.574  0.1395 -0.2080  0.2073
 3052TIP3    H130571   5.269   3.248   5.493  1.2037 -1.4582  0.8316
 3052TIP3    H230572   5.370   3.296   5.595 -0.2393 -1.0487  2.0972
 3053TIP3   OH230573   0.871   2.471   4.659 -0.6395  0.0154 -0.1009
 3053TIP3    H130574   0.902   2.539   4.719  0.3032  0.0295 -0.5844
 3053TIP3    H230575   0.830   2.405   4.715 -1.9025  1.1343  0.3561
 3054TIP3   OH230576   6.598   6.223   2.318  0.3274 -0.1432  0.2320
 3054TIP3    H130577   6.545   6.297   2.350 -0.9204 -0.2853 -1.3746
 3054TIP3    H230578   6.676   6.225   2.372 -0.1851  1.6658  0.9956
 3055TIP3   OH230579   0.627   4.486  15.431 -0.0085 -0.9952  0.5698
 3055TIP3    H130580   0.674   4.558  15.390  0.2469 -1.2679  0.3795
 3055TIP3    H230581   0.585   4.525  15.507  0.7066 -0.7994  0.8691
 3056TIP3   OH230582   3.200   5.559   5.692  0.0803 -0.1604 -0.4157
 3056TIP3    H130583   3.123   5.546   5.747  0.7888  0.8381  0.8754
 3056TIP3    H230584   3.272   5.570   5.754  0.8264  1.5593 -1.5139
 3057TIP3   OH230585   0.181   2.183   1.595 -0.0861  0.4621 -0.3218
 3057TIP3    H130586   0.103   2.128   1.588 -0.1448  0.4036  0.6679
 3057TIP3    H230587   0.148   2.269   1.621  0.0747  0.7933 -1.1517
 3058TIP3   OH230588   2.385   5.740   1.210  0.0412 -0.2182 -0.1282
 3058TIP3    H130589   2.464   5.728   1.262  0.0898  1.6790  0.3132
 3058TIP3    H230590   2.315   5.755   1.274 -0.0888  1.1165 -0.5435
 3059TIP3   OH230591   1.713   1.529  15.926  0.7533  0.5171 -0.1687
 3059TIP3    H130592   1.779   1.543  15.858  0.7390 -0.7686 -0.4710
 3059TIP3    H230593   1.665   1.612  15.931  1.0238  0.7657 -1.4258
 3060TIP3   OH230594   1.008   0.035   0.898 -0.8379 -0.0275 -0.7603
 3060TIP3    H130595   1.091   0.022   0.945 -0.6547 -2.1618 -1.5601
 3060TIP3    H230596   1.013   0.126   0.866  0.1404  0.6401  1.1427
 3061TIP3   OH230597   6.759   5.102  10.591  0.1211  0.2394  0.2959
 3061TIP3    H130598   6.716   5.021  10.617 -0.1423 -0.1875 -1.3914
 3061TIP3    H230599   6.695   5.147  10.537  1.7574 -0.4792 -2.4162
 3062TIP3   OH230600   6.666   1.614   3.101  0.0281 -0.1169 -0.7514
 3062TIP3    H130601   6.638   1.682   3.040  0.0815 -0.8787 -1.6444
 3062TIP3    H230602   6.614   1.537   3.076 -0.4844 -0.2484  0.6336
 3063TIP3   OH230603   5.472   0.013   2.462 -0.1597  0.9398  0.1544
 3063TIP3    H130604   5.393   0.067   2.471 -0.0244  1.0918  0.4583
 3063TIP3    H230605   5.544   0.076   2.470  0.0050  1.1282 -2.0760
 3064TIP3   OH230606   0.984   0.627  16.328 -0.2271  0.2616 -0.3617
 3064TIP3    H130607   0.954   0.688  16.260 -1.0602 -0.1513 -0.3825
 3064TIP3    H230608   0.910   0.620  16.388  0.3586  0.3089  0.3760
 3065TIP3   OH230609   5.962   0.659  13.744  0.1591  0.0584  0.0822
 3065TIP3    H130610   5.977   0.703  13.660  0.5080  0.7417  0.4894
 3065TIP3    H230611   5.961   0.730  13.808  1.6839 -0.5958  0.8829
 3066TIP3   OH230612   1.165   3.255   0.452 -0.0414 -0.4084 -0.4953
 3066TIP3    H130613   1.088   3.260   0.508 -0.3609 -0.3677 -0.9284
 3066TIP3    H230614   1.210   3.175   0.478 -0.2226 -0.4217 -0.2270
 3067TIP3   OH230615   2.884   4.823  12.232 -0.3520 -0.0395  0.3043
 3067TIP3    H130616   2.809   4.872  12.266 -0.0130  1.3826 -0.8822
 3067TIP3    H230617   2.941   4.890  12.194  2.1132 -0.9284  2.1668
 3068TIP3   OH230618   2.344   1.864  15.048 -0.2700  0.0796  0.5820
 3068TIP3    H130619   2.400   1.843  15.123  1.1377  1.4300 -0.0266
 3068TIP3    H230620   2.403   1.908  14.987 -1.9814  1.4067 -0.1709
 3069TIP3   OH230621   1.765   1.294   1.581  0.2234 -0.7102  0.1559
 3069TIP3    H130622   1.689   1.351   1.573  0.8011  0.0322 -0.1308
 3069TIP3    H230623   1.740   1.229   1.647  0.3175  1.1208  2.0898
 3070TIP3   OH230624   0.592   6.005  16.907 -0.0645 -0.4997 -0.1782
 3070TIP3    H130625   0.636   5.985  16.825 -1.4537 -1.1022 -0.8108
 3070TIP3    H230626   0.646   5.965  16.974  1.6560  0.8906 -0.6679
 3071TIP3   OH230627   4.852   4.796   6.219 -0.2652 -0.2030  0.2576
 3071TIP3    H130628   4.885   4.886   6.209 -0.5324 -0.3095 -2.3232
 3071TIP3    H230629   4.930   4.745   6.244  0.3874  0.4157 -0.4437
 3072TIP3   OH230630   5.238   2.190   4.673  0.3503 -0.0109 -0.4547
 3072TIP3    H130631   5.162   2.159   4.624  0.2185  0.6567 -0.6890
 3072TIP3    H230632   5.205   2.210   4.760  0.0307  1.1634 -0.8149
 3073TIP3   OH230633   3.985   3.380  12.810  0.7386  0.0479  0.1691
 3073TIP3    H130634   3.991   3.287  12.834 -0.0490 -0.3494 -1.0830
 3073TIP3    H230635   4.026   3.385  12.724 -0.1537  0.6557 -0.2375
 3074TIP3   OH230636   4.528   0.517   6.347  0.0071  0.2418 -0.3552
 3074TIP3    H130637   4.595   0.586   6.349  0.7120 -0.4528  0.9574
 3074TIP3    H230638   4.449   0.563   6.318  1.0452  1.0568 -2.0590
 3075TIP3   OH230639   6.115   3.469  12.430  0.2766  0.4209  0.7326
 3075TIP3    H130640   6.128   3.520  12.510  1.8145  1.0647  0.1143
 3075TIP3    H230641   6.075   3.388  12.460 -0.5829  1.2518  1.9615
 3076TIP3   OH230642   4.612   4.286  14.070 -0.4907  0.0600 -0.2121
 3076TIP3    H130643   4.600   4.367  14.021 -3.3038 -1.1189 -1.7732
 3076TIP3    H230644   4.636   4.314  14.158 -1.1185  2.5833 -0.7590
 3077TIP3   OH230645   3.324   3.770   5.185 -0.0400  0.1072 -0.1335
 3077TIP3    H130646   3.354   3.680   5.177  1.3084  0.6765 -2.9196
 3077TIP3    H230647   3.323   3.787   5.279  1.1093 -2.3357  0.4053
 3078TIP3   OH230648   5.735   1.689   4.817  0.5983  0.5076 -0.2599
 3078TIP3    H130649   5.815   1.726   4.854  1.9250 -0.4125 -2.0350
 3078TIP3    H230650   5.728   1.728   4.730  0.3259 -0.9821 -0.9525
 3079TIP3   OH230651   1.581   5.554   5.867 -0.1667  0.6013  0.1373
 3079TIP3    H130652   1.541   5.620   5.924  1.1010  2.3660 -0.8885
 3079TIP3    H230653   1.657   5.523   5.916 -1.9548 -1.8431  1.5636
 3080TIP3   OH230654   3.184   3.218  13.076  0.5213  0.5160 -0.6083
 3080TIP3    H130655   3.144   3.180  12.998 -1.0282  0.5964  0.1035
 3080TIP3    H230656   3.156   3.161  13.147 -1.0721  2.3628  0.3519
 3081TIP3   OH230657   4.888   2.047  14.327 -0.2115  0.5316 -0.0093
 3081TIP3    H130658   4.909   2.027  14.418  0.2723 -0.2915 -0.3000
 3081TIP3    H230659   4.868   1.963  14.287 -1.2033  0.9719 -0.4793
 3082TIP3   OH230660   2.896   4.528   2.719 -0.7438 -0.0102 -0.7318
 3082TIP3    H130661   2.949   4.584   2.776 -1.5533 -0.2113  0.2466
 3082TIP3    H230662   2.899   4.442   2.760 -1.1910 -0.2001 -1.0874
 3083TIP3   OH230663   3.461   2.169  13.929  0.3142 -0.2448  0.4891
 3083TIP3    H130664   3.508   2.108  13.873 -0.8315  0.1165 -0.9513
 3083TIP3    H230665   3.527   2.204  13.988  1.6182 -0.5718 -0.7165
 3084TIP3   OH230666   1.729   1.228  13.114 -0.1957  0.4078 -0.3644
 3084TIP3    H130667   1.676   1.273  13.049  1.1182  1.2368 -0.9177
 3084TIP3    H230668   1.799   1.290  13.135  0.8644 -0.8202 -0.0793
 3085TIP3   OH230669   1.276   5.737  15.579  0.0789  0.7762 -0.4037
 3085TIP3    H130670   1.319   5.813  15.618  0.5475 -0.2638  1.1768
 3085TIP3    H230671   1.342   5.668  15.581  0.6217  0.9548 -4.3448
 3086TIP3   OH230672   4.768   5.512  16.151 -0.3174  0.4589  0.0040
 3086TIP3    H130673   4.829   5.585  16.136 -0.2352  0.2728 -0.5797
 3086TIP3    H230674   4.792   5.479  16.238  1.8330 -0.9307 -1.0177
 3087TIP3   OH230675   6.744   0.590   0.170 -0.5152 -0.0010 -0.0588
 3087TIP3    H130676   6.665   0.596   0.117  1.4119 -0.0165 -3.1458
 3087TIP3    H230677   6.768   0.681   0.188  0.1863  0.1318 -1.5054
 3088TIP3   OH230678   1.110   4.285  12.189 -0.5742  0.5463 -0.4161
 3088TIP3    H130679   1.111   4.309  12.096 -1.0520 -1.0196 -0.8689
 3088TIP3    H230680   1.197   4.248  12.204  0.0067  2.0933  0.1568
 3089TIP3   OH230681   4.403   6.187   5.231  0.1764  0.1042 -0.2479
 3089TIP3    H130682   4.432   6.265   5.183  0.5240  0.7814  1.0241
 3089TIP3    H230683   4.396   6.120   5.164 -0.0812  1.2136 -1.3746
 3090TIP3   OH230684   6.157   5.984   5.195 -0.1259 -0.3961  0.5046
 3090TIP3    H130685   6.143   5.915   5.131  0.5148 -1.0542  1.0588
 3090TIP3    H230686   6.247   5.972   5.225 -0.6573 -0.6437  2.1408
 3091TIP3   OH230687   0.727   3.639   0.917 -0.3429 -0.2332  0.1645
 3091TIP3    H130688   0.814   3.603   0.935 -0.6321 -0.2744  1.5700
 3091TIP3    H230689   0.715   3.707   0.983 -1.2945 -0.0750 -0.1556
 3092TIP3   OH230690   5.691   2.068  14.741  0.1179  0.1811  0.0650
 3092TIP3    H130691   5.696   2.163  14.727  0.8031  0.1478  0.0392
 3092TIP3    H230692   5.756   2.050  14.809 -0.2524 -0.2250  0.3147
 3093TIP3   OH230693   5.587   5.785   1.223  0.3386  0.1317  0.3977
 3093TIP3    H130694   5.650   5.713   1.227  2.6064  1.9524 -0.5673
 3093TIP3    H230695   5.568   5.794   1.130 -1.4881 -0.4350  0.6814
 3094TIP3   OH230696   5.912   4.921   5.483 -0.2462 -0.0525  0.3919
 3094TIP3    H130697   5.885   4.959   5.566 -0.2969 -1.0819  0.8621
 3094TIP3    H230698   5.903   4.827   5.495 -1.1260 -0.1910 -1.0828
 3095TIP3   OH230699   1.840   1.795  13.058  0.3146  0.0689 -0.1346
 3095TIP3    H130700   1.907   1.729  13.077  0.0301 -0.2224 -0.1306
 3095TIP3    H230701   1.873   1.843  12.983  0.9342  0.4959  0.4001
 3096TIP3   OH230702   0.491   4.435   0.730 -0.4126 -0.3280  0.7167
 3096TIP3    H130703   0.531   4.502   0.675  0.8240  0.4291  2.4242
 3096TIP3    H230704   0.514   4.352   0.689 -0.9221  0.2258 -0.7560
 3097TIP3   OH230705   2.137   0.735   2.033 -0.0860  0.2780  0.5592
 3097TIP3    H130706   2.213   0.792   2.032  0.0010  0.1515 -0.2801
 3097TIP3    H230707   2.063   0.793   2.014  0.0340  0.0745 -0.5648
 3098TIP3   OH230708   5.022   2.119  11.302  0.6532 -0.1067 -0.0479
 3098TIP3    H130709   4.979   2.034  11.313 -0.6969  0.3973 -1.2689
 3098TIP3    H230710   5.097   2.100  11.245 -0.9460 -0.1432 -2.2518
 3099TIP3   OH230711   0.398   4.267  16.662 -0.0675  0.0357 -0.2254
 3099TIP3    H130712   0.480   4.288  16.706 -0.1140  1.4387 -0.7600
 3099TIP3    H230713   0.330   4.307  16.718 -0.3217 -0.3459 -0.2551
 3100TIP3   OH230714   5.836   4.044  13.324 -0.3938 -0.3255 -0.6418
 3100TIP3    H130715   5.857   4.008  13.238  0.6729  0.8701 -0.9323
 3100TIP3    H230716   5.741   4.046  13.328 -0.5439  1.7101 -2.7985
 3101TIP3   OH230717   3.721   5.573   1.863 -0.0616  0.1354  0.3828
 3101TIP3    H130718   3.641   5.560   1.913 -0.7242  4.2345  0.7283
 3101TIP3    H230719   3.691   5.594   1.774  0.8015 -0.9211 -0.1810
 3102TIP3   OH230720   3.503   0.939   1.910 -0.0199 -0.3697  0.8169
 3102TIP3    H130721   3.439   0.940   1.839  0.6825  0.8927  0.1657
 3102TIP3    H230722   3.581   0.981   1.873  0.1615  0.8900  2.5133
 3103TIP3   OH230723   1.318   2.822  16.734  0.0379  0.2961 -0.5400
 3103TIP3    H130724   1.298   2.780  16.818  2.8243  1.9477  1.1403
 3103TIP3    H230725   1.256   2.894  16.728 -0.1549  0.2023  0.1839
 3104TIP3   OH230726   0.139   3.787   3.711 -0.1054  0.6092 -0.7318
 3104TIP3    H130727   0.099   3.831   3.636 -0.8780 -1.9640 -1.9314
 3104TIP3    H230728   0.200   3.725   3.673  0.2340 -0.0598  0.8220
 3105TIP3   OH230729   4.533   4.205   3.174  0.2054 -0.3796  0.1398
 3105TIP3    H130730   4.564   4.155   3.250  1.1408 -0.0280  0.0023
 3105TIP3    H230731   4.509   4.291   3.210 -0.1655 -0.4958  0.1711
 3106TIP3   OH230732   1.007   1.551   2.216  0.3760  0.2466  0.7619
 3106TIP3    H130733   1.051   1.536   2.133  1.3224 -0.1405  1.3233
 3106TIP3    H230734   0.972   1.640   2.209  1.2822  0.5771  0.3109
 3107TIP3   OH230735   4.285   1.307  11.829 -0.2330 -0.4652 -0.1790
 3107TIP3    H130736   4.308   1.215  11.840  0.1862 -0.6105 -1.9010
 3107TIP3    H230737   4.220   1.307  11.758 -1.5232  0.4285  0.9637
 3108TIP3   OH230738   1.571   0.521  15.425 -0.7157 -0.0144  0.0901
 3108TIP3    H130739   1.590   0.612  15.448 -0.3432 -0.4451  1.6408
 3108TIP3    H230740   1.646   0.472  15.459 -1.0971 -0.9394 -0.3732
 3109TIP3   OH230741   2.310   3.927   5.484  0.5068 -0.7294  0.0779
 3109TIP3    H130742   2.288   3.890   5.398  1.1889 -0.6885 -0.1176
 3109TIP3    H230743   2.260   4.008   5.489  0.2484 -0.8712 -0.1634
 3110TIP3   OH230744   5.836   5.758   3.714  0.1011 -0.5585  0.2212
 3110TIP3    H130745   5.839   5.670   3.675  0.5463  0.9897 -3.7244
 3110TIP3    H230746   5.748   5.790   3.691  0.8129  0.8614 -0.6264
 3111TIP3   OH230747   2.053   2.145   0.767 -0.4492 -0.4603 -0.1037
 3111TIP3    H130748   2.099   2.221   0.733 -0.6432  0.4366  1.5478
 3111TIP3    H230749   2.122   2.082   0.789 -0.2825 -0.7230 -1.3353
 3112TIP3   OH230750   4.831   1.492   4.683 -0.4306  0.2010  0.2560
 3112TIP3    H130751   4.850   1.574   4.638 -0.0328  0.7469  1.3859
 3112TIP3    H230752   4.801   1.433   4.614 -0.3211  1.1649 -0.6344
 3113TIP3   OH230753   3.135   3.994   6.042 -0.0321  0.0773 -0.7088
 3113TIP3    H130754   3.166   3.999   6.133  3.5524  0.0009 -1.8136
 3113TIP3    H230755   3.115   3.902   6.029  1.9255 -0.3985 -0.6672
 3114TIP3   OH230756   1.585   6.656   4.950  0.3825 -0.1924 -0.2615
 3114TIP3    H130757   1.522   6.606   4.899  0.5512  0.4216 -1.1012
 3114TIP3    H230758   1.666   6.605   4.946  0.3522 -0.2218 -0.4763
 3115TIP3   OH230759   5.581   0.653  13.150  0.3687 -0.1452 -0.2805
 3115TIP3    H130760   5.493   0.669  13.184  0.3435 -0.4897 -0.1771
 3115TIP3    H230761   5.567   0.604  13.069  0.3239  2.5427 -2.0107
 3116TIP3   OH230762   4.622   5.546   4.037  0.9921 -0.3523  0.1506
 3116TIP3    H130763   4.568   5.614   4.078 -2.3526 -1.2998 -2.2575
 3116TIP3    H230764   4.696   5.594   4.001 -0.7129  1.9406 -0.5715
 3117TIP3   OH230765   6.537   0.794  14.806 -0.1403  0.3639  0.0098
 3117TIP3    H130766   6.541   0.699  14.815 -0.8120  0.0866 -2.1088
 3117TIP3    H230767   6.444   0.815  14.816 -0.1647  0.6378 -0.7503
 3118TIP3   OH230768   6.700   6.601   4.653  0.5499 -0.1272 -0.1720
 3118TIP3    H130769   6.686   6.598   4.558  0.5013 -1.3079 -0.1446
 3118TIP3    H230770   6.768   6.667   4.665  0.6077 -0.0110 -1.0419
 3119TIP3   OH230771   1.110   1.309  12.788  0.0988 -0.6846 -0.2530
 3119TIP3    H130772   1.199   1.277  12.803 -0.3914 -1.6357  0.7727
 3119TIP3    H230773   1.059   1.272  12.860 -1.0733  0.0833 -0.6643
 3120TIP3   OH230774   5.241   4.742  15.886  0.0642  0.6001 -0.2663
 3120TIP3    H130775   5.336   4.727  15.878 -0.4689 -5.0566 -0.2125
 3120TIP3    H230776   5.227   4.751  15.980  0.4222 -1.5172  0.0455
 3121TIP3   OH230777   1.321   3.804   4.468 -0.6851 -0.7657 -0.3040
 3121TIP3    H130778   1.371   3.879   4.500 -1.8472  0.5841 -1.4883
 3121TIP3    H230779   1.316   3.744   4.542  1.3772 -0.2753  0.2820
 3122TIP3   OH230780   1.566   2.742  16.884  0.5291 -0.7602  0.3165
 3122TIP3    H130781   1.481   2.726  16.842  0.6903 -1.0661  0.1037
 3122TIP3    H230782   1.598   2.822  16.843  0.6809 -1.0514 -0.1475
 3123TIP3   OH230783   4.714   5.551  14.808  0.1730 -0.4353 -0.5129
 3123TIP3    H130784   4.665   5.490  14.752 -0.4527  0.1541 -0.6213
 3123TIP3    H230785   4.802   5.551  14.772 -0.0693 -0.5486 -1.1156
 3124TIP3   OH230786   0.297   6.689  14.461 -0.3408  0.5457  0.2282
 3124TIP3    H130787   0.257   6.604  14.447  0.0999  0.2233  0.8404
 3124TIP3    H230788   0.241   6.751  14.416  0.2420 -0.2493 -1.6655
 3125TIP3   OH230789   2.528   4.330   5.331  1.0187 -0.2526 -0.2891
 3125TIP3    H130790   2.483   4.312   5.249 -0.6787 -0.2940  0.5844
 3125TIP3    H230791   2.565   4.246   5.357  0.1554 -0.6307 -0.2364
 3126TIP3   OH230792   1.513   3.963  17.029  1.0182  0.5869  0.3099
 3126TIP3    H130793   1.502   3.947  16.935  0.8230 -2.2406  0.7058
 3126TIP3    H230794   1.608   3.961  17.043  1.0166 -1.1640  0.3860
 3127TIP3   OH230795   1.185   4.529  14.754  0.3031 -0.3026 -0.0703
 3127TIP3    H130796   1.280   4.530  14.760  0.3042 -0.6302  0.0083
 3127TIP3    H230797   1.160   4.620  14.738  0.6484 -0.2688 -0.4161
 3128TIP3   OH230798   3.639   4.292  12.434  0.4121  0.2716 -0.4318
 3128TIP3    H130799   3.565   4.349  12.454  1.3665  1.5283 -0.3851
 3128TIP3    H230800   3.715   4.337  12.471  1.5773  0.2940 -2.6762
 3129TIP3   OH230801   1.412   0.758  15.125  0.0192 -0.0480 -0.5583
 3129TIP3    H130802   1.359   0.815  15.069  1.0602  2.2749  0.6644
 3129TIP3    H230803   1.417   0.675  15.078 -1.3857  0.9294 -2.5534
 3130TIP3   OH230804   3.133   6.233   4.945 -0.0978 -0.7036 -0.0159
 3130TIP3    H130805   3.199   6.200   4.885  1.4368 -1.0502  1.7605
 3130TIP3    H230806   3.119   6.324   4.918  1.8021 -0.3346  0.0975
 3131TIP3   OH230807   6.663   1.781  13.036 -0.2439  0.1081 -0.0733
 3131TIP3    H130808   6.697   1.721  13.103  0.8754  0.4421 -0.3153
 3131TIP3    H230809   6.716   1.762  12.958 -2.1673 -0.9588 -1.1954
 3132TIP3   OH230810   0.427   6.649   4.124  0.3301  0.1498  0.4485
 3132TIP3    H130811   0.464   6.576   4.075  1.7489  1.5466 -0.6361
 3132TIP3    H230812   0.367   6.691   4.063  1.0697  1.0885  0.3480
 3133TIP3   OH230813   2.849   0.934  16.063 -0.3647 -0.0860  0.3540
 3133TIP3    H130814   2.869   0.974  15.979 -1.7710  2.7256  1.2270
 3133TIP3    H230815   2.931   0.939  16.112 -0.3825  1.3140  0.2587
 3134TIP3   OH230816   2.738   3.577   5.228  0.2114  0.2402  0.2128
 3134TIP3    H130817   2.768   3.550   5.315 -1.6479 -1.2271  0.4683
 3134TIP3    H230818   2.700   3.664   5.242 -0.4111 -0.1395  0.9655
 3135TIP3   OH230819   5.437   1.520   2.827 -0.4524 -0.6836  0.0489
 3135TIP3    H130820   5.386   1.591   2.865  1.3198  0.3956  0.5480
 3135TIP3    H230821   5.481   1.480   2.902  2.3139  0.8376 -0.6201
 3136TIP3   OH230822   6.399   6.130  13.709  0.0778 -0.1090 -0.6183
 3136TIP3    H130823   6.303   6.132  13.717  0.1935  1.5980  1.4716
 3136TIP3    H230824   6.428   6.207  13.759  2.5741 -0.9026 -0.7287
 3137TIP3   OH230825   6.777   1.597  15.580 -0.2126 -1.4801 -0.4756
 3137TIP3    H130826   6.872   1.602  15.576 -0.2448 -0.5964 -0.3989
 3137TIP3    H230827   6.748   1.605  15.489 -0.2681  0.1113 -0.3427
 3138TIP3   OH230828   0.513   1.568  13.156 -0.2073  0.0777  0.3713
 3138TIP3    H130829   0.590   1.517  13.132 -0.0631  1.0905 -1.4024
 3138TIP3    H230830   0.441   1.505  13.151 -0.1665  0.1603 -2.6855
 3139TIP3   OH230831   0.573   3.762   5.872  0.2555  0.1605 -0.2436
 3139TIP3    H130832   0.616   3.707   5.937  1.7189  1.1312 -0.3405
 3139TIP3    H230833   0.482   3.768   5.902  0.1287 -2.0102 -0.0767
 3140TIP3   OH230834   4.962   4.362  13.315 -0.2946 -0.5035 -0.5183
 3140TIP3    H130835   5.004   4.440  13.351  1.6168 -2.0449  0.7462
 3140TIP3    H230836   4.917   4.322  13.389 -1.6758 -0.4213 -1.2619
 3141TIP3   OH230837   3.215   5.973   6.335  0.0658  0.1030 -0.2813
 3141TIP3    H130838   3.284   5.965   6.401 -0.7498  3.0807  1.0739
 3141TIP3    H230839   3.136   5.994   6.385 -1.3811 -0.9532 -1.9840
 3142TIP3   OH230840   2.934   0.630   0.343  0.4860  0.5473  0.2253
 3142TIP3    H130841   2.957   0.537   0.354  0.2339  0.6156  1.5922
 3142TIP3    H230842   2.863   0.644   0.405 -0.0606  1.4648 -0.5882
 3143TIP3   OH230843   1.840   5.316   1.255  0.4265 -0.6870  0.1641
 3143TIP3    H130844   1.845   5.339   1.348 -1.1911 -2.1079  0.6350
 3143TIP3    H230845   1.759   5.357   1.225  0.3656 -1.1807 -0.3463
 3144TIP3   OH230846   2.114   1.965   5.114  0.3895  0.0808  0.2049
 3144TIP3    H130847   2.199   1.941   5.151 -0.1015  0.7219  1.8194
 3144TIP3    H230848   2.108   2.059   5.126 -0.6332  0.0182  0.3089
 3145TIP3   OH230849   2.442   3.538  11.780 -0.1552 -0.1167 -0.2040
 3145TIP3    H130850   2.452   3.506  11.869  0.6877 -0.3237 -0.3659
 3145TIP3    H230851   2.509   3.607  11.771 -1.4273  1.1870 -0.1010
 3146TIP3   OH230852   5.087   0.973   2.687 -0.2024 -0.3096 -0.0040
 3146TIP3    H130853   5.022   0.941   2.625  0.2545 -0.2470 -0.5223
 3146TIP3    H230854   5.106   0.898   2.743 -1.9755  0.1281  1.2633
 3147TIP3   OH230855   6.604   4.840   4.274  0.3054 -0.0144 -0.8857
 3147TIP3    H130856   6.529   4.899   4.282  2.0269  2.2545 -0.1442
 3147TIP3    H230857   6.570   4.754   4.297 -1.7885  1.1392  0.7016
 3148TIP3   OH230858   3.608   6.387  13.027  0.4901 -0.2677  0.1041
 3148TIP3    H130859   3.632   6.374  12.936  1.8873  3.2837 -0.1604
 3148TIP3    H230860   3.690   6.377  13.075  0.0315 -0.6490  0.8351
 3149TIP3   OH230861   6.769   5.044  11.369  0.2599 -0.3912  0.1185
 3149TIP3    H130862   6.772   5.085  11.455  1.5124 -0.5287  0.1646
 3149TIP3    H230863   6.680   5.010  11.361  0.0735 -0.2081  1.2787
 3150TIP3   OH230864   0.700   0.170   4.915 -0.0956  0.0592 -0.1633
 3150TIP3    H130865   0.740   0.091   4.879 -1.3736 -0.2290 -1.0520
 3150TIP3    H230866   0.764   0.239   4.900  0.6859 -0.6396 -0.1410
 3151TIP3   OH230867   3.562   0.889  14.296 -0.7718  0.9040  0.3961
 3151TIP3    H130868   3.578   0.908  14.204 -2.6534  1.0908  0.0664
 3151TIP3    H230869   3.492   0.823  14.294 -0.0740  0.0891  1.6821
 3152TIP3   OH230870   2.493   3.699   6.625 -0.3508  0.3171  0.0997
 3152TIP3    H130871   2.504   3.612   6.663  0.1353  0.2768 -0.1168
 3152TIP3    H230872   2.431   3.744   6.683 -2.0036 -0.7668 -0.7830
 3153TIP3   OH230873   4.940   6.527   2.214  0.0502 -0.3157 -0.4059
 3153TIP3    H130874   4.856   6.554   2.250  0.1575  0.1968 -0.5276
 3153TIP3    H230875   4.989   6.492   2.289  0.2221  0.6146 -0.0723
 3154TIP3   OH230876   5.559   6.209   2.380  0.0452 -0.4143  0.0591
 3154TIP3    H130877   5.513   6.289   2.404  0.9620  0.0877  0.1704
 3154TIP3    H230878   5.530   6.190   2.290  0.0164  0.1710 -0.0550
 3155TIP3   OH230879   3.211   4.439  15.656 -0.0998 -0.7351  0.6219
 3155TIP3    H130880   3.140   4.378  15.674 -0.8160 -0.2179 -0.4184
 3155TIP3    H230881   3.236   4.473  15.742  0.0906 -2.2316  1.1805
 3156TIP3   OH230882   6.602   6.457  13.462 -0.5013 -0.1605  0.6072
 3156TIP3    H130883   6.668   6.515  13.424  0.2684 -0.7318  1.0417
 3156TIP3    H230884   6.604   6.379  13.407 -0.3072 -0.4652  1.0420
 3157TIP3   OH230885   2.994   0.794   4.180 -0.0576  0.5991  0.4746
 3157TIP3    H130886   2.973   0.707   4.145 -1.5869  0.4879  1.5673
 3157TIP3    H230887   2.958   0.855   4.116  2.3243  0.5365 -1.0814
 3158TIP3   OH230888   6.410   1.819   4.580 -0.2733  0.4487 -0.2850
 3158TIP3    H130889   6.376   1.754   4.519  0.5431 -0.2632 -0.0003
 3158TIP3    H230890   6.407   1.901   4.531 -0.2415  0.0013 -1.0580
 3159TIP3   OH230891   2.650   4.273  11.642  0.6726 -0.3838 -0.1165
 3159TIP3    H130892   2.631   4.262  11.735  0.3216 -1.8814 -0.3395
 3159TIP3    H230893   2.575   4.321  11.607  1.4110  1.3585  0.5826
 3160TIP3   OH230894   4.852   1.623  17.028  0.0101  0.3067  0.5778
 3160TIP3    H130895   4.822   1.687  17.091  0.2330  0.4573  0.5309
 3160TIP3    H230896   4.792   1.632  16.954  0.6720  1.1799  0.1404
 3161TIP3   OH230897   4.946   6.134   2.286 -0.1422  0.1759 -0.4845
 3161TIP3    H130898   4.912   6.079   2.357 -0.3404 -1.2354 -1.6333
 3161TIP3    H230899   5.037   6.149   2.310  0.0372 -1.0134 -0.3251
 3162TIP3   OH230900   4.051   3.655  15.879  0.2148  0.1289  0.0118
 3162TIP3    H130901   3.985   3.700  15.932  0.1668 -0.1611  0.1976
 3162TIP3    H230902   4.125   3.716  15.875 -0.4733  0.9351 -1.1199
 3163TIP3   OH230903   1.374   1.149  14.323 -0.6431  0.0986  0.4181
 3163TIP3    H130904   1.390   1.189  14.238 -1.6451  0.2052  0.2570
 3163TIP3    H230905   1.309   1.208  14.364  1.0206  0.9803  1.9388
 3164TIP3   OH230906   4.857   0.778  13.929 -0.0045  0.2456 -0.0690
 3164TIP3    H130907   4.942   0.813  13.958  0.2391 -0.3519 -0.0376
 3164TIP3    H230908   4.812   0.757  14.010  0.5561 -1.1452 -0.0957
 3165TIP3   OH230909   3.624   1.501   0.101  0.1579 -0.6738 -0.5548
 3165TIP3    H130910   3.671   1.460   0.174  0.0845 -0.9527 -0.6654
 3165TIP3    H230911   3.591   1.428   0.049 -0.6404 -0.4828 -0.3292
 3166TIP3   OH230912   2.063   0.207  10.855 -0.8009 -0.1677  0.1696
 3166TIP3    H130913   2.031   0.117  10.849  0.0745 -0.3689 -2.8223
 3166TIP3    H230914   1.988   0.262  10.832 -1.0422 -0.1419  0.9601
 3167TIP3   OH230915   6.592   4.612  14.413  0.3679 -0.6001  0.1866
 3167TIP3    H130916   6.574   4.606  14.320 -0.0637 -0.9355  0.2870
 3167TIP3    H230917   6.594   4.706  14.431 -0.6157 -0.5354  0.0344
 3168TIP3   OH230918   0.743   4.623   1.997 -0.8420  0.2353  0.6312
 3168TIP3    H130919   0.803   4.665   2.059  0.6548  0.0907 -0.6673
 3168TIP3    H230920   0.767   4.660   1.912 -1.5225 -1.0281 -0.1371
 3169TIP3   OH230921   5.990   5.926  12.323 -0.6800  0.5501 -0.0365
 3169TIP3    H130922   5.900   5.894  12.328  0.1357 -1.8275  0.7784
 3169TIP3    H230923   6.026   5.887  12.244 -0.3544  1.5700 -0.4160
 3170TIP3   OH230924   5.946   5.577   4.916  0.6947  0.4542 -0.0484
 3170TIP3    H130925   6.016   5.514   4.930 -0.2030 -0.4689  0.4492
 3170TIP3    H230926   5.907   5.589   5.003  0.1615  0.8509 -0.3339
 3171TIP3   OH230927   5.432   0.285  16.301 -0.3420  0.3028 -0.0934
 3171TIP3    H130928   5.478   0.358  16.259 -0.7789  1.1085  0.7776
 3171TIP3    H230929   5.501   0.223  16.324  0.0328  0.4086 -0.9035
 3172TIP3   OH230930   5.172   0.134   3.690  0.0638 -0.3579 -0.3331
 3172TIP3    H130931   5.189   0.107   3.600 -1.6315 -0.3782 -0.6906
 3172TIP3    H230932   5.172   0.052   3.739  1.2989 -0.3178 -0.2281
 3173TIP3   OH230933   5.053   3.750  14.938  0.2692 -0.1654  0.3950
 3173TIP3    H130934   4.961   3.743  14.961  0.5527 -0.8235  1.4029
 3173TIP3    H230935   5.096   3.777  15.019  0.8915  0.7098 -0.2177
 3174TIP3   OH230936   6.767   2.534   3.868  0.1193 -0.3766 -0.0248
 3174TIP3    H130937   6.833   2.466   3.852 -1.1152 -1.3878 -1.0330
 3174TIP3    H230938   6.719   2.540   3.786 -0.8791  0.5333  0.6086
 3175TIP3   OH230939   0.168   5.648   0.780 -0.2853 -0.1051 -0.3900
 3175TIP3    H130940   0.183   5.706   0.855  0.9401 -1.1511  0.2108
 3175TIP3    H230941   0.155   5.707   0.706 -2.1101  0.9826  0.7077
 3176TIP3   OH230942   3.174   4.286   3.949 -0.1591  0.5344 -0.1848
 3176TIP3    H130943   3.268   4.274   3.939 -0.3769 -2.3340  0.3811
 3176TIP3    H230944   3.147   4.333   3.870  1.7468  1.7164 -0.1983
 3177TIP3   OH230945   1.710   4.337   2.351 -0.8436 -0.2531  0.1286
 3177TIP3    H130946   1.674   4.291   2.275  1.2827  0.7085 -1.5899
 3177TIP3    H230947   1.653   4.413   2.363 -0.1891  0.6122 -1.7939
 3178TIP3   OH230948   5.638   1.822  14.004 -0.0772  0.1127  0.6679
 3178TIP3    H130949   5.598   1.750  13.954  0.5043  0.3129 -0.1166
 3178TIP3    H230950   5.705   1.857  13.945  0.7344  0.2703  1.6638
 3179TIP3   OH230951   0.009   1.382  12.220  0.4994 -0.3373  0.2946
 3179TIP3    H130952  -0.053   1.336  12.275 -0.2779  1.1346  0.7079
 3179TIP3    H230953  -0.045   1.428  12.156  1.2639 -0.2571 -0.3119
 3180TIP3   OH230954   2.731   5.486   4.828  0.2073  0.2646 -0.1518
 3180TIP3    H130955   2.690   5.416   4.879 -0.9786  0.8918 -0.2115
 3180TIP3    H230956   2.695   5.475   4.740  2.8068 -1.2873 -1.1424
 3181TIP3   OH230957   6.699   5.323   1.929  0.3465  0.8683 -0.3411
 3181TIP3    H130958   6.652   5.405   1.914  1.0802  1.2550 -0.5787
 3181TIP3    H230959   6.631   5.259   1.947 -0.3252  1.2094 -1.5841
 3182TIP3   OH230960   1.497   2.514  12.453 -0.2902 -0.6392  0.2948
 3182TIP3    H130961   1.499   2.559  12.538 -0.1013  2.2511 -1.1325
 3182TIP3    H230962   1.413   2.467  12.454 -1.1749  0.8671  1.3694
 3183TIP3   OH230963   4.724   5.542   2.312 -0.0754 -0.2155  0.2221
 3183TIP3    H130964   4.664   5.512   2.380  0.7470  0.1464  1.1409
 3183TIP3    H230965   4.781   5.467   2.294 -0.1077 -0.2220  0.1467
 3184TIP3   OH230966   0.809   4.076   1.911 -0.1691  0.2624  0.3052
 3184TIP3    H130967   0.869   4.146   1.939  0.6338 -0.8986  1.6231
 3184TIP3    H230968   0.765   4.049   1.992 -0.1847 -1.0150 -0.1094
 3185TIP3   OH230969   1.621   6.082  15.309  0.1790 -0.4100 -0.7390
 3185TIP3    H130970   1.581   6.131  15.381  0.6528  0.2214 -0.8976
 3185TIP3    H230971   1.608   5.990  15.333  2.4326 -0.3074  1.4405
 3186TIP3   OH230972   6.657   5.035   1.094  0.2230 -0.4173 -0.2325
 3186TIP3    H130973   6.688   5.030   1.184  1.1580  0.6986 -0.4676
 3186TIP3    H230974   6.703   4.966   1.048  0.9635  0.0325 -0.1797
 3187TIP3   OH230975   3.990   1.816  16.639  0.5613  0.1677  0.4794
 3187TIP3    H130976   3.930   1.848  16.706 -0.0673 -1.0393  0.5223
 3187TIP3    H230977   3.993   1.886  16.573 -2.0719 -0.3045 -0.2644
 3188TIP3   OH230978   0.851   5.374  13.456  0.1803 -0.3806 -0.7918
 3188TIP3    H130979   0.910   5.350  13.384  1.8157 -0.7175  0.5899
 3188TIP3    H230980   0.824   5.290  13.493 -0.1551 -0.1971 -0.6173
 3189TIP3   OH230981   3.666   3.634  15.063  0.2243  0.1196  0.6348
 3189TIP3    H130982   3.692   3.647  15.154  1.1280  0.1277  0.3839
 3189TIP3    H230983   3.730   3.571  15.028  0.7238  1.1258 -0.3542
 3190TIP3   OH230984   2.256   6.510   6.405 -0.0781  1.1706  0.4764
 3190TIP3    H130985   2.179   6.558   6.375  0.1382  1.1295 -0.1631
 3190TIP3    H230986   2.312   6.577   6.444 -0.1593  1.2955  0.3773
 3191TIP3   OH230987   2.751   5.037  15.766  0.0837  0.1546  0.0960
 3191TIP3    H130988   2.739   5.006  15.676 -1.1190  1.1622 -0.1322
 3191TIP3    H230989   2.819   5.104  15.759 -2.2625  2.6401 -0.7413
 3192TIP3   OH230990   5.449   2.480  14.782 -0.1136  0.2321  0.0398
 3192TIP3    H130991   5.493   2.478  14.697 -1.6499 -0.3244 -0.7731
 3192TIP3    H230992   5.396   2.559  14.780  1.5051  1.4304  1.4085
 3193TIP3   OH230993   3.923   0.125  13.294  0.9479  0.0193 -0.4113
 3193TIP3    H130994   3.852   0.145  13.355  2.3009  0.7180  1.0231
 3193TIP3    H230995   3.883   0.128  13.208 -0.5780  1.2512  0.2966
 3194TIP3   OH230996   4.656   5.393   2.526  0.8462  0.0370 -0.2866
 3194TIP3    H130997   4.675   5.442   2.606  0.7604 -1.4588  0.6828
 3194TIP3    H230998   4.700   5.309   2.538 -2.3836 -1.7891 -0.0015
 3195TIP3   OH230999   6.200   2.029  15.694  0.1037  0.0549 -0.3771
 3195TIP3    H131000   6.237   2.110  15.660 -0.3210  0.3480 -0.1411
 3195TIP3    H231001   6.124   2.011  15.639  1.2585 -1.1984 -1.6483
 3196TIP3   OH231002   2.948   5.020  12.544 -0.1436 -0.1428  0.3342
 3196TIP3    H131003   2.870   5.057  12.586 -0.7006 -1.4450  0.5028
 3196TIP3    H231004   2.950   5.059  12.457  0.2370  1.5277  1.0518
 3197TIP3   OH231005   4.851   3.728  15.316 -0.1260 -0.5887  0.3609
 3197TIP3    H131006   4.939   3.747  15.284  0.5414 -1.3446  1.6720
 3197TIP3    H231007   4.859   3.644  15.361 -1.5224 -0.6742  0.4983
 3198TIP3   OH231008   4.966   5.804   1.366  0.2446 -0.5121  0.0978
 3198TIP3    H131009   5.058   5.829   1.369  0.3095 -0.7967  0.7116
 3198TIP3    H231010   4.935   5.817   1.456  0.0893 -1.8851  0.2660
 3199TIP3   OH231011   3.129   5.098  16.637 -0.2568 -0.0462  0.0572
 3199TIP3    H131012   3.075   5.029  16.674 -1.9641  0.9727 -0.4076
 3199TIP3    H231013   3.161   5.147  16.712 -2.4828  1.1179  0.3307
 3200TIP3   OH231014   5.986   4.349  13.971  0.1657 -0.3020 -0.4135
 3200TIP3    H131015   6.057   4.413  13.980  0.8426 -0.3733 -3.8540
 3200TIP3    H231016   5.917   4.397  13.926 -0.3167 -1.3027 -0.7676
 3201TIP3   OH231017   5.459   2.499   3.450 -0.0721  0.3242  0.0389
 3201TIP3    H131018   5.547   2.461   3.450  0.1834  0.8314  1.9004
 3201TIP3    H231019   5.406   2.434   3.405  0.8914 -0.9217  0.6262
 3202TIP3   OH231020   4.409   3.893  11.595  0.2019 -0.0603 -0.1171
 3202TIP3    H131021   4.471   3.956  11.558 -0.4946  2.4519  2.6908
 3202TIP3    H231022   4.330   3.904  11.542  0.1841  1.2326  0.1505
 3203TIP3   OH231023   4.743   5.148   0.050 -0.5046  0.1013 -0.5859
 3203TIP3    H131024   4.706   5.159   0.138  1.3741  1.5355  0.0705
 3203TIP3    H231025   4.802   5.073   0.058 -1.5401 -0.8144 -1.0987
 3204TIP3   OH231026   0.438   4.099  15.369  0.1964  0.0704  0.4452
 3204TIP3    H131027   0.427   4.101  15.464  0.6169 -2.4806  0.6326
 3204TIP3    H231028   0.520   4.051  15.356  1.4693  2.4884 -1.2147
 3205TIP3   OH231029   5.419   0.713   3.162  0.1410 -0.5128  0.4381
 3205TIP3    H131030   5.455   0.712   3.074  0.9535 -1.1738  0.7627
 3205TIP3    H231031   5.327   0.688   3.151  0.3480 -1.0213 -0.1722
 3206TIP3   OH231032   1.350   3.880  16.362 -0.0641 -0.1452  0.5791
 3206TIP3    H131033   1.343   3.971  16.335 -0.1616 -0.4130 -0.3122
 3206TIP3    H231034   1.311   3.878  16.450 -0.9370  0.4867  0.2203
 3207TIP3   OH231035   5.109   2.575  16.224  0.1949 -0.0060  0.7332
 3207TIP3    H131036   5.034   2.575  16.164  0.3584  0.6732  0.5282
 3207TIP3    H231037   5.170   2.511  16.187  0.7878  1.2138 -0.4450
 3208TIP3   OH231038   6.420   6.483  15.970 -0.9375 -0.0876 -0.1666
 3208TIP3    H131039   6.492   6.547  15.964 -1.0039  0.2072  1.5896
 3208TIP3    H231040   6.358   6.511  15.903 -0.8569  1.5887  0.3973
 3209TIP3   OH231041   6.130   0.231   3.390  0.4004 -0.3367  0.4857
 3209TIP3    H131042   6.161   0.322   3.383  0.7580 -0.4880  0.0719
 3209TIP3    H231043   6.042   0.239   3.427 -0.5244  0.3504 -1.6875
 3210TIP3   OH231044   3.621   4.191  11.738  0.8807  0.2393 -0.2322
 3210TIP3    H131045   3.700   4.189  11.684  0.6821 -0.4499 -0.5070
 3210TIP3    H231046   3.652   4.210  11.826  1.2316  1.1686 -0.5459
 3211TIP3   OH231047   1.171   6.251  16.037 -0.0016 -0.1126  0.0529
 3211TIP3    H131048   1.078   6.239  16.018 -0.4063 -1.0726  2.2817
 3211TIP3    H231049   1.216   6.195  15.973 -0.9474  0.0420 -0.7797
 3212TIP3   OH231050   4.035   0.718   1.762 -0.3782 -0.4809  0.1820
 3212TIP3    H131051   4.071   0.629   1.759 -1.6767 -0.9997 -0.5532
 3212TIP3    H231052   4.043   0.750   1.672 -0.8216 -0.2361  0.2274
 3213TIP3   OH231053   0.751   0.476  15.523 -0.1582  0.3046  0.4740
 3213TIP3    H131054   0.794   0.536  15.463 -1.3040 -0.4304 -1.1641
 3213TIP3    H231055   0.817   0.411  15.545  0.3491  0.7295  0.2104
 3214TIP3   OH231056   0.757   3.120  16.391  0.7216 -0.0284  0.5404
 3214TIP3    H131057   0.728   3.097  16.480 -1.2695 -0.6249 -0.2048
 3214TIP3    H231058   0.679   3.156  16.349  2.1347  2.1270 -0.3877
 3215TIP3   OH231059   5.801   0.828   0.080  0.7165 -0.7132  0.4140
 3215TIP3    H131060   5.817   0.912   0.035  2.4055 -1.0936  0.2396
 3215TIP3    H231061   5.739   0.783   0.023  1.5324 -0.4887 -0.7032
 3216TIP3   OH231062   1.688   3.903   2.552  0.1559 -0.5727 -0.7623
 3216TIP3    H131063   1.762   3.953   2.519  0.9118 -1.9111 -1.1932
 3216TIP3    H231064   1.723   3.814   2.563 -0.4064 -0.5184  2.3865
 3217TIP3   OH231065   2.864   0.841   5.202  0.0144  0.8481  0.5757
 3217TIP3    H131066   2.836   0.835   5.294 -0.2272  0.6905  0.4918
 3217TIP3    H231067   2.959   0.835   5.206  0.0792  1.8242  0.9005
 3218TIP3   OH231068   4.586   3.380   5.397  0.1180  0.1717 -0.5194
 3218TIP3    H131069   4.611   3.469   5.420  1.4927 -0.2508 -0.3040
 3218TIP3    H231070   4.509   3.390   5.341 -0.8185  1.3980  0.9178
 3219TIP3   OH231071   3.234   2.079   4.478  0.8847  0.4395 -0.0531
 3219TIP3    H131072   3.164   2.044   4.422  0.0556  1.0023  0.6154
 3219TIP3    H231073   3.188   2.126   4.547  1.9553  2.0534 -0.3875
 3220TIP3   OH231074   1.610   5.873  12.838 -0.1593  0.2196 -0.1384
 3220TIP3    H131075   1.534   5.925  12.810  0.5603  1.0409 -0.6476
 3220TIP3    H231076   1.650   5.925  12.907 -0.6810 -0.7592  0.9325
 3221TIP3   OH231077   4.802   3.578   3.745 -0.4905 -0.0142 -0.4020
 3221TIP3    H131078   4.722   3.606   3.702 -1.3787 -2.0957 -0.2145
 3221TIP3    H231079   4.777   3.562   3.836  0.6107  1.1707  0.1508
 3222TIP3   OH231080   0.364   5.764   2.846  0.3750  0.5094  0.6251
 3222TIP3    H131081   0.422   5.823   2.894  0.2201  1.1263  0.0760
 3222TIP3    H231082   0.293   5.821   2.816  0.9671  0.3696 -1.1839
 3223TIP3   OH231083   2.538   2.286  10.837  0.2351 -0.4629 -0.0475
 3223TIP3    H131084   2.629   2.277  10.811  0.3083 -0.3661  0.1737
 3223TIP3    H231085   2.490   2.226  10.779  0.2134  0.7857 -1.3703
 3224TIP3   OH231086   2.306   3.441  16.403  0.1542  0.0868 -0.7832
 3224TIP3    H131087   2.323   3.535  16.395  0.0525  0.1571 -0.2426
 3224TIP3    H231088   2.392   3.402  16.420  0.3889 -0.0781 -2.2241
 3225TIP3   OH231089   0.702   1.872  15.308 -0.4822 -0.1280 -0.4230
 3225TIP3    H131090   0.681   1.824  15.228 -2.3332  0.2671 -0.2174
 3225TIP3    H231091   0.704   1.963  15.282  0.7730 -0.1250 -0.3658
 3226TIP3   OH231092   3.625   5.515  14.863 -0.0790  0.3409 -0.0082
 3226TIP3    H131093   3.655   5.562  14.940 -0.4106  1.3788 -0.4870
 3226TIP3    H231094   3.530   5.512  14.872  0.0114 -1.2575  0.5728
 3227TIP3   OH231095   3.676   2.195   1.890 -0.0290 -0.1839 -0.2036
 3227TIP3    H131096   3.696   2.266   1.950  0.3511  0.3712 -0.9693
 3227TIP3    H231097   3.699   2.116   1.938  0.2452  0.2444  0.3850
 3228TIP3   OH231098   5.734   2.924   4.470 -0.3453 -0.1811 -0.1248
 3228TIP3    H131099   5.791   2.960   4.402 -0.0764 -2.5818 -1.2755
 3228TIP3    H231100   5.710   3.000   4.524  0.5574  1.5729 -2.0513
 3229TIP3   OH231101   2.192   6.067   1.596  0.4817  1.0501  0.0404
 3229TIP3    H131102   2.127   6.047   1.529  0.0768  1.0903  0.4182
 3229TIP3    H231103   2.218   5.981   1.630 -2.1071  1.0981  2.4739
 3230TIP3   OH231104   2.705   4.649   1.570 -0.2937 -0.3199 -0.5627
 3230TIP3    H131105   2.687   4.556   1.557 -0.5044 -0.2553 -0.7359
 3230TIP3    H231106   2.659   4.693   1.498  1.2202 -0.2116 -1.5041
 3231TIP3   OH231107   6.303   2.783  14.707  0.6828 -0.1758  0.0980
 3231TIP3    H131108   6.298   2.847  14.636  0.3257 -0.3371 -0.0232
 3231TIP3    H231109   6.226   2.801  14.760  0.6267 -0.4544  0.1098
 3232TIP3   OH231110   1.310   0.250   2.480 -0.7558  0.3495 -0.0272
 3232TIP3    H131111   1.365   0.172   2.472  1.9266  2.1377 -0.6065
 3232TIP3    H231112   1.251   0.246   2.405 -0.0447 -0.6788 -0.5539
 3233TIP3   OH231113   3.143   5.463   1.402 -0.0839 -0.1657 -0.8142
 3233TIP3    H131114   3.081   5.460   1.476  1.6906 -2.0351  0.7209
 3233TIP3    H231115   3.096   5.419   1.331 -0.3375 -2.3008  0.5591
 3234TIP3   OH231116   4.793   6.492   1.380  0.1774  0.8289 -0.0904
 3234TIP3    H131117   4.761   6.427   1.317  1.1522  0.3115 -0.0676
 3234TIP3    H231118   4.764   6.459   1.465  0.4037  0.5942 -0.1062
 3235TIP3   OH231119   5.721   3.383   1.167 -0.2445 -0.4585 -0.0819
 3235TIP3    H131120   5.780   3.310   1.186 -0.2312 -0.1040  1.4041
 3235TIP3    H231121   5.640   3.342   1.139  0.4072 -0.9764 -1.2788
 3236TIP3   OH231122   4.892   1.363   0.135 -0.4585  0.4350 -0.0872
 3236TIP3    H131123   4.840   1.284   0.150 -1.9679  1.2665 -0.7027
 3236TIP3    H231124   4.841   1.433   0.175  1.0277  1.0860  0.7655
 3237TIP3   OH231125   4.535   1.438   1.830  0.9573 -0.1357  0.3619
 3237TIP3    H131126   4.618   1.390   1.835  1.5068  0.8456  1.1167
 3237TIP3    H231127   4.545   1.495   1.753  0.8023 -0.3345  0.1936
 3238TIP3   OH231128   4.759   1.734   2.360  0.5635  0.1287 -0.1573
 3238TIP3    H131129   4.845   1.762   2.330 -0.0476  2.0072 -0.2930
 3238TIP3    H231130   4.713   1.816   2.381 -0.0006 -0.9085  3.3173
 3239TIP3   OH231131   5.494   2.352   0.223 -0.1285  0.7178  0.1480
 3239TIP3    H131132   5.415   2.362   0.169  0.1291 -1.4355 -0.6983
 3239TIP3    H231133   5.460   2.336   0.311 -0.7083 -0.8525 -0.3258
 3240TIP3   OH231134   6.160   4.365  11.943 -0.8454  0.6968  0.2522
 3240TIP3    H131135   6.105   4.309  11.888  1.0102  0.7751 -1.8039
 3240TIP3    H231136   6.141   4.454  11.914 -1.3559  0.9258  1.2279
 3241TIP3   OH231137   5.046   6.244  16.016  0.6804 -0.5906 -0.4057
 3241TIP3    H131138   5.019   6.289  16.096  1.8133 -0.4203 -0.0982
 3241TIP3    H231139   5.123   6.193  16.042  2.1471  0.8222 -1.7723
 3242TIP3   OH231140   6.452   3.494  16.655  0.0766  0.5039  0.8007
 3242TIP3    H131141   6.441   3.450  16.571  2.1559  0.8564  0.2928
 3242TIP3    H231142   6.460   3.423  16.719 -0.5945  0.2232  0.5795
 3243TIP3   OH231143   1.632   6.291   4.827 -0.4334 -0.0646 -0.3186
 3243TIP3    H131144   1.590   6.327   4.748  0.0504 -0.8406 -0.9450
 3243TIP3    H231145   1.712   6.343   4.837 -1.1344  0.9065  0.4359
 3244TIP3   OH231146   4.491   4.858  15.704 -0.4810 -0.0071 -0.6413
 3244TIP3    H131147   4.520   4.828  15.618  1.6440 -1.7732  0.5971
 3244TIP3    H231148   4.402   4.824  15.713 -1.0768  0.9444 -2.4305
 3245TIP3   OH231149   4.252   3.360  13.658 -0.3034 -0.8908 -0.3083
 3245TIP3    H131150   4.249   3.355  13.754 -2.1488 -0.3345 -0.2876
 3245TIP3    H231151   4.183   3.423  13.636  0.0782 -1.0339 -2.0149
 3246TIP3   OH231152   5.562   2.981  10.909  0.3317 -0.4181 -0.4682
 3246TIP3    H131153   5.487   2.926  10.929 -1.6475  2.1384 -0.3161
 3246TIP3    H231154   5.526   3.056  10.861  2.8243  0.7791 -0.6759
 3247TIP3   OH231155   2.930   6.075  15.538 -0.1627  0.6779  0.6282
 3247TIP3    H131156   2.964   6.142  15.479 -0.0140  1.2455  1.3611
 3247TIP3    H231157   2.968   6.095  15.623  1.8599 -1.7590  0.4139
 3248TIP3   OH231158   4.833   0.296  13.192  0.3218  0.5273  0.3447
 3248TIP3    H131159   4.816   0.289  13.098  0.2150  0.6545  0.3544
 3248TIP3    H231160   4.756   0.340  13.227  1.9964  4.2507 -0.0959
 3249TIP3   OH231161   5.495   0.565  12.361 -0.0675  0.1253 -0.0433
 3249TIP3    H131162   5.478   0.618  12.284 -0.5762  1.9231  1.2461
 3249TIP3    H231163   5.585   0.535  12.350 -0.2456  0.0714 -1.4747
 3250TIP3   OH231164   3.471   3.614  16.145  0.1172  0.2397 -0.2585
 3250TIP3    H131165   3.436   3.604  16.057  0.7239 -1.2752 -0.3546
 3250TIP3    H231166   3.554   3.566  16.144  1.1651  1.9317  0.5662
 3251TIP3   OH231167   0.594   5.690   6.543  0.0948  0.1983  0.2875
 3251TIP3    H131168   0.520   5.632   6.561 -0.0890  0.6289  0.9388
 3251TIP3    H231169   0.650   5.639   6.484  0.8493 -1.3816  2.2517
 3252TIP3   OH231170   4.463   0.721   4.020  0.4504  0.0431 -0.1922
 3252TIP3    H131171   4.438   0.780   3.949  0.4767  0.0175 -0.2228
 3252TIP3    H231172   4.523   0.659   3.979  1.1297  0.5335  0.0283
 3253TIP3   OH231173   4.968   1.062   0.617 -0.5771 -0.4581 -0.2331
 3253TIP3    H131174   4.885   1.049   0.571 -1.2590  0.4269  0.6802
 3253TIP3    H231175   4.948   1.130   0.682  0.8040 -0.4138  0.1711
 3254TIP3   OH231176   3.472   2.781  13.966 -0.2581 -0.0968 -0.0208
 3254TIP3    H131177   3.449   2.867  14.003 -0.1521  0.1587 -0.5432
 3254TIP3    H231178   3.401   2.761  13.905 -0.0426 -0.1621 -0.2518
 3255TIP3   OH231179   6.132   5.118   1.418  0.1469 -0.0442 -0.7760
 3255TIP3    H131180   6.065   5.132   1.484  0.2573 -0.2332 -0.6215
 3255TIP3    H231181   6.158   5.206   1.391  1.3672  0.1113  0.7213
 3256TIP3   OH231182   6.195   6.090   1.308 -0.5360  0.2642  0.3913
 3256TIP3    H131183   6.115   6.038   1.311 -1.0962  1.0823 -0.1598
 3256TIP3    H231184   6.215   6.108   1.400 -0.4645 -0.7019  0.5796
 3257TIP3   OH231185   2.285   6.239  11.380 -0.6084 -0.0989 -0.1769
 3257TIP3    H131186   2.218   6.190  11.332  1.9940 -1.9910 -2.1733
 3257TIP3    H231187   2.283   6.204  11.468 -1.5039 -0.8924 -0.4972
 3258TIP3   OH231188   3.410   5.240  15.394 -0.2144 -0.0445  0.8961
 3258TIP3    H131189   3.353   5.217  15.467  0.7688 -1.1428  1.3584
 3258TIP3    H231190   3.352   5.278  15.329 -1.5582 -1.4759  1.1891
 3259TIP3   OH231191   4.689   3.232   0.587  0.3386 -0.0711 -0.0049
 3259TIP3    H131192   4.671   3.239   0.681  0.3858 -1.2980  0.1121
 3259TIP3    H231193   4.707   3.322   0.559 -0.3613  0.4075  1.0158
 3260TIP3   OH231194   6.718   6.075  11.067 -0.0684  0.3364  0.2684
 3260TIP3    H131195   6.673   6.146  11.022  0.5098  0.0151 -0.8518
 3260TIP3    H231196   6.792   6.053  11.010 -1.1143 -2.2193 -0.2768
 3261TIP3   OH231197   4.450   6.498   1.011  0.1818  0.2254 -0.4281
 3261TIP3    H131198   4.358   6.482   1.031  0.9816 -1.4097  2.6025
 3261TIP3    H231199   4.469   6.439   0.938 -1.5353  1.9988 -2.4328
 3262TIP3   OH231200   5.112   3.996   6.493  0.3624  0.4524  0.3952
 3262TIP3    H131201   5.044   4.057   6.522  0.9619  0.5466  1.6559
 3262TIP3    H231202   5.094   3.915   6.541  1.6587  0.7636  1.4743
 3263TIP3   OH231203   5.758   3.874   5.416 -0.2701 -0.1442 -0.3338
 3263TIP3    H131204   5.736   3.952   5.466 -2.7638  0.4974 -2.2234
 3263TIP3    H231205   5.706   3.881   5.336  0.9780 -2.7545 -1.5086
 3264TIP3   OH231206   6.153   2.556   5.793 -0.0587 -0.4961 -0.2172
 3264TIP3    H131207   6.123   2.493   5.858 -0.3625  1.3273  1.4903
 3264TIP3    H231208   6.244   2.575   5.818  0.2661 -0.7627 -1.1502
 3265TIP3   OH231209   1.064   1.454  13.615  0.6365  0.2870 -0.7127
 3265TIP3    H131210   1.023   1.507  13.684 -0.7082  1.3934 -2.2741
 3265TIP3    H231211   1.089   1.518  13.548  1.1815 -0.8247 -1.5995
 3266TIP3   OH231212   6.689   1.605  14.321 -0.2875  0.5528  0.1880
 3266TIP3    H131213   6.656   1.668  14.384  1.1894  1.7663 -0.2023
 3266TIP3    H231214   6.616   1.590  14.261 -0.6638  1.8743  0.3000
 3267TIP3   OH231215   6.695   0.184   3.810 -0.4409  0.2313  0.1842
 3267TIP3    H131216   6.682   0.150   3.721 -0.4423  4.3788 -1.6391
 3267TIP3    H231217   6.641   0.263   3.813 -0.1793  0.4404  3.8515
 3268TIP3   OH231218   0.417   6.731  14.053 -0.0019  1.0486  0.2822
 3268TIP3    H131219   0.501   6.754  14.093 -0.0361 -0.3431  1.2261
 3268TIP3    H231220   0.351   6.763  14.115 -0.1484  1.1497  0.0777
 3269TIP3   OH231221   6.662   4.131   6.027  0.3645 -0.4687  0.1841
 3269TIP3    H131222   6.704   4.047   6.047 -1.2597 -1.0004  1.6689
 3269TIP3    H231223   6.712   4.195   6.078  1.6670 -0.4639 -1.0248
 3270TIP3   OH231224   3.450   4.074   0.842 -0.5554 -0.7552  0.2706
 3270TIP3    H131225   3.380   4.096   0.904 -2.0039 -0.2692 -1.4694
 3270TIP3    H231226   3.510   4.149   0.845 -1.3548 -0.0969  0.0709
 3271TIP3   OH231227   0.277   4.833   4.095  0.1985 -0.1490 -0.0657
 3271TIP3    H131228   0.219   4.902   4.065  0.8755 -0.1630 -1.5141
 3271TIP3    H231229   0.344   4.878   4.146 -1.1966 -0.1685  1.8588
 3272TIP3   OH231230   6.096   0.812   4.901 -0.1426 -0.7599  0.1571
 3272TIP3    H131231   6.048   0.785   4.823  0.5050  2.4229 -1.5191
 3272TIP3    H231232   6.175   0.757   4.902  1.1940  0.8422 -3.1016
 3273TIP3   OH231233   1.455   5.352  11.165  0.4817  0.0258  0.5690
 3273TIP3    H131234   1.385   5.360  11.230 -2.0411  0.2104 -1.9797
 3273TIP3    H231235   1.486   5.442  11.153 -1.1515  0.4870 -0.5517
 3274TIP3   OH231236   6.144   2.003   3.700 -0.2431  0.2641  0.1046
 3274TIP3    H131237   6.236   2.013   3.725  0.2064 -1.4155 -0.7536
 3274TIP3    H231238   6.117   1.919   3.738 -1.5376  0.8657  0.6027
 3275TIP3   OH231239   2.276   5.733  13.503 -0.5022 -0.0434 -0.3634
 3275TIP3    H131240   2.273   5.652  13.453 -0.9352 -0.8910  1.0025
 3275TIP3    H231241   2.187   5.768  13.497 -0.5472 -0.1309 -0.2118
 3276TIP3   OH231242   5.582   4.364  10.460  0.2792  0.2713  0.6692
 3276TIP3    H131243   5.553   4.307  10.389  0.7026  0.4464  0.3555
 3276TIP3    H231244   5.626   4.305  10.521  0.3974  0.2027  0.5189
 3277TIP3   OH231245   4.586   5.961  15.420  0.7898 -0.0037  0.6584
 3277TIP3    H131246   4.538   6.020  15.477 -0.4615  0.4252 -0.7823
 3277TIP3    H231247   4.523   5.936  15.352  1.5815 -2.2036  0.6547
 3278TIP3   OH231248   1.349   4.907  12.660 -0.1423 -0.3168 -0.1135
 3278TIP3    H131249   1.299   4.848  12.603  1.0679 -0.6225 -0.9015
 3278TIP3    H231250   1.434   4.864  12.669 -0.7801 -1.1181  3.2775
 3279TIP3   OH231251   4.861   5.712  13.433 -0.1662 -0.2796  0.2968
 3279TIP3    H131252   4.911   5.754  13.503  0.4521  0.1906 -0.4043
 3279TIP3    H231253   4.772   5.704  13.467  0.1708 -0.2391  1.2017
 3280TIP3   OH231254   3.716   2.855  14.293 -0.2643  0.0949 -0.1969
 3280TIP3    H131255   3.624   2.850  14.316 -0.3175  0.3022 -0.3605
 3280TIP3    H231256   3.718   2.909  14.214  0.1898  2.0741  1.0825
 3281TIP3   OH231257   1.517   4.393   2.973  0.2796  0.0581 -0.4239
 3281TIP3    H131258   1.558   4.306   2.976  1.5102  0.5959 -1.0746
 3281TIP3    H231259   1.584   4.450   2.937 -0.0848  1.5419  1.1057
 3282TIP3   OH231260   3.933   5.623  15.459 -0.2812 -0.3646  0.1905
 3282TIP3    H131261   3.878   5.593  15.386 -1.2339 -0.2891  0.8691
 3282TIP3    H231262   3.998   5.553  15.469  0.6304  0.1844 -1.5096
 3283TIP3   OH231263   3.936   2.045  16.445 -0.0132  0.3353 -0.0424
 3283TIP3    H131264   3.846   2.026  16.418 -0.2900  1.8159 -0.2276
 3283TIP3    H231265   3.979   2.074  16.364  0.8460 -1.0477 -0.1091
 3284TIP3   OH231266   5.965   2.263   3.888  0.2372 -0.0646 -0.1476
 3284TIP3    H131267   6.035   2.286   3.827 -0.2548  1.9392  0.0016
 3284TIP3    H231268   5.980   2.170   3.906  1.6887 -0.1706 -1.6115
 3285TIP3   OH231269   1.958   2.819  13.555 -0.0763  0.2132 -0.0197
 3285TIP3    H131270   1.949   2.862  13.471 -2.0649  0.0716  0.0700
 3285TIP3    H231271   1.869   2.790  13.577  0.7666 -1.8078  1.0369
 3286TIP3   OH231272   3.670   6.144   4.898 -0.1652  0.1562  0.7083
 3286TIP3    H131273   3.600   6.085   4.927 -1.1111  0.0118 -1.6730
 3286TIP3    H231274   3.707   6.101   4.821  1.2063  1.2263  0.7304
 3287TIP3   OH231275   5.394   6.165  15.167 -0.4195 -0.2090 -0.1777
 3287TIP3    H131276   5.360   6.113  15.241 -2.3722  0.3473 -0.6263
 3287TIP3    H231277   5.439   6.101  15.112 -2.6242 -1.4916 -0.6263
 3288TIP3   OH231278   4.427   5.780   5.159  0.4124  0.3437 -0.4352
 3288TIP3    H131279   4.397   5.770   5.249  2.2082  2.3600  0.4671
 3288TIP3    H231280   4.359   5.832   5.116 -0.7541 -1.1419 -0.4845
 3289TIP3   OH231281   3.431   6.238   4.511 -0.2300 -0.0811  0.0356
 3289TIP3    H131282   3.349   6.203   4.546 -0.0795 -0.7558 -0.2713
 3289TIP3    H231283   3.446   6.189   4.431 -0.0251  0.7285 -0.4311
 3290TIP3   OH231284   3.594   4.798   4.880  0.4424 -0.1512 -0.2554
 3290TIP3    H131285   3.501   4.809   4.859 -0.3007 -0.6709  2.4127
 3290TIP3    H231286   3.598   4.715   4.929  1.7309  1.3853  2.4611
 3291TIP3   OH231287   1.528   5.731  10.814  0.1396  0.4784  0.1495
 3291TIP3    H131288   1.513   5.684  10.732 -1.6147  1.8113 -0.3543
 3291TIP3    H231289   1.581   5.807  10.789  2.1353 -0.6057  0.8040
 3292TIP3   OH231290   2.567   4.349  10.713  0.6524 -0.5436 -0.1150
 3292TIP3    H131291   2.573   4.373  10.805  2.3155 -1.3224  0.0233
 3292TIP3    H231292   2.511   4.271  10.712  0.1844 -0.2178  0.1555
 3293TIP3   OH231293   5.054   3.291   1.612 -0.7857 -0.0375 -0.0433
 3293TIP3    H131294   4.996   3.358   1.647  0.5374  1.8335 -1.2306
 3293TIP3    H231295   5.007   3.256   1.536 -1.2377 -0.0656  0.2440
 3294TIP3   OH231296   6.418   4.026   5.721  0.0581 -0.7674  0.2062
 3294TIP3    H131297   6.401   4.030   5.815 -0.3248 -0.8826  0.1422
 3294TIP3    H231298   6.485   3.958   5.712  1.3839  0.4468  0.5700
 3295TIP3   OH231299   5.377   6.315   1.430 -0.0159 -0.5894 -0.3031
 3295TIP3    H131300   5.339   6.363   1.356  0.2358  0.2068  0.0745
 3295TIP3    H231301   5.469   6.341   1.431 -0.6923  2.2115  2.3802
 3296TIP3   OH231302   4.322   2.601  14.573  0.0961  0.1498  0.0598
 3296TIP3    H131303   4.247   2.561  14.529  0.0985 -0.8491  0.9362
 3296TIP3    H231304   4.341   2.543  14.646  1.5516  0.5352  0.0201
 3297TIP3   OH231305   4.051   0.446   0.865 -0.1313  0.4197 -0.5498
 3297TIP3    H131306   4.125   0.444   0.803 -0.1424  1.4765 -0.6022
 3297TIP3    H231307   4.088   0.409   0.946 -0.0843 -0.8582 -1.1199
 3298TIP3   OH231308   5.533   5.585  14.483 -0.1406 -0.0296  0.0973
 3298TIP3    H131309   5.603   5.559  14.424  0.1961  1.6763 -0.3269
 3298TIP3    H231310   5.463   5.521  14.468  1.5452 -2.2347  1.0900
 3299TIP3   OH231311   2.476   5.632  16.760 -0.0869  0.3772  0.4740
 3299TIP3    H131312   2.497   5.542  16.734 -1.0645  0.5673 -1.1647
 3299TIP3    H231313   2.391   5.625  16.804 -0.5621  0.5651 -0.3838
 3300TIP3   OH231314   3.145   1.477   1.135 -0.2386 -0.6868  0.0710
 3300TIP3    H131315   3.234   1.445   1.148 -0.1706  0.0533  1.6915
 3300TIP3    H231316   3.100   1.407   1.088  1.0334 -1.2994 -0.2688
 3301TIP3   OH231317   4.135   3.880   5.772  0.0883 -0.3524  0.0989
 3301TIP3    H131318   4.041   3.893   5.785 -0.1782  0.6920 -2.2769
 3301TIP3    H231319   4.173   3.964   5.796  0.2419 -0.2960 -0.3498
 3302TIP3   OH231320   3.267   0.978   1.271 -0.1460  0.1184 -0.2587
 3302TIP3    H131321   3.260   1.043   1.341  0.3883 -0.4650  0.3497
 3302TIP3    H231322   3.199   0.913   1.292  1.0960 -0.9233  0.6722
 3303TIP3   OH231323   6.446   4.721   5.625  0.1671 -0.4214  0.0822
 3303TIP3    H131324   6.474   4.788   5.563  0.2426  0.1432  0.7097
 3303TIP3    H231325   6.454   4.639   5.577  0.5437 -0.0287 -0.5438
 3304TIP3   OH231326   0.066   4.014   1.672  0.1089  0.2595 -0.1796
 3304TIP3    H131327   0.084   4.026   1.765  1.4175  0.0164 -0.3821
 3304TIP3    H231328  -0.013   4.064   1.657  0.5186  1.2681  0.8344
 3305TIP3   OH231329   3.089   3.202   3.922  0.2963  0.9731 -0.5099
 3305TIP3    H131330   3.121   3.119   3.888 -0.2900  0.6179 -0.1991
 3305TIP3    H231331   3.082   3.189   4.017  0.9932  1.6448 -0.3555
 3306TIP3   OH231332   2.234   0.483  12.009 -0.3015 -0.4855 -0.1372
 3306TIP3    H131333   2.312   0.477  11.954 -0.0012 -2.3002  0.4463
 3306TIP3    H231334   2.198   0.395  12.011 -0.3010 -0.5161  2.5648
 3307TIP3   OH231335   5.179   4.987  16.587  0.5512  0.8318  0.2401
 3307TIP3    H131336   5.182   4.923  16.658  0.0968 -0.7627 -1.1282
 3307TIP3    H231337   5.095   4.973  16.545  0.5120  2.2428 -0.2008
 3308TIP3   OH231338   3.975   0.402  13.899 -0.0605  0.1599  0.1174
 3308TIP3    H131339   3.973   0.307  13.899 -0.0127  0.1503  0.7065
 3308TIP3    H231340   3.891   0.428  13.936 -0.4434  0.3736 -0.8715
 3309TIP3   OH231341   1.081   0.599   4.411 -0.1443  0.4475  0.2610
 3309TIP3    H131342   1.023   0.662   4.454  3.1226  2.1178  2.7763
 3309TIP3    H231343   1.132   0.652   4.349 -0.6600 -0.7766 -1.2521
 3310TIP3   OH231344   5.708   3.921   1.399 -0.2268 -0.7683 -0.1091
 3310TIP3    H131345   5.687   3.833   1.430 -2.6616 -0.3186 -0.3138
 3310TIP3    H231346   5.690   3.918   1.305  1.8678 -0.6140 -0.5731
 3311TIP3   OH231347   6.417   4.457  11.614 -0.3862  0.3864  0.4865
 3311TIP3    H131348   6.473   4.499  11.680  1.0678 -1.7872  0.7386
 3311TIP3    H231349   6.356   4.526  11.588  0.6092  2.0604  2.2521
 3312TIP3   OH231350   2.865   3.128  16.953 -0.3978 -0.5062 -0.6234
 3312TIP3    H131351   2.802   3.120  17.024  0.2824  1.4226  0.2726
 3312TIP3    H231352   2.812   3.134  16.874 -1.2418 -0.9236 -0.1004
 3313TIP3   OH231353   5.740   4.610   2.912  0.4008 -0.7282  0.2115
 3313TIP3    H131354   5.687   4.572   2.842 -0.4007  0.7711 -0.0219
 3313TIP3    H231355   5.721   4.555   2.988  1.5301 -2.5742 -0.7696
 3314TIP3   OH231356   1.456   0.224   0.555  0.1330 -0.1045 -0.0931
 3314TIP3    H131357   1.525   0.258   0.612  1.0939 -4.5969  1.8944
 3314TIP3    H231358   1.376   0.261   0.591  1.1463  1.4370  0.6904
 3315TIP3   OH231359   0.427   2.877  10.427 -0.0526 -0.0655 -0.6081
 3315TIP3    H131360   0.384   2.818  10.364  1.3911  2.1642 -3.9414
 3315TIP3    H231361   0.374   2.957  10.424  0.7730  0.5151  0.0827
 3316TIP3   OH231362   5.091   4.297   4.394 -0.2048 -0.2210 -0.2298
 3316TIP3    H131363   5.119   4.291   4.302 -1.4570  0.5234 -0.6910
 3316TIP3    H231364   4.996   4.290   4.390 -0.1628 -2.8045  1.2911
 3317TIP3   OH231365   1.815   6.470  11.377  0.1762 -0.0012 -0.2588
 3317TIP3    H131366   1.788   6.555  11.343  0.7424  0.5057  0.4910
 3317TIP3    H231367   1.911   6.471  11.369  0.1327 -0.8797 -0.9323
 3318TIP3   OH231368   0.180   2.754  17.057  0.3635  0.4150 -0.4968
 3318TIP3    H131369   0.101   2.785  17.101 -0.6946 -0.6775 -1.5385
 3318TIP3    H231370   0.193   2.665  17.092 -0.0803 -0.1910 -1.7931
 3319TIP3   OH231371   0.897   6.102  10.734 -0.1500  0.4994  0.1235
 3319TIP3    H131372   0.871   6.030  10.676  0.4270 -0.2316  0.7562
 3319TIP3    H231373   0.815   6.148  10.753 -0.8356 -1.0203  1.0787
 3320TIP3   OH231374   4.425   2.463  14.775 -0.0888  0.4717  0.3707
 3320TIP3    H131375   4.484   2.537  14.787 -0.6814  1.2086 -1.0820
 3320TIP3    H231376   4.368   2.464  14.852  1.2606  0.2162  1.4017
 3321TIP3   OH231377   5.422   1.314  16.574  0.2978 -0.5016 -0.4546
 3321TIP3    H131378   5.435   1.222  16.596  1.1043 -0.3703 -0.3497
 3321TIP3    H231379   5.333   1.318  16.539 -0.4999 -0.9774  1.4093
 3322TIP3   OH231380   5.812   3.150   5.493  0.3208  0.2642 -0.3497
 3322TIP3    H131381   5.748   3.097   5.445 -1.5065  0.8497  1.3158
 3322TIP3    H231382   5.896   3.105   5.480 -0.9324 -2.3230 -0.0010
 3323TIP3   OH231383   0.393   4.737   5.788  0.0909  0.0272  0.6950
 3323TIP3    H131384   0.443   4.818   5.777 -0.8667  0.5455  0.0036
 3323TIP3    H231385   0.362   4.741   5.878  1.9071 -0.6907  1.4112
 3324TIP3   OH231386   1.137   5.268   3.363 -0.1273  0.0947  0.4584
 3324TIP3    H131387   1.192   5.292   3.288 -0.3698 -1.0021 -0.0786
 3324TIP3    H231388   1.048   5.287   3.334 -0.1741  0.2507  0.7037
 3325TIP3   OH231389   1.304   2.211   3.292  0.4379  0.4324 -0.1287
 3325TIP3    H131390   1.365   2.255   3.351  1.8478  0.1756 -1.3643
 3325TIP3    H231391   1.224   2.201   3.345  1.6749  0.0969  1.7913
 3326TIP3   OH231392   0.225   3.902  11.667  0.2688 -0.3540  0.1078
 3326TIP3    H131393   0.150   3.948  11.630 -0.9047 -1.4634  1.0209
 3326TIP3    H231394   0.284   3.887  11.593 -1.8523 -2.2431 -1.3022
 3327TIP3   OH231395   5.437   0.400  13.927  0.5955  0.1632  0.4807
 3327TIP3    H131396   5.483   0.391  14.010  0.2487  0.7098  0.7365
 3327TIP3    H231397   5.362   0.341  13.935  0.8542 -0.1869  0.3431
 3328TIP3   OH231398   1.703   6.395  15.726  0.0431  0.1833  0.5886
 3328TIP3    H131399   1.797   6.376  15.723  0.0312  0.2417 -0.1855
 3328TIP3    H231400   1.680   6.417  15.636 -1.2285 -2.1836  0.2854
 3329TIP3   OH231401   6.154   4.083   4.344  0.3473 -0.1499 -0.1649
 3329TIP3    H131402   6.090   4.028   4.299  1.7902 -0.8000 -1.5303
 3329TIP3    H231403   6.132   4.075   4.437 -0.2891 -1.9700 -0.4284
 3330TIP3   OH231404   5.847   5.378   5.280 -0.2876  0.0568  0.2005
 3330TIP3    H131405   5.778   5.333   5.230 -1.4350  1.8379  0.0613
 3330TIP3    H231406   5.883   5.441   5.218  0.2782  0.3181  0.7882
 3331TIP3   OH231407   2.559   5.082  16.344 -0.8687  0.1696 -0.7078
 3331TIP3    H131408   2.515   5.162  16.372 -1.1599  0.6015 -2.3013
 3331TIP3    H231409   2.570   5.031  16.424 -0.7988  1.7358  0.3273
 3332TIP3   OH231410   3.068   0.745   2.453  0.4290 -0.3048  0.3018
 3332TIP3    H131411   3.122   0.797   2.394  0.1453  0.2461  0.5152
 3332TIP3    H231412   3.097   0.771   2.541 -1.7700  1.8646  0.5322
 3333TIP3   OH231413   5.694   5.533  12.368 -0.3963 -0.5096  0.2612
 3333TIP3    H131414   5.728   5.566  12.451 -1.0342 -0.2338  0.4197
 3333TIP3    H231415   5.601   5.558  12.369  0.3558  3.1891 -2.2870
 3334TIP3   OH231416   3.132   1.035   3.591  0.0653 -0.0547 -0.0859
 3334TIP3    H131417   3.102   1.039   3.681  0.5416 -0.7163  0.1045
 3334TIP3    H231418   3.058   0.999   3.542 -0.3994  0.8361 -0.0639
 3335TIP3   OH231419   4.543   6.357  10.507  0.0515  0.3054 -0.0021
 3335TIP3    H131420   4.569   6.276  10.550 -0.5763 -0.3433 -0.8177
 3335TIP3    H231421   4.516   6.415  10.579  1.2772  0.1045  0.6547
 3336TIP3   OH231422   5.036   3.398   0.186 -0.2227  0.0892  0.0742
 3336TIP3    H131423   4.994   3.324   0.230 -1.7916  0.3077 -1.0012
 3336TIP3    H231424   4.969   3.467   0.184  0.6859  0.9942 -0.3438
 3337TIP3   OH231425   2.061   0.199   2.422  0.1151 -0.9479  0.4155
 3337TIP3    H131426   2.113   0.219   2.500  0.1833 -1.0801  0.4050
 3337TIP3    H231427   2.023   0.113   2.441 -3.0143  0.6365  1.9704
 3338TIP3   OH231428   0.172   4.818  10.746  0.2222 -0.2649  0.5371
 3338TIP3    H131429   0.227   4.743  10.723 -2.1796 -2.4183  1.3949
 3338TIP3    H231430   0.087   4.799  10.706 -0.8003  1.4206  1.7817
 3339TIP3   OH231431   4.444   4.549  15.713 -0.3356  0.3155 -0.0416
 3339TIP3    H131432   4.366   4.559  15.658 -0.6339 -1.1213  0.0921
 3339TIP3    H231433   4.485   4.468  15.682 -0.8133 -0.8471  2.1972
 3340TIP3   OH231434   3.626   6.322  13.857  0.2962  0.3203 -0.1007
 3340TIP3    H131435   3.675   6.284  13.784  1.1517  0.1715  0.5410
 3340TIP3    H231436   3.674   6.295  13.935  1.5735  3.5099  0.3846
 3341TIP3   OH231437   5.999   1.132   2.140 -0.1300 -0.2602  0.1680
 3341TIP3    H131438   6.072   1.175   2.097  0.4507  0.1165  1.4645
 3341TIP3    H231439   6.009   1.155   2.233 -2.8429  1.2013  0.2009
 3342TIP3   OH231440   6.040   3.702   1.517 -0.1313  0.0421 -0.6517
 3342TIP3    H131441   6.064   3.624   1.468 -1.0987 -0.8757  0.2801
 3342TIP3    H231442   6.119   3.727   1.565  0.0560 -0.6398 -0.6069
 3343TIP3   OH231443   0.275   2.691  15.253 -0.8145  0.1599 -0.3191
 3343TIP3    H131444   0.332   2.631  15.203  2.5197  1.1638  1.9317
 3343TIP3    H231445   0.273   2.654  15.341  0.8625  2.8781  0.9887
 3344TIP3   OH231446   6.694   2.966  16.119  0.0094 -0.3711  0.3340
 3344TIP3    H131447   6.707   2.946  16.212 -0.8212 -0.7599  0.3780
 3344TIP3    H231448   6.614   2.919  16.096 -0.1031  0.1840 -0.4405
 3345TIP3   OH231449   2.295   3.126   3.209  0.0483 -0.2013 -0.0649
 3345TIP3    H131450   2.316   3.218   3.198  1.9746 -0.2881  2.1100
 3345TIP3    H231451   2.214   3.126   3.260  0.2345  0.3150  0.2418
 3346TIP3   OH231452   1.589   0.665   0.528 -0.2774  0.9512  0.6567
 3346TIP3    H131453   1.663   0.625   0.482 -0.8197 -0.0578  0.6211
 3346TIP3    H231454   1.600   0.636   0.619 -0.7783  0.5501  0.5942
 3347TIP3   OH231455   6.361   0.333  12.371 -0.2105 -0.3880  0.1155
 3347TIP3    H131456   6.380   0.244  12.341 -0.8662 -0.0593 -1.3719
 3347TIP3    H231457   6.446   0.376  12.375  0.1265 -1.0889  0.9435
 3348TIP3   OH231458   0.709   3.364  14.329 -0.2222 -0.2098  0.3612
 3348TIP3    H131459   0.633   3.416  14.356 -1.0950 -1.1296 -0.2680
 3348TIP3    H231460   0.781   3.397  14.383 -1.0692  0.6526  0.9935
 3349TIP3   OH231461   2.835   4.471  11.254  0.3296  0.4931 -0.4894
 3349TIP3    H131462   2.859   4.521  11.176 -0.6232 -0.7821 -1.6533
 3349TIP3    H231463   2.740   4.459  11.247  0.0547  1.1329  1.3680
 3350TIP3   OH231464   4.715   3.781   0.623  0.5593  0.0628  0.2797
 3350TIP3    H131465   4.642   3.795   0.683  1.7167 -1.2206  2.0987
 3350TIP3    H231466   4.761   3.865   0.622 -1.9018  1.5692 -2.4642
 3351TIP3   OH231467   3.866   4.092  12.970  0.0357  0.3344  0.8638
 3351TIP3    H131468   3.912   4.024  13.019  0.7100  0.1306 -0.0175
 3351TIP3    H231469   3.912   4.096  12.886 -0.3967  1.4330  0.6597
 3352TIP3   OH231470   6.235   1.307   0.618  0.2410 -0.1521  0.0012
 3352TIP3    H131471   6.248   1.306   0.712 -1.6982  1.9459  0.3786
 3352TIP3    H231472   6.317   1.342   0.583  0.5645  0.1293  1.0062
 3353TIP3   OH231473   4.636   0.847  16.749 -0.1182 -0.3672 -0.0664
 3353TIP3    H131474   4.686   0.790  16.807 -0.1688 -0.3172  0.0271
 3353TIP3    H231475   4.564   0.792  16.718 -0.8213 -0.0356  0.9057
 3354TIP3   OH231476   6.613   4.621  12.024 -0.2375 -0.5697  0.1030
 3354TIP3    H131477   6.639   4.700  12.071  1.6588 -0.1813 -1.4700
 3354TIP3    H231478   6.519   4.615  12.038  0.1383 -0.2959  3.5754
 3355TIP3   OH231479   2.919   5.436  14.725 -0.3322  0.3748 -0.4377
 3355TIP3    H131480   2.980   5.508  14.708 -1.2339  1.2090 -0.2655
 3355TIP3    H231481   2.843   5.479  14.765  1.3952 -1.2103  5.6441
 3356TIP3   OH231482   2.893   4.935   2.511 -0.2333  0.5834  0.2920
 3356TIP3    H131483   2.820   4.925   2.450 -1.7350  0.6190  2.0004
 3356TIP3    H231484   2.940   4.851   2.506  0.1334  0.8461 -1.4051
 3357TIP3   OH231485   1.254   5.666  15.272 -0.1927  0.2574  0.3665
 3357TIP3    H131486   1.346   5.662  15.296 -0.2570 -1.4319  0.4115
 3357TIP3    H231487   1.240   5.757  15.246  1.5745  0.4337 -0.0672
 3358TIP3   OH231488   2.638   3.985  14.909 -0.1086  0.1001 -0.8634
 3358TIP3    H131489   2.587   3.906  14.928  1.0051 -0.4094  0.0964
 3358TIP3    H231490   2.623   4.042  14.985  1.2879 -0.3467 -0.2338
 3359TIP3   OH231491   1.049   4.921  15.072  0.0944 -0.0084 -0.0994
 3359TIP3    H131492   1.101   4.842  15.086 -1.3132 -1.1622 -1.0377
 3359TIP3    H231493   1.106   4.993  15.100  2.6577 -1.0699 -2.1541
 3360TIP3   OH231494   5.105   1.088  11.294  0.2350 -0.1897  0.0904
 3360TIP3    H131495   5.195   1.108  11.318 -0.6369  1.4330  2.3036
 3360TIP3    H231496   5.108   1.072  11.200  3.0329 -1.6480  0.3265
 3361TIP3   OH231497   0.528   5.648  11.390  0.2636  0.1466 -0.2471
 3361TIP3    H131498   0.563   5.725  11.434 -2.4444  0.5175  1.5238
 3361TIP3    H231499   0.527   5.580  11.458 -0.6094 -0.3870 -0.7676
 3362TIP3   OH231500   1.708   2.123  14.843  0.0319 -1.0460 -0.0514
 3362TIP3    H131501   1.703   2.129  14.939  0.4857 -1.3305 -0.0088
 3362TIP3    H231502   1.653   2.196  14.812 -0.7263 -1.4069  0.4139
 3363TIP3   OH231503   4.115   5.443   0.015  0.9092 -0.5391  0.4132
 3363TIP3    H131504   4.044   5.391   0.051  1.4406 -0.3113  1.8538
 3363TIP3    H231505   4.077   5.488  -0.060 -0.1930 -1.1587  0.5868
 3364TIP3   OH231506   5.688   3.133   2.936  0.2916 -0.0193 -0.2037
 3364TIP3    H131507   5.670   3.175   3.020  0.3205 -0.4479  0.0167
 3364TIP3    H231508   5.621   3.169   2.877 -1.0825 -1.3045  0.5111
 3365TIP3   OH231509   0.745   2.788   2.190  0.1350 -0.4581 -0.1804
 3365TIP3    H131510   0.732   2.729   2.116  1.4474 -0.6180 -0.3074
 3365TIP3    H231511   0.776   2.870   2.152 -2.2886  0.6030 -0.0598
 3366TIP3   OH231512   4.206   5.140   4.112  0.1976 -0.4822  0.5215
 3366TIP3    H131513   4.210   5.229   4.077  1.7095  0.0135  1.8420
 3366TIP3    H231514   4.122   5.106   4.080 -0.5806  1.5262  0.2484
 3367TIP3   OH231515   2.306   6.467   2.374 -0.0918  0.3032 -0.0244
 3367TIP3    H131516   2.360   6.495   2.300  1.3336 -2.3943 -0.1115
 3367TIP3    H231517   2.295   6.373   2.362 -1.6837  0.1612  2.0394
 3368TIP3   OH231518   5.817   5.043   2.469 -0.7836 -0.1393 -0.1120
 3368TIP3    H131519   5.746   5.008   2.415 -0.4932 -0.2511 -0.4271
 3368TIP3    H231520   5.789   5.028   2.559 -2.0972  1.6485 -0.1686
 3369TIP3   OH231521   0.765   0.532   5.861  0.5726 -0.5640 -0.0511
 3369TIP3    H131522   0.812   0.471   5.803  1.2816 -0.0841  0.0057
 3369TIP3    H231523   0.811   0.616   5.849  0.2829 -0.2980  0.6830
 3370TIP3   OH231524   6.485   5.745  16.321 -0.3674  0.4659 -0.2536
 3370TIP3    H131525   6.429   5.815  16.354 -1.3449 -0.6245  0.4726
 3370TIP3    H231526   6.437   5.665  16.342  0.8511 -0.4337 -0.8364
 3371TIP3   OH231527   3.470   4.121  12.329  0.3310 -0.2816  0.4243
 3371TIP3    H131528   3.435   4.191  12.274  0.1198  0.3995  1.3920
 3371TIP3    H231529   3.545   4.160  12.372  2.6679 -1.8520 -1.9507
 3372TIP3   OH231530   5.198   6.585   4.736 -0.8959 -0.1578  0.0962
 3372TIP3    H131531   5.245   6.502   4.722  1.7751  1.3421 -0.5120
 3372TIP3    H231532   5.190   6.592   4.831  0.1180 -0.4914  0.2247
 3373TIP3   OH231533   4.304   3.476  16.342  0.2283  0.2305  0.4250
 3373TIP3    H131534   4.216   3.508  16.320  0.6058  0.7153 -0.3715
 3373TIP3    H231535   4.287   3.400  16.399 -0.7132  0.1194  0.0193
 3374TIP3   OH231536   1.957   3.741  14.558  0.1940 -0.0124 -0.0158
 3374TIP3    H131537   2.014   3.665  14.555 -1.1013 -1.0699  0.8317
 3374TIP3    H231538   1.998   3.805  14.500  0.8546 -1.6721 -1.4613
 3375TIP3   OH231539   0.613   5.240  15.634  0.0494  0.1430  0.1145
 3375TIP3    H131540   0.561   5.316  15.660  1.1802  1.4312 -1.1930
 3375TIP3    H231541   0.679   5.276  15.575  2.9001 -1.3075  2.2252
 3376TIP3   OH231542   0.368   0.010  12.998 -0.1523 -0.5046 -0.1444
 3376TIP3    H131543   0.337  -0.034  13.077  1.0178  0.8117  1.0856
 3376TIP3    H231544   0.309   0.084  12.987  0.5183  0.1085  0.3105
 3377TIP3   OH231545   0.125   1.132  12.384  0.0820  0.5428  0.1437
 3377TIP3    H131546   0.184   1.142  12.459  0.6567  0.3147 -0.2741
 3377TIP3    H231547   0.063   1.205  12.393 -0.6285 -0.1804  1.5257
 3378TIP3   OH231548   4.164   1.364  16.352  0.2498 -0.0063 -0.7336
 3378TIP3    H131549   4.253   1.342  16.325  0.9537  2.0843 -0.2493
 3378TIP3    H231550   4.169   1.454  16.382 -1.9749  0.0452 -0.3441
 3379TIP3   OH231551   1.519   1.365   2.811 -0.3863 -0.7811 -0.4149
 3379TIP3    H131552   1.459   1.291   2.819  0.1838 -1.2700 -0.5884
 3379TIP3    H231553   1.463   1.441   2.796 -0.8550 -1.7019 -4.0495
 3380TIP3   OH231554   2.623   2.174  13.698  0.3179  0.1026 -0.2651
 3380TIP3    H131555   2.548   2.199  13.644  0.2523  0.0734 -0.1875
 3380TIP3    H231556   2.693   2.154  13.636 -0.2633 -1.6346 -0.4118
 3381TIP3   OH231557   1.907   1.727  14.865  0.0670  0.2821 -0.0673
 3381TIP3    H131558   1.853   1.786  14.812  0.3493  0.7716  0.1877
 3381TIP3    H231559   1.987   1.716  14.815 -0.2577 -0.4509 -0.4490
 3382TIP3   OH231560   4.469   3.933   2.374  0.2924 -0.3699  0.2921
 3382TIP3    H131561   4.529   3.983   2.429  0.2250 -0.2882  0.2910
 3382TIP3    H231562   4.517   3.853   2.353 -0.2176 -1.0800  1.6642
 3383TIP3   OH231563   0.006   0.116   1.433  0.3748 -0.3084 -0.5621
 3383TIP3    H131564  -0.083   0.142   1.409  0.3800 -0.9522 -1.2957
 3383TIP3    H231565   0.058   0.196   1.423 -0.0450 -0.0273 -0.5092
 3384TIP3   OH231566   3.373   3.513   0.406  0.4770  0.1390  0.7407
 3384TIP3    H131567   3.459   3.488   0.372  0.1742  1.8910 -1.5054
 3384TIP3    H231568   3.312   3.492   0.336 -0.7082  0.5589  1.6122
 3385TIP3   OH231569   3.176   1.894  16.229 -0.1227 -0.3561  0.3301
 3385TIP3    H131570   3.145   1.967  16.176 -1.5081 -1.1724 -0.0412
 3385TIP3    H231571   3.240   1.850  16.174 -0.1058 -0.0576  0.1125
 3386TIP3   OH231572   2.024   5.980   6.243  0.0370  0.5080 -0.0786
 3386TIP3    H131573   1.964   6.003   6.171  0.0414 -0.1164 -0.2884
 3386TIP3    H231574   1.980   5.907   6.288  1.0074 -0.5014 -0.7275
 3387TIP3   OH231575   5.609   2.103   0.224  0.3696  0.2660  0.2150
 3387TIP3    H131576   5.663   2.113   0.302 -2.4662 -1.2955  2.5658
 3387TIP3    H231577   5.558   2.183   0.219 -3.0463 -1.4742  3.1436
 3388TIP3   OH231578   4.581   3.671  13.976 -0.4850  0.3658  0.5589
 3388TIP3    H131579   4.673   3.689  13.959 -0.0575 -0.0911  2.2591
 3388TIP3    H231580   4.548   3.636  13.893  0.6454  1.3126 -0.3203
 3389TIP3   OH231581   4.274   0.621   6.285 -0.2662  0.1283 -0.3364
 3389TIP3    H131582   4.215   0.633   6.210 -0.0514 -0.4876 -0.6105
 3389TIP3    H231583   4.216   0.610   6.360 -0.5186 -0.7278 -0.6442
 3390TIP3   OH231584   3.268   1.276  12.336  0.7900 -0.0483  0.0729
 3390TIP3    H131585   3.256   1.237  12.249  1.4029 -0.3007  0.0995
 3390TIP3    H231586   3.181   1.273  12.375 -0.0504  2.1979 -1.4060
 3391TIP3   OH231587   0.185   4.508  12.990 -0.3394  0.3414  0.3889
 3391TIP3    H131588   0.258   4.482  12.934 -0.0076  1.5892  0.2139
 3391TIP3    H231589   0.133   4.567  12.936 -0.6515  0.6429  1.0066
 3392TIP3   OH231590   2.572   1.581   3.521  0.2143 -0.4517  0.1975
 3392TIP3    H131591   2.597   1.653   3.464 -0.7402 -0.3556 -0.1139
 3392TIP3    H231592   2.484   1.556   3.493 -0.4966 -0.0647  1.9347
 3393TIP3   OH231593   2.683   1.134  10.792 -0.1519 -0.5071 -0.3043
 3393TIP3    H131594   2.742   1.110  10.863  1.2606 -1.0692 -1.6233
 3393TIP3    H231595   2.740   1.177  10.727 -1.1904 -1.0218 -1.5936
 3394TIP3   OH231596   6.813   3.760   4.300  0.1319 -0.2693 -0.3077
 3394TIP3    H131597   6.848   3.813   4.372  2.1587 -1.0236 -0.6909
 3394TIP3    H231598   6.723   3.739   4.328  0.6609 -0.0490  1.7298
 3395TIP3   OH231599   5.593   2.810   3.632 -0.6353 -0.4720  0.5352
 3395TIP3    H131600   5.533   2.884   3.637  0.1363  0.1068  1.5214
 3395TIP3    H231601   5.585   2.768   3.718 -2.1608 -2.4325 -0.4822
 3396TIP3   OH231602   2.674   3.532   4.728 -0.2544 -0.1559 -0.1964
 3396TIP3    H131603   2.646   3.623   4.713 -1.0375 -0.2673  0.5097
 3396TIP3    H231604   2.677   3.494   4.640  0.7431  0.7288 -0.5670
 3397TIP3   OH231605   6.251   0.271  11.646 -0.7635 -0.2742  0.6892
 3397TIP3    H131606   6.277   0.199  11.704 -1.4572 -0.6538  0.5378
 3397TIP3    H231607   6.272   0.350  11.695  2.1384 -0.4978 -0.0392
 3398TIP3   OH231608   2.816   3.667  12.764 -0.0254  0.7197 -0.0233
 3398TIP3    H131609   2.893   3.722  12.772 -0.2682  1.0765 -0.0757
 3398TIP3    H231610   2.841   3.599  12.701  0.6892  0.0161  0.9993
 3399TIP3   OH231611   1.865   5.990  13.074  0.2198  0.0557 -0.0250
 3399TIP3    H131612   1.854   5.915  13.016  2.7927  0.9606 -1.8569
 3399TIP3    H231613   1.894   5.953  13.157 -1.6084 -1.1260  0.1425
 3400TIP3   OH231614   4.307   5.097  16.911  0.1175  0.2026 -0.2680
 3400TIP3    H131615   4.229   5.153  16.914  0.2761  0.3911  0.6863
 3400TIP3    H231616   4.379   5.156  16.932  0.4240 -0.1402 -0.3577
 3401TIP3   OH231617   5.508   4.722  14.764 -0.0545 -0.3034 -0.3579
 3401TIP3    H131618   5.469   4.737  14.677 -0.4698  2.3446  0.1879
 3401TIP3    H231619   5.586   4.776  14.765  0.6735 -1.3288  0.5005
 3402TIP3   OH231620   0.732   2.306  14.606 -0.1116  0.0632 -0.3376
 3402TIP3    H131621   0.820   2.297  14.641 -0.4265  0.2221  0.5211
 3402TIP3    H231622   0.744   2.318  14.512  0.8062  0.7280 -0.1369
 3403TIP3   OH231623   4.063   5.124  12.079 -0.0157 -0.0073  0.2044
 3403TIP3    H131624   4.143   5.136  12.131 -0.5284 -0.3987  1.1065
 3403TIP3    H231625   4.061   5.030  12.061  0.7799  0.2830 -1.5785
 3404TIP3   OH231626   0.180   2.553   5.215 -0.5508  0.1594 -0.1798
 3404TIP3    H131627   0.195   2.640   5.177 -0.1219  0.8981  1.6209
 3404TIP3    H231628   0.258   2.503   5.191 -0.2557  0.6288 -0.2185
 3405TIP3   OH231629   0.578   6.481  15.530 -0.4860 -0.0864 -0.5408
 3405TIP3    H131630   0.521   6.552  15.559  0.0399 -0.7513  2.4865
 3405TIP3    H231631   0.664   6.521  15.518 -0.9337  0.3961 -2.3809
 3406TIP3   OH231632   6.523   5.610  11.479  0.6327  0.2728  0.4074
 3406TIP3    H131633   6.581   5.670  11.526  1.8506 -0.2887 -0.3182
 3406TIP3    H231634   6.578   5.573  11.410 -0.8185  0.3082 -0.8179
 3407TIP3   OH231635   3.832   5.483   1.578  0.3112 -0.3305  0.1711
 3407TIP3    H131636   3.910   5.439   1.613 -0.1875 -0.7379  0.8048
 3407TIP3    H231637   3.861   5.523   1.496  1.0901 -0.7979  0.2105
 3408TIP3   OH231638   5.175   3.307  15.311  0.0569 -0.0994  0.6261
 3408TIP3    H131639   5.221   3.387  15.286 -3.0736  1.3266 -1.1790
 3408TIP3    H231640   5.177   3.252  15.233  0.1660 -0.7482  1.0807
 3409TIP3   OH231641   0.731   3.071   4.812 -0.2522 -0.6937  0.4415
 3409TIP3    H131642   0.636   3.063   4.811 -0.1970 -1.6928 -1.7114
 3409TIP3    H231643   0.762   2.995   4.762  1.6733 -0.2192  0.8296
 3410TIP3   OH231644   3.616   2.101  16.626 -0.3092  0.3915 -0.9045
 3410TIP3    H131645   3.694   2.083  16.679 -0.3740 -1.5765 -1.4107
 3410TIP3    H231646   3.630   2.189  16.593  0.3326  1.1907  1.3204
 3411TIP3   OH231647   2.578   5.908  12.595 -0.3367  0.1166 -0.4346
 3411TIP3    H131648   2.591   6.001  12.573  0.1262 -0.1255 -1.2366
 3411TIP3    H231649   2.615   5.900  12.683  0.3208  0.5430 -0.6585
 3412TIP3   OH231650   2.027   6.700  15.595 -0.0655 -0.6268  0.2300
 3412TIP3    H131651   2.002   6.625  15.649  0.4451 -0.5339  0.6101
 3412TIP3    H231652   2.107   6.671  15.550 -0.2212 -0.5322 -0.1122
 3413TIP3   OH231653   4.336   3.725  11.164  0.1167  0.6748  0.2186
 3413TIP3    H131654   4.254   3.742  11.211  0.4042  0.2699  0.8832
 3413TIP3    H231655   4.335   3.785  11.090 -1.8973 -0.9261 -1.1626
 3414TIP3   OH231656   2.999   5.445  10.497  0.5954 -0.0421  0.1995
 3414TIP3    H131657   2.928   5.423  10.557 -0.6267 -2.3586 -1.9366
 3414TIP3    H231658   3.035   5.528  10.531 -2.8454  1.0373  1.5813
 3415TIP3   OH231659   2.985   3.270   3.680  0.4786 -0.3290 -0.2008
 3415TIP3    H131660   2.895   3.252   3.710  0.6886  0.4557  0.9888
 3415TIP3    H231661   3.039   3.257   3.758  0.9788  2.4620  0.0262
 3416TIP3   OH231662   0.027   3.145   3.444 -0.1906  0.1092  0.0982
 3416TIP3    H131663   0.105   3.091   3.458  0.2505  0.1446 -1.9923
 3416TIP3    H231664   0.031   3.171   3.352 -2.9624 -0.3189 -0.2325
 3417TIP3   OH231665   2.092   5.262  11.798  0.1683 -0.0005 -0.1948
 3417TIP3    H131666   2.062   5.233  11.884  0.0162  0.3242 -0.1349
 3417TIP3    H231667   2.082   5.357  11.800  0.1542  0.0087 -0.5749
 3418TIP3   OH231668   3.335   3.695   6.176 -0.4231 -0.3475 -0.4324
 3418TIP3    H131669   3.410   3.723   6.124  1.0283 -0.7919  1.2801
 3418TIP3    H231670   3.329   3.760   6.246 -0.9499 -0.8870  0.0393
 3419TIP3   OH231671   1.638   1.647  11.464  0.3546  0.5872  0.0025
 3419TIP3    H131672   1.724   1.606  11.471  0.9956  1.9788  0.7079
 3419TIP3    H231673   1.645   1.703  11.387  0.0712  0.6835  0.0471
 3420TIP3   OH231674   5.690   2.359  14.631  0.4551  0.2480 -0.0435
 3420TIP3    H131675   5.782   2.352  14.606  0.4413  1.6205 -0.5353
 3420TIP3    H231676   5.654   2.426  14.573 -0.5735  0.5698  0.9302
 3421TIP3   OH231677   6.220   5.592  14.013 -0.5163  0.0345  0.1938
 3421TIP3    H131678   6.274   5.544  13.950 -0.5701  0.8272 -0.4755
 3421TIP3    H231679   6.136   5.604  13.969 -0.8856 -0.2533  0.8072
 3422TIP3   OH231680   4.014   2.021   4.311  1.0023 -0.1502  0.0559
 3422TIP3    H131681   3.986   1.931   4.293  1.0552 -0.3147  0.7708
 3422TIP3    H231682   4.063   2.015   4.393  0.4892  0.6301  0.4295
 3423TIP3   OH231683   0.839   4.587   1.525 -0.0084 -0.1928 -0.5209
 3423TIP3    H131684   0.836   4.500   1.565  2.4761 -0.5636 -1.0189
 3423TIP3    H231685   0.896   4.576   1.449 -0.5574  1.6402 -1.2292
 3424TIP3   OH231686   3.637   0.690  11.717 -0.1343 -0.2502  0.4179
 3424TIP3    H131687   3.725   0.723  11.733  0.9590 -2.6086 -0.2936
 3424TIP3    H231688   3.593   0.696  11.802  1.2234 -0.4271  1.1644
 3425TIP3   OH231689   4.034   2.178  12.441 -0.2965  0.3437  0.4212
 3425TIP3    H131690   4.096   2.229  12.493  0.0172  1.3859 -0.9059
 3425TIP3    H231691   3.956   2.234  12.435 -0.9115 -0.4200  1.0135
 3426TIP3   OH231692   2.468   4.819  15.255 -0.8247  0.2799 -0.5778
 3426TIP3    H131693   2.471   4.733  15.296 -1.3220  0.5569  0.0644
 3426TIP3    H231694   2.473   4.801  15.161  0.2187 -0.3744 -0.4128
 3427TIP3   OH231695   1.218   0.746  17.064 -0.5118 -0.0435 -0.3796
 3427TIP3    H131696   1.200   0.686  16.992  0.5381 -0.3738 -0.3856
 3427TIP3    H231697   1.242   0.689  17.137  2.7742  0.3396 -1.0120
 3428TIP3   OH231698   0.198   3.231   0.157 -0.2125  0.3330  0.6278
 3428TIP3    H131699   0.235   3.146   0.183 -1.4472  0.3805  2.8667
 3428TIP3    H231700   0.152   3.213   0.076 -2.3841 -1.7843  2.1811
 3429TIP3   OH231701   4.803   4.431  14.903  0.3861  0.5392  0.1967
 3429TIP3    H131702   4.711   4.411  14.920  0.6438  1.3451  3.0234
 3429TIP3    H231703   4.801   4.500  14.836 -0.9931 -0.1420 -0.5007
 3430TIP3   OH231704   3.833   2.765  17.039  0.1720 -0.1286  0.2971
 3430TIP3    H131705   3.913   2.719  17.066  0.3130  0.4955  0.9785
 3430TIP3    H231706   3.799   2.713  16.966  0.3637 -1.2765  0.9892
 3431TIP3   OH231707   0.554   5.499   4.960 -0.2984 -0.5658 -0.1293
 3431TIP3    H131708   0.517   5.430   5.015  1.4153 -0.5861  1.0478
 3431TIP3    H231709   0.570   5.572   5.020  0.1167 -0.0070 -0.9073
 3432TIP3   OH231710   0.355   2.665  13.974 -0.9237  0.7634 -0.3063
 3432TIP3    H131711   0.315   2.609  13.907 -0.4654  1.1421 -0.9025
 3432TIP3    H231712   0.319   2.752  13.957 -1.2644  0.7569  0.3229
 3433TIP3   OH231713   0.522   0.942  15.248  0.5524 -0.2375 -0.0260
 3433TIP3    H131714   0.579   0.884  15.198 -0.5613 -1.6136  0.2345
 3433TIP3    H231715   0.514   0.900  15.334 -1.2805 -0.4251 -0.2400
 3434TIP3   OH231716   3.630   5.028   2.950  0.0399 -0.8453 -0.4847
 3434TIP3    H131717   3.606   4.939   2.921  0.1976 -1.4170  1.0320
 3434TIP3    H231718   3.645   5.019   3.045  1.1569  0.5805 -0.4918
 3435TIP3   OH231719   2.841   2.796  12.579  0.2007 -0.3850  0.2636
 3435TIP3    H131720   2.902   2.770  12.649  1.2278  0.1578 -0.4035
 3435TIP3    H231721   2.838   2.891  12.584 -0.0131 -0.3662 -0.1882
 3436TIP3   OH231722   6.067   1.707  12.492 -0.2356  0.0881  0.1877
 3436TIP3    H131723   6.031   1.751  12.415 -1.4914  0.6343  1.0549
 3436TIP3    H231724   6.083   1.777  12.554  3.1688 -0.0060 -0.3955
 3437TIP3   OH231725   3.654   4.923  11.589  0.1297  0.2368 -0.0464
 3437TIP3    H131726   3.685   4.858  11.525  0.2755 -0.0791  0.3393
 3437TIP3    H231727   3.661   5.007  11.544  0.8898  0.0945 -0.2064
 3438TIP3   OH231728   3.753   6.680   5.166 -0.4612  0.1244 -0.7214
 3438TIP3    H131729   3.801   6.614   5.215  0.3634  1.3435  0.1470
 3438TIP3    H231730   3.742   6.641   5.079  2.2095 -0.1793 -1.0030
 3439TIP3   OH231731   3.437   3.061   5.857 -0.7625 -0.1983 -0.2935
 3439TIP3    H131732   3.344   3.066   5.836 -1.5635 -1.4207  2.4491
 3439TIP3    H231733   3.445   2.983   5.912  2.0430 -0.5481 -1.0749
 3440TIP3   OH231734   5.915   2.206   4.204  0.3350  0.4355  0.4992
 3440TIP3    H131735   5.950   2.246   4.125 -2.5410 -0.2101 -1.2697
 3440TIP3    H231736   5.870   2.277   4.250  0.0245  0.3703  0.3028
 3441TIP3   OH231737   6.207   3.665  12.242 -0.0010  0.1555 -0.3279
 3441TIP3    H131738   6.180   3.594  12.300  0.5830 -0.0151 -0.2539
 3441TIP3    H231739   6.293   3.638  12.210  0.2517  0.8533 -0.2549
 3442TIP3   OH231740   3.810   2.635   3.299  0.4023  1.2195  0.5561
 3442TIP3    H131741   3.719   2.606   3.295  1.4578 -2.6610  0.8472
 3442TIP3    H231742   3.851   2.579   3.365  3.1188  2.5117  0.1227
 3443TIP3   OH231743   3.405   4.619   3.568 -0.5031  0.0824 -0.1340
 3443TIP3    H131744   3.338   4.644   3.631  1.1736  0.9792  1.4038
 3443TIP3    H231745   3.406   4.523   3.570  0.3603  0.0772  2.2571
 3444TIP3   OH231746   3.199   0.640   5.744 -0.5064 -0.0763  0.0892
 3444TIP3    H131747   3.294   0.647   5.759 -0.4677  1.0698 -0.5676
 3444TIP3    H231748   3.191   0.584   5.667 -0.3285  0.2469 -0.1671
 3445TIP3   OH231749   2.045   5.547   5.054 -0.2084  0.0574 -0.3862
 3445TIP3    H131750   2.108   5.613   5.025 -1.4905  2.0174  1.0642
 3445TIP3    H231751   2.076   5.521   5.141  0.1563 -1.1736 -0.8478
 3446TIP3   OH231752   3.820   0.553   2.299  0.3159 -0.4251  0.3147
 3446TIP3    H131753   3.790   0.591   2.216  0.4248  0.0345  0.4796
 3446TIP3    H231754   3.900   0.601   2.319  0.2154 -0.4408  0.7568
 3447TIP3   OH231755   2.568   4.002  11.602  0.8770 -0.3310  0.1369
 3447TIP3    H131756   2.607   4.089  11.618 -0.1210  0.2481 -0.4795
 3447TIP3    H231757   2.477   4.021  11.579  0.9014 -1.4665 -0.9996
 3448TIP3   OH231758   1.362   3.406  12.250  0.2333 -0.1638  0.0436
 3448TIP3    H131759   1.272   3.414  12.218  0.4932 -1.0619 -0.9573
 3448TIP3    H231760   1.415   3.440  12.178  0.7621 -0.7710  0.1471
 3449TIP3   OH231761   3.040   6.085   2.333 -0.3209  0.0168 -0.3053
 3449TIP3    H131762   3.028   6.089   2.428  0.0874 -2.0266 -0.1367
 3449TIP3    H231763   3.129   6.051   2.321 -0.6852 -0.5966 -1.4087
 3450TIP3   OH231764   3.272   3.971   3.876 -0.2123  0.0027  0.1857
 3450TIP3    H131765   3.208   3.980   3.806 -0.4695 -2.3492  0.0483
 3450TIP3    H231766   3.341   3.915   3.840  2.2036  2.7373  0.2047
 3451TIP3   OH231767   5.810   4.432  13.222 -0.0132 -0.4895 -0.1900
 3451TIP3    H131768   5.832   4.469  13.137  0.0348  0.2501  0.1349
 3451TIP3    H231769   5.736   4.485  13.253 -1.0045 -1.6789 -0.4045
 3452TIP3   OH231770   2.516   0.417  15.055 -0.2092 -0.3793  0.3619
 3452TIP3    H131771   2.564   0.441  14.975 -0.0320 -1.5912  0.0952
 3452TIP3    H231772   2.571   0.351  15.097 -0.3467  0.1911  1.4566
 3453TIP3   OH231773   2.906   2.391  16.008 -0.0300  0.2419  0.7589
 3453TIP3    H131774   2.975   2.456  16.001 -0.9472  1.0724 -1.1730
 3453TIP3    H231775   2.897   2.354  15.920 -0.8832 -1.0977  1.3593
 3454TIP3   OH231776   2.281   1.790   3.571 -0.1487 -0.0379 -0.0459
 3454TIP3    H131777   2.340   1.808   3.498  2.6968 -0.4837  1.9549
 3454TIP3    H231778   2.336   1.798   3.649 -2.4994 -1.6333  1.9504
 3455TIP3   OH231779   4.824   4.690   4.735 -0.1005 -0.7972  0.3447
 3455TIP3    H131780   4.861   4.702   4.823  0.4312 -0.3245  0.0597
 3455TIP3    H231781   4.749   4.750   4.732  0.8733  0.4352 -0.0938
 3456TIP3   OH231782   6.067   1.093   2.669  0.0059  0.3854 -0.1653
 3456TIP3    H131783   6.086   1.140   2.588  0.1427  1.1905  0.3272
 3456TIP3    H231784   5.987   1.043   2.649 -1.6351  2.7620  0.0289
 3457TIP3   OH231785   4.670   4.315   1.012 -0.0401 -0.0969  0.2121
 3457TIP3    H131786   4.585   4.271   1.020 -0.6682  0.2930 -3.1169
 3457TIP3    H231787   4.650   4.407   1.027  0.5224 -0.3077  2.8441
 3458TIP3   OH231788   6.541   3.211   2.423 -0.1448  0.2875  0.8325
 3458TIP3    H131789   6.622   3.251   2.391 -0.3817 -0.4145 -0.7408
 3458TIP3    H231790   6.507   3.274   2.487  2.4890 -0.1907  2.8593
 3459TIP3   OH231791   1.957   1.479   5.179 -0.0458 -0.4729  0.2243
 3459TIP3    H131792   1.876   1.530   5.171 -0.2403 -0.8293 -0.1257
 3459TIP3    H231793   2.001   1.516   5.255 -1.3371 -1.3737  1.4768
 3460TIP3   OH231794   4.776   1.396   2.135  0.4673  0.2434 -0.5035
 3460TIP3    H131795   4.700   1.453   2.148 -0.5408 -0.8982 -1.1518
 3460TIP3    H231796   4.781   1.344   2.215 -1.6269 -2.0818 -1.7030
 3461TIP3   OH231797   6.556   1.506  10.547 -0.0788  0.0333  0.2493
 3461TIP3    H131798   6.557   1.427  10.601 -1.5262  0.1194  0.4274
 3461TIP3    H231799   6.634   1.555  10.574  1.4550 -1.8068 -0.6201
 3462TIP3   OH231800   2.891   6.260   0.836 -0.9389  0.5595  0.2399
 3462TIP3    H131801   2.952   6.335   0.836 -0.0647 -0.1256 -0.3185
 3462TIP3    H231802   2.948   6.183   0.842 -1.7997 -0.0855  0.3134
 3463TIP3   OH231803   1.553   0.222   6.139  0.2863 -0.2479  0.2825
 3463TIP3    H131804   1.463   0.226   6.109  1.0023 -0.1450 -2.0055
 3463TIP3    H231805   1.546   0.204   6.233 -2.0975  0.2762  0.2701
 3464TIP3   OH231806   0.032   3.642   0.458 -0.4413 -0.2046 -0.1467
 3464TIP3    H131807   0.075   3.728   0.461  0.2950 -0.5604 -0.3134
 3464TIP3    H231808   0.055   3.607   0.371  0.4259 -1.1517  0.4465
 3465TIP3   OH231809   1.800   5.556  14.864 -0.0813  0.2401  0.0066
 3465TIP3    H131810   1.823   5.514  14.947 -1.0134 -0.0831  0.1120
 3465TIP3    H231811   1.836   5.498  14.797 -1.4043 -0.8130  0.1479
 3466TIP3   OH231812   5.642   1.427   3.721  0.0128 -0.4922 -0.8618
 3466TIP3    H131813   5.700   1.490   3.678  0.6651  0.0181  0.6813
 3466TIP3    H231814   5.695   1.390   3.792 -1.1575 -0.9218 -0.1810
 3467TIP3   OH231815   1.374   5.271  11.541  0.2312 -0.4011 -0.1019
 3467TIP3    H131816   1.426   5.339  11.584  0.9822  1.1677 -3.2385
 3467TIP3    H231817   1.285   5.307  11.539  0.0939 -0.6842  0.4359
 3468TIP3   OH231818   4.071   0.216   4.994 -0.4033 -0.5115  0.3142
 3468TIP3    H131819   4.041   0.137   5.039  0.3440 -0.1102  1.5521
 3468TIP3    H231820   4.087   0.279   5.064 -0.7372  0.6688 -0.6407
 3469TIP3   OH231821   5.825   2.976  16.602  0.6066 -0.2098 -0.4459
 3469TIP3    H131822   5.772   2.950  16.527  2.4601 -2.1709 -1.1636
 3469TIP3    H231823   5.801   3.068  16.617 -1.8568 -0.5852 -1.6328
 3470TIP3   OH231824   5.302   0.711  13.278  0.0061 -0.6456 -0.0749
 3470TIP3    H131825   5.234   0.658  13.235 -1.6376  0.8613  0.5197
 3470TIP3    H231826   5.277   0.712  13.370  1.9063 -1.5377  0.4937
 3471TIP3   OH231827   2.557   1.836  12.860  0.4996 -0.0117 -0.0435
 3471TIP3    H131828   2.464   1.819  12.874  0.6499  0.5488  1.9801
 3471TIP3    H231829   2.601   1.755  12.885  0.5100 -0.9775 -2.8708
 3472TIP3   OH231830   4.703   1.326   3.302  0.2917 -0.4176  0.9905
 3472TIP3    H131831   4.609   1.321   3.318 -0.3226 -2.9161 -2.2575
 3472TIP3    H231832   4.714   1.407   3.251  0.0315  0.1676  1.8404
 3473TIP3   OH231833   1.060   3.155  12.391 -0.4250 -0.0722  0.0945
 3473TIP3    H131834   1.051   3.090  12.461  1.3370 -0.4590  0.0290
 3473TIP3    H231835   1.155   3.159  12.375 -0.7211  0.4688 -1.8214
 3474TIP3   OH231836   5.704   2.454   1.548 -0.2287 -0.0163  0.0121
 3474TIP3    H131837   5.647   2.529   1.534 -1.3526 -1.1497 -1.8011
 3474TIP3    H231838   5.671   2.414   1.629  1.4653  2.2944  2.0048
 3475TIP3   OH231839   4.057   1.034  13.616  0.3582  0.2550 -0.0248
 3475TIP3    H131840   4.105   1.054  13.535 -0.2011  0.7189 -0.2502
 3475TIP3    H231841   3.966   1.051  13.595  0.3789  2.2939  1.2459
 3476TIP3   OH231842   2.607   2.678   5.578  0.1935  0.0093  0.5939
 3476TIP3    H131843   2.530   2.700   5.526  0.2233  2.4037  1.4069
 3476TIP3    H231844   2.670   2.644   5.515 -0.2843  1.4810 -0.7477
 3477TIP3   OH231845   5.989   4.747   3.378 -0.3503  0.8666 -0.1995
 3477TIP3    H131846   5.949   4.804   3.313  0.1218  0.7265 -0.6211
 3477TIP3    H231847   5.929   4.749   3.452 -2.5176 -1.3105 -1.7242
 3478TIP3   OH231848   3.555   5.543  16.681  0.8419 -0.1190  0.3256
 3478TIP3    H131849   3.568   5.630  16.644  0.7736 -0.7902 -1.3846
 3478TIP3    H231850   3.493   5.556  16.753  2.0492  1.4426  1.1343
 3479TIP3   OH231851   3.010   1.155  12.328 -0.1830 -0.4803 -0.9923
 3479TIP3    H131852   2.925   1.113  12.344 -0.4548 -0.8545 -3.1273
 3479TIP3    H231853   3.074   1.087  12.346 -0.3477 -0.3705  0.0778
 3480TIP3   OH231854   2.368   6.504   1.736 -0.3691 -0.4769 -0.2740
 3480TIP3    H131855   2.297   6.542   1.787  0.4951  1.8815 -0.6999
 3480TIP3    H231856   2.438   6.490   1.800 -0.8954 -2.0439 -0.0017
 3481TIP3   OH231857   6.111   5.101   5.578  0.2384  0.0866  0.2416
 3481TIP3    H131858   6.045   5.048   5.534  1.5896  0.0322 -1.8560
 3481TIP3    H231859   6.063   5.152   5.643 -2.0444  0.8874 -1.9363
 3482TIP3   OH231860   1.430   4.281   0.846 -0.1925  0.5781  0.0552
 3482TIP3    H131861   1.357   4.333   0.879 -1.8388 -1.8933  0.6152
 3482TIP3    H231862   1.481   4.259   0.924  0.2122  0.9280 -0.1082
 3483TIP3   OH231863   3.561   2.786  15.601 -0.0455 -0.3245  0.0744
 3483TIP3    H131864   3.606   2.857  15.648 -1.4495  0.3428  0.4675
 3483TIP3    H231865   3.477   2.777  15.646  0.4869 -2.9970  0.7413
 3484TIP3   OH231866   0.140   0.907  16.420 -0.1136 -0.3460  0.8662
 3484TIP3    H131867   0.054   0.933  16.388  0.1356 -0.4870  0.0426
 3484TIP3    H231868   0.201   0.949  16.359  0.3660 -0.9298  0.9338
 3485TIP3   OH231869   1.461   3.268  15.500 -1.1015 -0.0008  0.0750
 3485TIP3    H131870   1.523   3.268  15.573 -0.6395 -2.4331 -0.2145
 3485TIP3    H231871   1.380   3.233  15.538 -1.5336  0.7665 -0.1196
 3486TIP3   OH231872   0.052   5.626   2.416  0.1515 -0.3349 -0.0584
 3486TIP3    H131873  -0.039   5.600   2.400 -0.1163  2.2237 -4.1491
 3486TIP3    H231874   0.045   5.702   2.474 -0.1286 -0.9018  0.6797
 3487TIP3   OH231875   0.292   3.252   2.668  0.0142  0.5133 -0.2759
 3487TIP3    H131876   0.255   3.323   2.721 -1.0951 -0.9081  0.9106
 3487TIP3    H231877   0.274   3.278   2.578 -2.1320  0.8451  0.2002
 3488TIP3   OH231878   0.997   5.940   2.305  0.1032  0.1243 -0.5386
 3488TIP3    H131879   1.065   5.872   2.305  0.4135  0.4363 -0.6257
 3488TIP3    H231880   0.920   5.895   2.270 -0.0905 -0.5847  0.7320
 3489TIP3   OH231881   4.900   2.420  14.351 -0.6804 -0.0301  0.0377
 3489TIP3    H131882   4.976   2.363  14.347 -1.1670 -0.7126  0.2952
 3489TIP3    H231883   4.844   2.392  14.279 -1.2600 -0.3856  0.6094
 3490TIP3   OH231884   4.362   5.942   1.335 -0.1662 -0.1136 -0.3874
 3490TIP3    H131885   4.298   5.876   1.362 -0.9420  0.2289 -1.3332
 3490TIP3    H231886   4.313   6.001   1.277  0.0285  2.2686  1.6994
 3491TIP3   OH231887   3.020   2.722  10.735  0.7336  0.3453  0.4941
 3491TIP3    H131888   3.016   2.643  10.789  1.3972 -1.3756 -1.7983
 3491TIP3    H231889   3.015   2.690  10.645  0.1526  3.0180 -0.5366
 3492TIP3   OH231890   5.686   3.203  12.595 -1.1111 -0.4075  0.1670
 3492TIP3    H131891   5.614   3.264  12.580 -1.3014 -0.6241  0.1899
 3492TIP3    H231892   5.713   3.219  12.685  2.7986  3.8659 -1.3983
 3493TIP3   OH231893   6.218   0.794   1.181  0.4539  0.5850 -0.6555
 3493TIP3    H131894   6.144   0.824   1.129 -1.5352  0.2257  1.8187
 3493TIP3    H231895   6.245   0.712   1.140 -1.9278 -0.3867 -0.3929
 3494TIP3   OH231896   4.618   3.691   4.885 -0.9760 -0.1644 -1.1807
 3494TIP3    H131897   4.564   3.770   4.886 -0.9492 -0.1459 -1.2713
 3494TIP3    H231898   4.603   3.651   4.971 -1.3470 -0.3044 -1.3082
 3495TIP3   OH231899   5.771   5.669  12.598  0.1566 -0.4160 -0.3517
 3495TIP3    H131900   5.866   5.666  12.588  0.3290  2.9058 -0.5215
 3495TIP3    H231901   5.755   5.738  12.662 -2.1888 -0.8702 -0.3527
 3496TIP3   OH231902   4.983   1.162   0.354 -0.0436  0.0399 -0.3183
 3496TIP3    H131903   4.946   1.236   0.403  0.0963  0.5323 -0.9449
 3496TIP3    H231904   5.061   1.137   0.404  1.4238  2.0242 -1.4742
 3497TIP3   OH231905   2.248   6.575  15.946 -0.1093  0.1437 -0.1349
 3497TIP3    H131906   2.156   6.549  15.946 -0.3190  0.8730  0.0943
 3497TIP3    H231907   2.285   6.530  16.021  0.1113 -1.4552 -1.1576
 3498TIP3   OH231908   0.252   2.384   1.274  0.7298  0.3843 -0.0720
 3498TIP3    H131909   0.287   2.367   1.362 -0.2355 -0.0460  0.2413
 3498TIP3    H231910   0.177   2.441   1.289 -0.5261 -1.1021 -0.4248
 3499TIP3   OH231911   1.785   3.014   5.015 -0.0119 -0.1341 -0.2717
 3499TIP3    H131912   1.765   3.108   5.015 -1.1397 -0.3307 -1.8753
 3499TIP3    H231913   1.752   2.982   4.931  0.6162 -1.9275  0.1071
 3500TIP3   OH231914   0.498   4.666  16.589 -0.8503 -0.0842 -0.0940
 3500TIP3    H131915   0.469   4.655  16.680  0.5259 -2.4257  0.1324
 3500TIP3    H231916   0.593   4.653  16.593 -0.4360  2.0150 -1.5846
 3501TIP3   OH231917   4.154   0.240  12.258  0.3456 -0.4923  0.1023
 3501TIP3    H131918   4.169   0.287  12.339  1.0739 -1.1903  0.3826
 3501TIP3    H231919   4.061   0.255  12.238 -0.6118 -2.5253  2.5053
 3502TIP3   OH231920   4.452   3.438   4.319 -0.3187  0.0909 -0.1924
 3502TIP3    H131921   4.399   3.508   4.282 -0.5387  1.3471  2.3224
 3502TIP3    H231922   4.400   3.402   4.390  1.4896  0.2609  1.2968
 3503TIP3   OH231923   2.903   3.494   2.212  0.2817 -0.1197 -0.3854
 3503TIP3    H131924   2.841   3.478   2.283  0.8489 -2.1895 -0.2842
 3503TIP3    H231925   2.881   3.582   2.180 -1.2143  0.0999  1.0877
 3504TIP3   OH231926   0.209   1.231   2.697  0.4021 -0.3329 -0.1321
 3504TIP3    H131927   0.299   1.238   2.665  0.5580 -0.1508  0.3410
 3504TIP3    H231928   0.212   1.267   2.786 -0.4068  1.0214 -0.6067
 3505TIP3   OH231929   5.979   0.627   2.681  0.3602 -0.4006 -0.5402
 3505TIP3    H131930   6.024   0.606   2.599  1.7201 -0.4157  0.1708
 3505TIP3    H231931   5.946   0.716   2.669  1.3830 -0.0326 -0.7855
 3506TIP3   OH231932   2.878   5.844  16.999 -0.2049 -0.4209  0.2590
 3506TIP3    H131933   2.805   5.820  17.056 -0.1125 -0.9847  0.1447
 3506TIP3    H231934   2.837   5.867  16.916 -0.3369  0.3682  0.5324
 3507TIP3   OH231935   4.416   3.108   4.873  0.5040  0.0849  0.5897
 3507TIP3    H131936   4.503   3.068   4.875 -0.6178 -2.6838 -0.7079
 3507TIP3    H231937   4.369   3.060   4.805 -1.9712  1.6961  1.0297
 3508TIP3   OH231938   1.395   2.969  13.017  0.6282 -0.2526 -0.2850
 3508TIP3    H131939   1.370   3.024  13.091 -0.1497 -1.1484  0.1386
 3508TIP3    H231940   1.478   3.006  12.987  0.9980  0.0908  1.0751
 3509TIP3   OH231941   4.078   5.707  12.938 -0.1079 -0.0865 -0.3738
 3509TIP3    H131942   4.126   5.725  13.019 -2.4063 -2.3261  1.6766
 3509TIP3    H231943   4.102   5.618  12.915 -0.1422  0.2283 -1.7092
 3510TIP3   OH231944   0.470   4.903  12.530  0.3636 -0.4906 -0.2029
 3510TIP3    H131945   0.436   4.818  12.501  0.8922 -0.6980 -0.2344
 3510TIP3    H231946   0.548   4.917  12.476  1.3435 -0.8621  1.0542
 3511TIP3   OH231947   1.768   5.130  13.510 -0.4333  0.3751 -0.2871
 3511TIP3    H131948   1.728   5.215  13.491 -1.0104  0.1275 -0.1985
 3511TIP3    H231949   1.787   5.093  13.424  2.8411  1.9459 -0.4136
 3512TIP3   OH231950   2.357   4.600  15.631  0.4885  0.3506  0.2915
 3512TIP3    H131951   2.309   4.519  15.650 -2.5591  1.7203 -0.8092
 3512TIP3    H231952   2.362   4.602  15.535 -0.9418  2.1322  0.2009
 3513TIP3   OH231953   3.448   5.593  12.827 -0.1329 -0.5528  0.1698
 3513TIP3    H131954   3.408   5.680  12.825  1.1283  0.0349 -1.5708
 3513TIP3    H231955   3.393   5.540  12.768  0.6830 -0.1672 -0.9661
 3514TIP3   OH231956   1.233   3.366   4.182 -0.4274 -0.1371  0.0397
 3514TIP3    H131957   1.155   3.390   4.233 -0.7393  0.7857 -0.8372
 3514TIP3    H231958   1.206   3.373   4.091  0.6992  0.2932 -0.2868
 3515TIP3   OH231959   6.398   2.941  15.233 -0.1162 -1.0730  0.1577
 3515TIP3    H131960   6.458   3.002  15.191 -0.4692 -2.8416 -3.2907
 3515TIP3    H231961   6.452   2.895  15.297  0.8068  0.9459  0.8964
 3516TIP3   OH231962   2.843   4.336   2.482  0.2270 -0.2589 -0.2154
 3516TIP3    H131963   2.836   4.319   2.388  0.0381  0.4678 -0.3402
 3516TIP3    H231964   2.886   4.258   2.517  0.9100 -0.2628 -1.0069
 3517TIP3   OH231965   6.549   4.504  13.004 -0.1795  0.2543 -0.0881
 3517TIP3    H131966   6.477   4.497  13.067 -0.2136 -0.5800 -0.2181
 3517TIP3    H231967   6.628   4.488  13.056 -0.1171  0.6425 -0.0526
 3518TIP3   OH231968   4.288   3.599   4.098 -0.9095  0.2072 -0.1375
 3518TIP3    H131969   4.199   3.635   4.096 -0.3990  1.5466 -2.5498
 3518TIP3    H231970   4.281   3.516   4.050 -0.7366  0.6260 -0.8861
 3519TIP3   OH231971   5.871   0.747   5.295 -0.1570  0.3574 -0.9820
 3519TIP3    H131972   5.785   0.715   5.320 -0.4350  1.4448 -0.5091
 3519TIP3    H231973   5.860   0.841   5.282  0.7619  0.3800 -1.7941
 3520TIP3   OH231974   5.901   2.776   3.718 -0.3834 -0.2548 -0.5032
 3520TIP3    H131975   5.892   2.859   3.764  1.8592  0.7288 -1.7075
 3520TIP3    H231976   5.818   2.765   3.671 -0.6892  1.3402 -0.3664
 3521TIP3   OH231977   5.532   2.710  11.484 -0.2242  0.2095 -0.6603
 3521TIP3    H131978   5.516   2.617  11.470 -1.5414  0.2485  0.4194
 3521TIP3    H231979   5.627   2.718  11.490 -0.1671 -1.3161  0.9175
 3522TIP3   OH231980   2.882   5.619   2.478  0.8103 -0.5831  0.5834
 3522TIP3    H131981   2.933   5.691   2.515  1.0016 -0.0189 -0.7314
 3522TIP3    H231982   2.805   5.613   2.534  1.7621 -0.7107  1.9255
 3523TIP3   OH231983   0.119   3.961   6.165  0.1565  0.2206  0.5475
 3523TIP3    H131984   0.212   3.967   6.188 -0.0774 -0.6906  1.8325
 3523TIP3    H231985   0.105   3.868   6.147 -1.0268 -0.1654  2.9724
 3524TIP3   OH231986   6.396   1.856   0.831 -0.0634  0.1404 -0.1963
 3524TIP3    H131987   6.483   1.816   0.839 -0.6690 -1.0682  0.5166
 3524TIP3    H231988   6.340   1.786   0.797 -0.9956  0.5911  0.3669
 3525TIP3   OH231989   2.302   5.583  13.753  0.3119  0.3347 -0.3922
 3525TIP3    H131990   2.278   5.655  13.695  0.8805  1.1975  0.4134
 3525TIP3    H231991   2.351   5.625  13.824 -0.2901 -0.6976  0.6695
 3526TIP3   OH231992   1.998   6.230   2.354  0.4047  0.1315  0.2373
 3526TIP3    H131993   1.940   6.259   2.424  2.2318  0.3397  1.7375
 3526TIP3    H231994   1.965   6.144   2.329  0.6002 -0.6513  2.4792
 3527TIP3   OH231995   1.680   3.725   3.617 -0.2488 -0.2024  0.4038
 3527TIP3    H131996   1.734   3.758   3.689  0.2415 -0.1369  0.0079
 3527TIP3    H231997   1.723   3.644   3.590 -0.5271 -0.3148  0.2991
 3528TIP3   OH231998   5.194   6.308  13.313  0.3595 -0.2870 -0.4216
 3528TIP3    H131999   5.199   6.258  13.232  3.5154 -0.5449 -0.1888
 3528TIP3    H232000   5.231   6.394  13.290 -3.1400  1.4339 -0.3270
 3529TIP3   OH232001   4.746   1.873  11.194 -0.3968 -0.0551  0.2598
 3529TIP3    H132002   4.742   1.900  11.285 -0.1045 -0.4421  0.3897
 3529TIP3    H232003   4.820   1.812  11.190  0.3225  0.8479 -0.4730
 3530TIP3   OH232004   4.815   4.761  15.338 -0.0034 -0.1441 -0.1117
 3530TIP3    H132005   4.874   4.806  15.276  0.2823 -1.3313 -0.7342
 3530TIP3    H232006   4.787   4.683  15.291 -1.3370 -0.0795  0.5557
 3531TIP3   OH232007   4.538   4.837   5.973 -0.0278 -0.0378 -0.5054
 3531TIP3    H132008   4.560   4.776   5.903  0.0294  0.4644 -0.9335
 3531TIP3    H232009   4.484   4.786   6.034 -1.2695 -0.1129 -1.6267
 3532TIP3   OH232010   0.080   6.267   4.489 -0.2902 -0.0940 -0.3229
 3532TIP3    H132011   0.064   6.353   4.449  0.5224  0.7675  1.1366
 3532TIP3    H232012   0.176   6.259   4.492 -0.3129 -0.1018  1.4470
 3533TIP3   OH232013   2.771   2.441   5.496  0.1107 -0.3946 -0.0429
 3533TIP3    H132014   2.813   2.385   5.430 -1.3531 -0.2081 -1.1812
 3533TIP3    H232015   2.843   2.488   5.537  1.2352 -1.9546 -0.1542
 3534TIP3   OH232016   0.985   2.157   4.562  0.3162 -0.1908 -0.3016
 3534TIP3    H132017   1.003   2.238   4.514 -0.7549 -0.4184 -1.1139
 3534TIP3    H232018   0.902   2.175   4.608  1.1226 -0.1126  1.1866
 3535TIP3   OH232019   6.121   4.233  14.929  0.0183  0.0200  0.2930
 3535TIP3    H132020   6.189   4.257  14.992 -1.4248  2.1876  1.1229
 3535TIP3    H232021   6.046   4.210  14.983 -0.5339 -0.4153 -0.6311
 3536TIP3   OH232022   6.548   1.275  11.039 -0.0254 -1.0166  0.2879
 3536TIP3    H132023   6.566   1.209  10.972  0.9721 -1.4152  0.9275
 3536TIP3    H232024   6.578   1.357  10.999  0.2160 -1.1900  0.1081
 3537TIP3   OH232025   0.230   1.600  13.906 -0.0006  0.5358 -0.4578
 3537TIP3    H132026   0.157   1.653  13.940 -1.4709 -1.6343 -0.0431
 3537TIP3    H232027   0.258   1.547  13.980 -0.3557 -1.1474 -1.4760
 3538TIP3   OH232028   2.715   5.492  11.357 -0.0972 -0.2917 -0.6661
 3538TIP3    H132029   2.731   5.522  11.268  1.3487 -1.0896 -0.7019
 3538TIP3    H232030   2.791   5.438  11.378 -1.0972 -1.2731  0.5470
 3539TIP3   OH232031   5.857   5.390   0.825  0.1749 -0.2149  0.5207
 3539TIP3    H132032   5.918   5.321   0.799  1.7654  1.5088 -0.5882
 3539TIP3    H232033   5.840   5.438   0.744 -0.4413  1.0221  1.3606
 3540TIP3   OH232034   6.197   5.287  13.939  0.7008  0.1506 -0.0496
 3540TIP3    H132035   6.150   5.325  14.013 -0.7521 -0.7223 -0.4780
 3540TIP3    H232036   6.181   5.348  13.867  2.7938  1.4366  0.4741
 3541TIP3   OH232037   3.623   5.840   5.175 -0.2456 -0.0481  0.4723
 3541TIP3    H132038   3.702   5.893   5.183  0.2396 -0.3726 -1.6227
 3541TIP3    H232039   3.585   5.866   5.091 -0.0209 -2.8906 -0.6235
 3542TIP3   OH232040   0.314   1.684   4.108  0.0040  0.9281  0.1050
 3542TIP3    H132041   0.295   1.673   4.014  0.3008  1.8082 -0.0649
 3542TIP3    H232042   0.397   1.731   4.110 -0.8246  2.4159  0.7970
 3543TIP3   OH232043   0.784   4.100  16.176  0.1344  0.3375 -0.6170
 3543TIP3    H132044   0.875   4.127  16.189  0.9747 -1.4317 -2.3507
 3543TIP3    H232045   0.789   4.005  16.162 -2.1852 -0.0994  0.9032
 3544TIP3   OH232046   6.701   5.384   3.893 -0.1228 -0.0046  0.0069
 3544TIP3    H132047   6.714   5.464   3.943  0.8942  1.1388 -1.9784
 3544TIP3    H232048   6.607   5.368   3.897 -0.9411  3.2730 -2.3448
 3545TIP3   OH232049   5.240   2.765   3.708 -0.1715 -0.0376 -0.0717
 3545TIP3    H132050   5.296   2.773   3.631 -1.8406 -0.4505 -1.4026
 3545TIP3    H232051   5.263   2.680   3.746 -0.1634 -0.4022 -0.8598
 3546TIP3   OH232052   1.650   5.040   0.687 -0.2198 -0.4578 -0.3542
 3546TIP3    H132053   1.614   5.026   0.599 -0.5894 -1.7021 -0.0307
 3546TIP3    H232054   1.577   5.077   0.736  0.5379  2.1325 -1.0147
 3547TIP3   OH232055   4.682   0.540   4.051  0.3046  0.0874  0.5279
 3547TIP3    H132056   4.677   0.470   4.116 -0.2518 -2.3239 -1.8968
 3547TIP3    H232057   4.765   0.584   4.069  1.2995 -2.0225  1.4180
 3548TIP3   OH232058   6.605   4.681   1.034 -0.1995  0.7001  0.3059
 3548TIP3    H132059   6.599   4.594   1.075 -1.3034  0.7268  0.2283
 3548TIP3    H232060   6.600   4.742   1.107 -1.9459  0.7419  0.1915
 3549TIP3   OH232061   3.080   6.486   1.148  0.2664 -0.5322  0.0924
 3549TIP3    H132062   3.112   6.466   1.060  2.1893  0.2094  0.5830
 3549TIP3    H232063   2.995   6.529   1.133 -0.0720 -1.6009 -1.3101
 3550TIP3   OH232064   5.339   1.630   3.521  0.7397  0.0416  0.1286
 3550TIP3    H132065   5.328   1.718   3.485  0.7867  0.2629  0.6506
 3550TIP3    H232066   5.375   1.579   3.448 -0.2074  0.2098 -0.4780
 3551TIP3   OH232067   1.142   2.638  15.180 -0.6388  0.1620  0.1085
 3551TIP3    H132068   1.168   2.616  15.090 -1.4094  0.0375 -0.0912
 3551TIP3    H232069   1.188   2.574  15.234 -1.3834 -0.7685 -0.3227
 3552TIP3   OH232070   1.303   1.709  14.511  0.9863 -0.0399  0.4136
 3552TIP3    H132071   1.385   1.757  14.506  1.1161 -0.3760 -1.0829
 3552TIP3    H232072   1.325   1.621  14.479  0.2271 -0.4004  0.8456
 3553TIP3   OH232073   6.063   1.478   0.462  0.0346 -0.1481  0.1102
 3553TIP3    H132074   6.012   1.543   0.510 -1.0275 -0.2266 -0.8444
 3553TIP3    H232075   6.090   1.414   0.528 -0.5829  0.2408  0.7494
 3554TIP3   OH232076   2.048   2.093  12.591  0.2149  0.0583  0.1082
 3554TIP3    H132077   1.975   2.129  12.541 -0.1787 -1.4318 -0.4649
 3554TIP3    H232078   2.007   2.057  12.670  0.3119 -0.7170 -0.1813
 3555TIP3   OH232079   0.892   1.512  11.704  0.1247 -0.7902  0.0430
 3555TIP3    H132080   0.828   1.448  11.737 -0.8995 -0.0858 -0.5353
 3555TIP3    H232081   0.927   1.554  11.783 -0.6499 -0.6908  0.3390
 3556TIP3   OH232082   1.591   1.321   0.158 -0.2934  0.3396  0.3186
 3556TIP3    H132083   1.643   1.381   0.211 -3.2267  0.9210  2.8963
 3556TIP3    H232084   1.535   1.378   0.105  0.5926 -0.2363 -1.2880
 3557TIP3   OH232085   0.282   4.314   0.042 -0.1208 -0.0870  0.2767
 3557TIP3    H132086   0.370   4.319   0.080 -0.0608 -0.0219  0.1292
 3557TIP3    H232087   0.228   4.366   0.101 -0.1883 -0.6674  0.7351
 3558TIP3   OH232088   1.465   6.501   2.308  0.1355  0.4298 -0.1122
 3558TIP3    H132089   1.411   6.538   2.378  0.8722 -2.2826  2.0892
 3558TIP3    H232090   1.412   6.430   2.271  0.7553  0.1267 -0.4442
 3559TIP3   OH232091   0.215   0.202  15.481  0.0186 -0.1151  0.2160
 3559TIP3    H132092   0.228   0.295  15.497 -0.5944  0.3168 -1.5812
 3559TIP3    H232093   0.126   0.195  15.447 -0.5158 -1.5834  1.7657
 3560TIP3   OH232094   4.473   1.612  15.889  0.2547 -0.1374  0.2395
 3560TIP3    H132095   4.516   1.574  15.812 -0.4406  2.1834 -1.4423
 3560TIP3    H232096   4.381   1.618  15.863 -0.1149  0.0535  1.5488
 3561TIP3   OH232097   0.096   2.269   0.754 -0.0091 -0.3810  0.5398
 3561TIP3    H132098   0.022   2.286   0.696  2.0428  0.3850 -2.0453
 3561TIP3    H232099   0.131   2.185   0.725  1.6558  0.4871 -0.1064
 3562TIP3   OH232100   4.533   3.632  16.321 -0.1695  0.3643 -0.0958
 3562TIP3    H132101   4.596   3.589  16.264 -0.3126  0.7847 -0.5770
 3562TIP3    H232102   4.463   3.568  16.333  0.2935 -0.0680  0.3622
 3563TIP3   OH232103   1.474   4.096   5.235  0.2555  0.1565 -0.0945
 3563TIP3    H132104   1.410   4.162   5.262  1.1868  0.7993  0.5950
 3563TIP3    H232105   1.522   4.137   5.164  1.3111  0.5216  0.8055
 3564TIP3   OH232106   2.462   6.667   2.647  0.3284  0.2154 -0.4766
 3564TIP3    H132107   2.373   6.699   2.661 -0.4653 -0.9707 -2.4025
 3564TIP3    H232108   2.464   6.581   2.688  0.4583  0.0682 -0.7851
 3565TIP3   OH232109   1.934   4.971  15.486 -0.2407  0.8535 -0.4175
 3565TIP3    H132110   1.988   4.926  15.421 -0.6390  0.0809 -0.2281
 3565TIP3    H232111   1.845   4.940  15.469 -0.1926 -0.3978  1.3090
 3566TIP3   OH232112   6.096   0.229  15.178 -0.4128 -0.2886 -0.2469
 3566TIP3    H132113   6.038   0.199  15.108  0.2403 -0.4137 -0.7456
 3566TIP3    H232114   6.063   0.316  15.201 -0.7996 -0.3591 -0.5234
 3567TIP3   OH232115   1.248   5.336  12.159  0.2334  0.3835  0.5232
 3567TIP3    H132116   1.291   5.250  12.150  0.7210  0.5130  1.4611
 3567TIP3    H232117   1.279   5.369  12.243  0.8471  1.9320 -0.2717
 3568TIP3   OH232118   3.392   2.718  11.207 -0.3537  0.2740  0.3039
 3568TIP3    H132119   3.416   2.795  11.259  0.1903  0.8856 -0.8353
 3568TIP3    H232120   3.338   2.752  11.136  1.6299 -0.0451 -1.4491
 3569TIP3   OH232121   0.744   0.713  13.705  0.0110 -0.5530  0.5755
 3569TIP3    H132122   0.799   0.637  13.683 -0.0536 -0.6651  0.8094
 3569TIP3    H232123   0.700   0.734  13.622 -0.1146 -0.8845  0.5558
 3570TIP3   OH232124   1.370   4.582   1.613 -0.4587  0.3602  0.4842
 3570TIP3    H132125   1.313   4.565   1.688 -0.7361  0.2875  0.2570
 3570TIP3    H232126   1.317   4.635   1.554 -0.6018 -0.4445 -0.1281
 3571TIP3   OH232127   0.104   0.549  13.639 -0.4929  0.1723  0.2657
 3571TIP3    H132128   0.149   0.483  13.585 -0.1148  0.5931  0.0590
 3571TIP3    H232129   0.108   0.514  13.728 -1.5652 -0.7784 -0.0247
 3572TIP3   OH232130   4.776   4.464   3.816  0.1387  0.0154 -0.0662
 3572TIP3    H132131   4.781   4.537   3.878 -0.5708 -1.2551  1.5875
 3572TIP3    H232132   4.735   4.501   3.738  0.0121  1.4245  0.6379
 3573TIP3   OH232133   4.046   2.267   0.302 -0.0743  0.1162  0.0941
 3573TIP3    H132134   4.115   2.202   0.293 -0.9462 -0.6344 -1.6323
 3573TIP3    H232135   3.980   2.242   0.237 -0.3833  2.7996 -0.7513
 3574TIP3   OH232136   5.756   5.466  12.796 -0.6110 -0.5779  0.4073
 3574TIP3    H132137   5.799   5.510  12.869 -0.8601  0.5182 -0.0914
 3574TIP3    H232138   5.762   5.527  12.723 -2.0696 -0.8257  0.0326
 3575TIP3   OH232139   3.045   5.933  12.157  0.7005  0.0115 -0.3365
 3575TIP3    H132140   3.123   5.968  12.200  0.4138 -0.9885  1.0622
 3575TIP3    H232141   3.023   5.998  12.090  2.0850  0.8414 -0.0197
 3576TIP3   OH232142   1.582   2.544  16.118  0.2380 -0.4668 -0.8533
 3576TIP3    H132143   1.630   2.592  16.051  0.6964 -1.1852 -1.0536
 3576TIP3    H232144   1.489   2.557  16.096  0.3240  0.8630 -0.5074
 3577TIP3   OH232145   4.599   0.081   0.565 -0.0774 -0.5997 -0.2799
 3577TIP3    H132146   4.505   0.094   0.577 -0.0068  0.4673 -0.7227
 3577TIP3    H232147   4.632   0.062   0.653 -0.4237  1.0845  0.2502
 3578TIP3   OH232148   2.112   2.651   0.958 -0.3994  0.1681 -0.3344
 3578TIP3    H132149   2.042   2.701   1.000 -0.4072  0.7494 -1.0011
 3578TIP3    H232150   2.191   2.677   1.005 -0.3891  0.9033 -0.7361
 3579TIP3   OH232151   2.382   3.692  16.455 -0.0516 -0.1690 -0.3330
 3579TIP3    H132152   2.375   3.682  16.550 -0.3666 -0.8339 -0.4274
 3579TIP3    H232153   2.451   3.758  16.444  0.0043 -0.1011  0.3537
 3580TIP3   OH232154   1.613   5.352   2.044  0.4124 -0.2860 -0.2546
 3580TIP3    H132155   1.682   5.374   2.107  0.7121  0.4176 -0.8046
 3580TIP3    H232156   1.625   5.415   1.973 -0.4751 -0.4954 -0.6050
 3581TIP3   OH232157   4.002   2.602  16.365  0.4314  0.0248  0.2397
 3581TIP3    H132158   4.069   2.666  16.339  1.1713 -0.7594  0.1426
 3581TIP3    H232159   3.954   2.644  16.435  2.2158 -0.0650  1.5859
 3582TIP3   OH232160   4.818   3.003   4.949  1.1102 -0.4635  0.6138
 3582TIP3    H132161   4.889   2.980   4.889  0.3799  1.7614 -1.2717
 3582TIP3    H232162   4.747   3.032   4.891 -0.0759  0.6808  2.5322
 3583TIP3   OH232163   3.186   5.288   2.441  0.3270  0.1700  0.8864
 3583TIP3    H132164   3.159   5.255   2.355  1.3714  0.0420  0.5875
 3583TIP3    H232165   3.224   5.374   2.422  0.8788 -0.0054  1.1638
 3584TIP3   OH232166   2.268   6.229   2.250 -0.0627 -0.4536 -0.3138
 3584TIP3    H132167   2.174   6.215   2.250 -0.0514 -0.5350 -0.4983
 3584TIP3    H232168   2.304   6.154   2.296 -0.1044 -0.3054 -0.0396
 3585TIP3   OH232169   2.774   2.458  14.060  0.0285  0.1332  0.0695
 3585TIP3    H132170   2.688   2.436  14.024 -0.8308  0.8555  1.5912
 3585TIP3    H232171   2.756   2.482  14.151  1.9972 -0.7969  0.7537
 3586TIP3   OH232172   5.890   3.059  13.086 -0.1635  0.1851 -0.3827
 3586TIP3    H132173   5.945   3.095  13.155 -0.9891 -1.1709  1.0396
 3586TIP3    H232174   5.940   2.985  13.051 -1.0320 -1.0584  0.9219
 3587TIP3   OH232175   4.116   5.584  13.620 -0.5244  0.3561 -0.1382
 3587TIP3    H132176   4.110   5.499  13.662  0.3316  0.3138 -0.0787
 3587TIP3    H232177   4.092   5.647  13.688 -0.0032  0.2293  0.1731
 3588TIP3   OH232178   4.754   4.439  15.578 -0.3451  0.0297 -0.3356
 3588TIP3    H132179   4.757   4.411  15.487 -2.4574  1.9506 -1.1039
 3588TIP3    H232180   4.677   4.396  15.614 -0.3182  0.3662  0.1371
 3589TIP3   OH232181   2.444   0.506   5.078 -0.3470  0.1712  0.1598
 3589TIP3    H132182   2.438   0.420   5.037 -1.6840 -0.1754  0.9827
 3589TIP3    H232183   2.518   0.549   5.036  1.3350 -1.9457  0.8037
 3590TIP3   OH232184   0.911   6.654   4.134  0.1489  0.1794  0.0516
 3590TIP3    H132185   0.974   6.612   4.193  0.1039  1.5643  1.1232
 3590TIP3    H232186   0.965   6.705   4.074  0.2349 -1.6677 -1.5605
 3591TIP3   OH232187   1.850   0.979  15.546  0.0618  0.0279 -0.2152
 3591TIP3    H132188   1.939   0.954  15.520  0.4767  0.3007  0.9068
 3591TIP3    H232189   1.850   0.972  15.641 -0.5687  1.8286 -0.0536
 3592TIP3   OH232190   3.424   1.670   1.745 -0.0337 -0.5284 -0.6826
 3592TIP3    H132191   3.340   1.716   1.744  0.9299  1.3723  0.1953
 3592TIP3    H232192   3.471   1.705   1.669  0.3654 -0.7911 -0.5593
 3593TIP3   OH232193   6.000   4.202   3.426  0.0125 -0.3177 -0.3906
 3593TIP3    H132194   5.954   4.143   3.486 -0.1519 -0.1209 -0.3223
 3593TIP3    H232195   5.930   4.248   3.380  0.1363  0.4209  0.1466
 3594TIP3   OH232196   4.261   1.882  16.330 -0.1783 -0.8015  0.0045
 3594TIP3    H132197   4.219   1.962  16.299 -0.0645  0.5267  2.9528
 3594TIP3    H232198   4.351   1.888  16.298  0.5241  1.5729  2.1440
 3595TIP3   OH232199   6.263   2.057   0.604 -0.2685 -0.2524  0.0252
 3595TIP3    H132200   6.310   1.975   0.592 -0.0118  0.0768 -1.4038
 3595TIP3    H232201   6.171   2.035   0.586 -0.3670 -0.4560  0.7596
 3596TIP3   OH232202   3.966   5.948  16.628  0.4529 -0.6176 -0.4348
 3596TIP3    H132203   3.909   5.878  16.597 -1.7490  0.6470  0.5260
 3596TIP3    H232204   3.973   6.009  16.554 -0.6688 -0.0734 -0.1107
 3597TIP3   OH232205   0.082   4.778   2.767 -0.2422  0.0607 -0.1938
 3597TIP3    H132206   0.151   4.841   2.788  0.1185 -0.6388  0.7720
 3597TIP3    H232207   0.006   4.832   2.745  0.3367  0.8303 -0.3396
 3598TIP3   OH232208   6.811   6.155   3.614  0.6581 -0.1910 -0.1545
 3598TIP3    H132209   6.823   6.108   3.696 -0.4543 -1.3022 -0.5873
 3598TIP3    H232210   6.776   6.089   3.554  3.0255  0.1409 -2.0265
 3599TIP3   OH232211   3.219   5.005   2.863  0.3019  0.4184  0.4475
 3599TIP3    H132212   3.310   4.981   2.885  0.4499  2.2183  2.1090
 3599TIP3    H232213   3.200   5.080   2.920 -1.0328  2.4037 -2.3495
 3600TIP3   OH232214   4.520   1.875  15.068 -0.2490  0.4288  0.2301
 3600TIP3    H132215   4.601   1.830  15.092 -1.2251 -1.1809  0.6925
 3600TIP3    H232216   4.536   1.906  14.979  0.4158 -1.0563 -0.1984
 3601TIP3   OH232217   3.172   3.101  11.106  0.0462 -0.0693  0.3401
 3601TIP3    H132218   3.094   3.156  11.100  0.2229  0.3261  1.3873
 3601TIP3    H232219   3.196   3.104  11.198  0.2956 -1.6051  0.3493
 3602TIP3   OH232220   0.391   1.741   0.396  0.1790  0.1601  0.6933
 3602TIP3    H132221   0.322   1.677   0.410 -0.2141  0.2703 -0.6000
 3602TIP3    H232222   0.471   1.696   0.423 -0.3528 -0.0294  2.0377
 3603TIP3   OH232223   2.061   0.835   4.679 -0.0095 -0.1747 -0.3533
 3603TIP3    H132224   2.014   0.762   4.719  0.1897 -0.2688 -0.2919
 3603TIP3    H232225   2.138   0.848   4.734 -1.0681  1.4088  0.8441
 3604TIP3   OH232226   5.837   2.471   4.735  0.1717 -0.3455 -0.3664
 3604TIP3    H132227   5.859   2.548   4.681 -0.2298 -0.8014 -1.1939
 3604TIP3    H232228   5.812   2.508   4.820 -0.2806  0.4549 -0.8377
 3605TIP3   OH232229   0.362   5.231   4.005  0.5451  0.3439 -0.3490
 3605TIP3    H132230   0.287   5.171   4.007  0.6157  0.2338 -0.9001
 3605TIP3    H232231   0.370   5.261   4.095 -0.0515  0.2170 -0.2464
 3606TIP3   OH232232   0.149   4.907   3.711  0.0190 -0.4703 -0.1916
 3606TIP3    H132233   0.064   4.863   3.716 -0.3181  0.2502  0.6304
 3606TIP3    H232234   0.182   4.885   3.624 -2.5358  1.9839 -1.9640
 3607TIP3   OH232235   5.836   2.532  13.425 -0.0124 -0.1626 -0.1117
 3607TIP3    H132236   5.856   2.484  13.344  0.9076  0.7526 -0.4629
 3607TIP3    H232237   5.741   2.537  13.427 -0.0690 -0.7399 -0.8197
 3608TIP3   OH232238   0.027   2.586  13.584  0.1132 -0.0530 -0.1447
 3608TIP3    H132239  -0.062   2.609  13.557 -0.4080 -2.9162 -1.1939
 3608TIP3    H232240   0.072   2.567  13.502  1.1568 -0.4372  0.5081
 3609TIP3   OH232241   3.930   6.332   4.224 -0.3302  0.3991 -0.0840
 3609TIP3    H132242   4.010   6.285   4.201  0.2952  1.4584 -0.1501
 3609TIP3    H232243   3.862   6.264   4.230  1.1337 -1.0009  2.8951
 3610TIP3   OH232244   0.530   3.990   2.882  0.4048  0.7171 -0.2782
 3610TIP3    H132245   0.543   4.085   2.875  1.5087  0.5866 -0.1823
 3610TIP3    H232246   0.619   3.954   2.879  0.0962 -0.2188  1.0655
 3611TIP3   OH232247   2.752   2.909  14.056  0.2874 -0.3950  0.1468
 3611TIP3    H132248   2.828   2.964  14.039  1.2379 -1.9164 -0.7961
 3611TIP3    H232249   2.715   2.943  14.137  1.4176  0.9718  0.1252
 3612TIP3   OH232250   3.189   3.743   0.955  0.5617  0.2339  0.6158
 3612TIP3    H132251   3.234   3.676   0.903 -1.3707  0.4941 -1.5526
 3612TIP3    H232252   3.097   3.734   0.931 -0.0835  2.0440  2.1752
 3613TIP3   OH232253   5.751   0.288  14.473  0.0394  0.1300  0.3217
 3613TIP3    H132254   5.713   0.256  14.391 -0.2612  0.5571  0.2903
 3613TIP3    H232255   5.816   0.352  14.446 -1.7925  2.1799  0.4359
 3614TIP3   OH232256   2.961   1.940   4.838 -0.0000  0.8505 -0.7398
 3614TIP3    H132257   2.979   1.944   4.932 -0.0238  2.0222 -0.7671
 3614TIP3    H232258   2.910   1.860   4.827  1.1565 -0.0303  0.0297
 3615TIP3   OH232259   6.294   6.169   5.594  0.3962  0.0864  0.4183
 3615TIP3    H132260   6.262   6.207   5.676 -0.9634  0.1779 -0.1236
 3615TIP3    H232261   6.233   6.201   5.528  2.5028  1.4667 -0.9517
 3616TIP3   OH232262   0.601   0.610  12.550 -0.3301 -0.6466 -0.5018
 3616TIP3    H132263   0.561   0.635  12.633 -1.2360  1.1549 -1.4168
 3616TIP3    H232264   0.692   0.638  12.558 -0.3043 -0.8781  0.0379
 3617TIP3   OH232265   4.592   2.326   4.205 -0.1627  0.0474 -0.0768
 3617TIP3    H132266   4.540   2.339   4.126 -1.3744  0.7756  0.7867
 3617TIP3    H232267   4.681   2.350   4.180 -0.7252  1.3733 -0.9382
 3618TIP3   OH232268   4.583   2.554   5.451  0.7045 -0.0989  0.5667
 3618TIP3    H132269   4.566   2.472   5.498 -1.0921  0.0603  0.2738
 3618TIP3    H232270   4.511   2.611   5.476 -0.7034 -0.1957 -2.7595
 3619TIP3   OH232271   2.399   3.219  15.600  0.6252  0.0131  0.7119
 3619TIP3    H132272   2.491   3.202  15.622  0.5592 -1.0018  0.2732
 3619TIP3    H232273   2.389   3.314  15.608  2.6419  0.6455 -2.5724
 3620TIP3   OH232274   6.164   5.525   1.613 -0.3564 -0.3045 -0.0728
 3620TIP3    H132275   6.249   5.494   1.641 -0.9830 -1.3634  0.7131
 3620TIP3    H232276   6.141   5.471   1.538 -0.0846  0.3827 -0.6622
 3621TIP3   OH232277   3.330   0.844   4.733  0.5353 -0.2555  0.3426
 3621TIP3    H132278   3.337   0.770   4.673  1.5511 -1.4035  1.7941
 3621TIP3    H232279   3.322   0.921   4.677 -0.5105 -1.4506 -1.2123
 3622TIP3   OH232280   0.779   3.680   0.089 -0.3549  0.6386  0.2145
 3622TIP3    H132281   0.807   3.590   0.108  0.0509  0.9190  0.9680
 3622TIP3    H232282   0.820   3.700   0.004  0.9201  0.6768  0.8152
 3623TIP3   OH232283   0.740   0.313   6.606  0.1044 -0.0304  0.3027
 3623TIP3    H132284   0.731   0.338   6.698 -0.6714 -1.7711  0.7395
 3623TIP3    H232285   0.785   0.387   6.565  0.6692  0.6764  2.1143
 3624TIP3   OH232286   4.827   0.948  12.426 -0.3141 -0.2671  0.0417
 3624TIP3    H132287   4.850   0.859  12.399 -1.2933 -0.5826  0.1941
 3624TIP3    H232288   4.826   0.944  12.522  1.0028  0.2784  0.0926
 3625TIP3   OH232289   2.066   5.558  14.303  0.4783 -0.4904  0.0977
 3625TIP3    H132290   2.117   5.624  14.256 -0.3485  1.4988  1.8278
 3625TIP3    H232291   1.992   5.539  14.246  3.5136 -4.4978 -3.1503
 3626TIP3   OH232292   0.928   1.355  15.952 -0.0611 -0.1139  0.0716
 3626TIP3    H132293   0.969   1.269  15.946 -0.4329 -0.2576 -0.4757
 3626TIP3    H232294   0.834   1.337  15.944 -0.2754  0.1842  1.5150
 3627TIP3   OH232295   2.460   5.692   3.927 -0.0941 -0.2005 -0.7656
 3627TIP3    H132296   2.537   5.646   3.960 -0.3571  0.8665  1.4978
 3627TIP3    H232297   2.435   5.643   3.848  2.4861 -0.9582 -1.2138
 3628TIP3   OH232298   5.890   0.289  13.895  0.1850 -0.1861  0.2934
 3628TIP3    H132299   5.826   0.348  13.935  0.1368  0.6185 -0.9194
 3628TIP3    H232300   5.975   0.330  13.912  0.3792 -1.0935  1.6337
 3629TIP3   OH232301   5.889   5.984  11.634 -0.1299  0.0064 -0.0977
 3629TIP3    H132302   5.891   6.053  11.568 -0.5791 -2.1790 -2.6059
 3629TIP3    H232303   5.796   5.974  11.655 -0.1868 -0.5038 -0.5605
 3630TIP3   OH232304   2.327   3.496   0.342 -0.4586  0.4124  0.0581
 3630TIP3    H132305   2.338   3.439   0.418  0.0712 -1.2343 -1.2034
 3630TIP3    H232306   2.324   3.585   0.379 -4.3696 -0.4563  2.4465
 3631TIP3   OH232307   6.298   6.258   4.675  0.6206 -0.1854 -0.0095
 3631TIP3    H132308   6.357   6.202   4.726  0.0834  0.9409  1.9341
 3631TIP3    H232309   6.210   6.227   4.696  0.4150 -0.7269 -1.5402
 3632TIP3   OH232310   2.765   3.814  13.499 -0.0470  0.3770 -0.1630
 3632TIP3    H132311   2.780   3.889  13.557 -0.7252  2.3144 -2.3491
 3632TIP3    H232312   2.680   3.779  13.527 -0.1279  0.9609  0.3396
 3633TIP3   OH232313   4.523   6.338   4.828  0.7050  0.5128  0.5348
 3633TIP3    H132314   4.466   6.308   4.757 -0.4197  0.2330  1.5165
 3633TIP3    H232315   4.598   6.279   4.826 -1.7366 -3.0020  2.8378
 3634TIP3   OH232316   6.791   5.438  13.433 -1.0096 -0.3620 -0.1879
 3634TIP3    H132317   6.825   5.522  13.462  0.0232 -0.0211 -2.2077
 3634TIP3    H232318   6.699   5.438  13.461 -0.6619  0.8143  1.0543
 3635TIP3   OH232319   1.731   0.474   6.483 -0.1024  0.0507 -0.2583
 3635TIP3    H132320   1.730   0.382   6.459  0.5195 -0.1851  0.5524
 3635TIP3    H232321   1.820   0.503   6.461 -0.9442  1.1001 -2.6973
 3636TIP3   OH232322   0.480   1.644  15.315  0.5850 -0.1599  0.7021
 3636TIP3    H132323   0.513   1.564  15.274  0.4570 -0.1335  0.5466
 3636TIP3    H232324   0.532   1.714  15.276 -1.8819  0.2783 -2.1363
 3637TIP3   OH232325   6.790   5.778  11.938 -0.3996  0.1901 -0.1218
 3637TIP3    H132326   6.823   5.690  11.921  0.6391  0.4954  0.2815
 3637TIP3    H232327   6.859   5.821  11.987 -0.9260  1.2147 -0.2523
 3638TIP3   OH232328   1.941   2.353  14.758  0.2648  0.1019 -0.3311
 3638TIP3    H132329   1.908   2.441  14.740  2.9171  1.7509  2.0596
 3638TIP3    H232330   1.869   2.310  14.804 -0.7083  1.3594 -0.6049
 3639TIP3   OH232331   0.083   5.949   6.588  0.7155 -0.8029  0.0638
 3639TIP3    H132332   0.011   5.953   6.652  1.0860 -0.7512  0.4861
 3639TIP3    H232333   0.162   5.968   6.640  1.0470 -0.9800 -0.3713
 3640TIP3   OH232334   1.076   0.834   4.152 -0.0100 -0.2920 -0.1445
 3640TIP3    H132335   1.149   0.773   4.168  1.7346  1.3035 -1.4924
 3640TIP3    H232336   1.019   0.787   4.092 -0.0477 -1.5233  0.8088
 3641TIP3   OH232337   5.994   2.383   1.278 -0.1769 -0.2542  0.1363
 3641TIP3    H132338   6.036   2.467   1.262 -0.4749 -0.0034  0.6426
 3641TIP3    H232339   6.067   2.321   1.282 -0.0873 -0.3853 -2.2525
 3642TIP3   OH232340   0.800   3.870  12.286 -0.6497 -0.0199 -0.8402
 3642TIP3    H132341   0.777   3.951  12.331 -0.0622  0.4016 -1.2730
 3642TIP3    H232342   0.760   3.879  12.199  1.2003  0.8009 -1.6623
 3643TIP3   OH232343   0.300   0.600  13.251  0.2207 -0.2991  0.0945
 3643TIP3    H132344   0.344   0.515  13.258 -0.1289 -0.3868  1.5401
 3643TIP3    H232345   0.207   0.579  13.245  0.0644 -0.0135  1.2957
 3644TIP3   OH232346   6.618   1.586  16.848  0.1693 -0.4175  0.1928
 3644TIP3    H132347   6.559   1.641  16.797 -0.9331 -1.3077  0.4753
 3644TIP3    H232348   6.686   1.646  16.879 -0.0149  0.4421 -0.9686
 3645TIP3   OH232349   2.892   3.746  10.213  0.1363 -0.6303 -0.1959
 3645TIP3    H132350   2.818   3.689  10.234 -0.4942  0.1789 -0.1773
 3645TIP3    H232351   2.969   3.697  10.244 -0.4842 -0.9362  0.9439
 3646TIP3   OH232352   1.661   5.031   1.584 -0.1124  0.0470  0.1401
 3646TIP3    H132353   1.699   4.988   1.660  1.8459 -0.0072 -0.8101
 3646TIP3    H232354   1.581   4.981   1.566  0.1746 -0.8630  1.2570
 3647TIP3   OH232355   3.103   1.916  11.666 -0.3311 -0.2550  0.5625
 3647TIP3    H132356   3.187   1.876  11.690 -0.2219  0.5085  1.4902
 3647TIP3    H232357   3.082   1.975  11.739 -1.4321 -0.0608  0.1118
 3648TIP3   OH232358   0.408   5.188  15.051  0.3536 -0.0166 -0.1381
 3648TIP3    H132359   0.483   5.142  15.088 -0.1754 -0.4186  0.4592
 3648TIP3    H232360   0.403   5.270  15.101 -0.6934 -0.8043  1.1047
 3649TIP3   OH232361   1.195   1.750  13.627 -0.4601  0.0567 -0.4111
 3649TIP3    H132362   1.141   1.727  13.703 -0.0116 -1.5361 -0.5384
 3649TIP3    H232363   1.134   1.747  13.553 -0.5909  0.1385 -0.3082
 3650TIP3   OH232364   2.276   6.015   0.690  0.7195  0.1634  0.3479
 3650TIP3    H132365   2.260   5.930   0.650  0.9675 -0.0073  0.6061
 3650TIP3    H232366   2.354   6.002   0.745  0.3959  0.3983  0.8724
 3651TIP3   OH232367   5.925   3.674  12.848 -0.3169 -0.5014 -0.6230
 3651TIP3    H132368   5.982   3.598  12.862 -0.9123 -0.7277  0.8147
 3651TIP3    H232369   5.957   3.714  12.768  1.5022 -0.9306 -0.1477
 3652TIP3   OH232370   0.808   4.645  14.549 -0.1653  0.1205  0.3885
 3652TIP3    H132371   0.759   4.720  14.584 -2.2789 -1.1515  0.2634
 3652TIP3    H232372   0.809   4.582  14.621 -1.5881 -1.1571 -0.6604
 3653TIP3   OH232373   0.682   2.768   3.185  0.3717 -0.2756 -0.3432
 3653TIP3    H132374   0.702   2.796   3.096 -1.8437  0.3409 -0.7197
 3653TIP3    H232375   0.678   2.673   3.180 -2.6406 -0.1983 -1.7095
 3654TIP3   OH232376   4.343   1.544  13.981  0.0515  0.3402  0.2440
 3654TIP3    H132377   4.403   1.477  13.947  1.0118  0.2482  1.9818
 3654TIP3    H232378   4.257   1.519  13.947  0.6700 -0.7452 -0.5915
 3655TIP3   OH232379   3.503   4.958   6.523 -0.5451 -0.1728 -0.2703
 3655TIP3    H132380   3.492   4.987   6.614  1.3751  1.8106 -0.5982
 3655TIP3    H232381   3.555   5.026   6.482  0.0420 -1.8235 -2.4645
 3656TIP3   OH232382   2.401   4.415   4.859  0.6047 -0.1611  0.2620
 3656TIP3    H132383   2.469   4.379   4.802 -0.1920 -1.4012  0.0430
 3656TIP3    H232384   2.388   4.346   4.925 -0.3977  0.0780  0.3188
 3657TIP3   OH232385   1.335   0.901   5.873 -0.4899  0.5574  0.5901
 3657TIP3    H132386   1.365   0.915   5.963 -0.5861  0.5269  0.6270
 3657TIP3    H232387   1.408   0.931   5.818 -0.7054  1.2255  0.6667
 3658TIP3   OH232388   0.952   3.377   5.132 -0.1778  0.1611  0.7155
 3658TIP3    H132389   1.042   3.347   5.139  0.4897  2.1875  1.5186
 3658TIP3    H232390   0.916   3.367   5.220 -1.3489 -2.2354  0.0511
 3659TIP3   OH232391   5.115   4.485  14.671  0.2027  0.0088  0.7104
 3659TIP3    H132392   5.144   4.454  14.757 -0.1402 -1.9044  0.1917
 3659TIP3    H232393   5.025   4.516  14.685 -0.4290 -1.7267  0.8193
 3660TIP3   OH232394   3.308   6.596  16.922 -0.6516  0.3040 -0.2832
 3660TIP3    H132395   3.241   6.564  16.983 -1.3967  0.1161 -1.1720
 3660TIP3    H232396   3.326   6.521  16.866  0.7686  0.1686  0.3158
 3661TIP3   OH232397   6.041   5.611  12.388  0.4044  0.4038 -0.2894
 3661TIP3    H132398   6.128   5.651  12.396  0.4266  0.4980 -0.9171
 3661TIP3    H232399   5.993   5.670  12.329  0.2210 -0.1420 -0.6983
 3662TIP3   OH232400   5.215   3.928   1.966 -0.3593 -0.7560 -0.4758
 3662TIP3    H132401   5.266   3.937   2.046  0.9744 -0.6632 -1.3041
 3662TIP3    H232402   5.217   4.015   1.926  0.1356 -1.1184 -1.2638
 3663TIP3   OH232403   4.129   2.255  15.584 -0.2677 -0.4825  0.0204
 3663TIP3    H132404   4.193   2.280  15.651  0.1427  0.2298 -0.6261
 3663TIP3    H232405   4.126   2.159  15.588 -1.3734 -0.4120  2.0935
 3664TIP3   OH232406   0.340   0.137  13.331  0.0959  0.4434 -0.0514
 3664TIP3    H132407   0.267   0.166  13.277 -0.8265  1.6936  1.7539
 3664TIP3    H232408   0.369   0.055  13.291 -3.0354 -0.7380 -0.2213
 3665TIP3   OH232409   0.972   1.198  14.639  0.2061 -0.1474 -0.6811
 3665TIP3    H132410   1.065   1.178  14.650  0.0215 -0.2339  0.9583
 3665TIP3    H232411   0.949   1.161  14.553  0.9428 -2.9976  0.2577
 3666TIP3   OH232412   2.430   6.424   2.812 -0.6551 -0.0289  0.2924
 3666TIP3    H132413   2.357   6.464   2.860  0.5209  2.4747  0.1398
 3666TIP3    H232414   2.508   6.446   2.863  0.4657  1.2928 -1.8553
 3667TIP3   OH232415   0.299   5.139  16.676  0.2775  0.4082 -0.6703
 3667TIP3    H132416   0.387   5.169  16.696  0.9556 -1.2568 -1.0381
 3667TIP3    H232417   0.292   5.052  16.715 -0.8118  0.0483 -1.5788
 3668TIP3   OH232418   6.057   1.784   1.971  0.3816 -0.1840  0.4004
 3668TIP3    H132419   6.001   1.729   1.916  1.7532 -1.1201 -0.1202
 3668TIP3    H232420   6.127   1.725   2.000  2.7201  1.5720 -1.3410
 3669TIP3   OH232421   1.075   6.332  11.553  0.0597 -0.0415 -0.6377
 3669TIP3    H132422   1.020   6.379  11.490  1.3632  1.5421 -0.6583
 3669TIP3    H232423   1.017   6.316  11.628 -1.1704 -0.8758 -1.7253
 3670TIP3   OH232424   6.345   1.488  11.490  0.2536  0.5297 -0.3455
 3670TIP3    H132425   6.416   1.457  11.433 -0.3812 -0.0334 -0.8540
 3670TIP3    H232426   6.308   1.408  11.527  0.3412  0.8635  0.4853
 3671TIP3   OH232427   4.627   2.235  12.073  0.2302  0.3589  0.0526
 3671TIP3    H132428   4.682   2.247  12.150 -0.3948  1.1977  0.3780
 3671TIP3    H232429   4.678   2.271  12.001  1.3649 -1.5749 -0.1760
 3672TIP3   OH232430   1.939   5.006  13.709  0.8240 -0.2008  0.0345
 3672TIP3    H132431   1.944   5.068  13.782  1.3136 -0.8259  0.5416
 3672TIP3    H232432   1.876   5.046  13.648 -0.5117 -0.2264  1.3320
 3673TIP3   OH232433   5.783   2.192   3.313  0.3993 -0.2959  0.3706
 3673TIP3    H132434   5.765   2.280   3.347 -1.8788 -0.1304 -1.0803
 3673TIP3    H232435   5.864   2.166   3.358  0.9126  2.3354  1.1750
 3674TIP3   OH232436   1.567   5.045  16.922  0.3269 -0.6128 -0.9212
 3674TIP3    H132437   1.493   4.988  16.942  0.7402 -1.0858 -0.7039
 3674TIP3    H232438   1.550   5.077  16.833 -1.0463  0.7449 -0.2075
 3675TIP3   OH232439   6.577   3.562  14.776  0.0243  0.5499  0.3215
 3675TIP3    H132440   6.644   3.526  14.718  0.8057  1.4875  0.5946
 3675TIP3    H232441   6.622   3.634  14.821 -0.6748  0.1077  1.7907
 3676TIP3   OH232442   3.567   5.816   3.049 -0.5815  0.0404 -0.5066
 3676TIP3    H132443   3.583   5.766   3.130 -0.0955  1.2762  0.1829
 3676TIP3    H232444   3.627   5.778   2.985  1.9947  1.6231  0.8133
 3677TIP3   OH232445   6.219   5.533   0.847 -0.8127 -0.4679 -0.9180
 3677TIP3    H132446   6.229   5.628   0.844 -0.5146 -0.4890 -0.6199
 3677TIP3    H232447   6.185   5.510   0.760  1.4827 -0.3582 -1.9141
 3678TIP3   OH232448   0.175   6.519   1.659  0.5918 -0.4234 -0.3497
 3678TIP3    H132449   0.268   6.499   1.667  1.1153  0.6059 -2.9247
 3678TIP3    H232450   0.169   6.613   1.671 -0.4364 -0.6982  1.6780
 3679TIP3   OH232451   3.947   4.406  13.627  0.2442 -0.4023 -0.1586
 3679TIP3    H132452   3.874   4.452  13.584  2.4866  3.8930  0.0576
 3679TIP3    H232453   3.960   4.455  13.709  1.4755 -3.0371  1.3261
 3680TIP3   OH232454   1.071   3.513   2.246 -0.0367  0.0946  0.1463
 3680TIP3    H132455   0.988   3.513   2.198 -0.0333  0.3023  0.1392
 3680TIP3    H232456   1.064   3.589   2.305 -0.2342 -0.4283  0.8052
 3681TIP3   OH232457   2.384   5.475   4.237 -0.1112  0.1080  0.0896
 3681TIP3    H132458   2.363   5.426   4.157  0.5865 -0.2546  0.1195
 3681TIP3    H232459   2.394   5.408   4.304  0.4593  0.3204  0.2200
 3682TIP3   OH232460   5.094   5.090  13.485  0.2153  0.2470  0.5446
 3682TIP3    H132461   5.016   5.084  13.541 -0.3146  2.6487  0.1791
 3682TIP3    H232462   5.157   5.139  13.537 -0.0405  1.9182 -0.6300
 3683TIP3   OH232463   4.783   2.841   1.195 -0.4868 -0.0424  0.3310
 3683TIP3    H132464   4.856   2.815   1.139 -1.5312 -2.0329 -0.2087
 3683TIP3    H232465   4.821   2.847   1.283  0.2203 -1.7821  0.1879
 3684TIP3   OH232466   0.459   0.922  13.805 -0.8377 -0.7227  0.0182
 3684TIP3    H132467   0.523   0.951  13.740 -0.1310 -1.3984  0.3902
 3684TIP3    H232468   0.392   0.877  13.753 -0.6260 -0.6669 -0.3064
 3685TIP3   OH232469   5.413   0.444  15.025  0.2467  0.6927 -0.2318
 3685TIP3    H132470   5.357   0.389  14.970  0.5430  0.5462 -0.3878
 3685TIP3    H232471   5.499   0.441  14.983  0.7337 -0.2307  0.7721
 3686TIP3   OH232472   6.489   1.893  12.721 -0.5226  0.1823 -0.1255
 3686TIP3    H132473   6.474   1.800  12.741 -0.8764 -0.0014 -1.1473
 3686TIP3    H232474   6.502   1.935  12.806 -0.5039 -0.7806  0.3578
 3687TIP3   OH232475   4.496   0.934  13.228  0.1039  0.9895  0.2830
 3687TIP3    H132476   4.515   0.893  13.312  0.3020  0.5267  0.0113
 3687TIP3    H232477   4.402   0.950  13.230 -0.1111 -0.1671  0.0836
 3688TIP3   OH232478   5.614   4.263   6.104  0.7533 -0.1089 -0.0526
 3688TIP3    H132479   5.644   4.195   6.164  0.3684 -1.9327 -1.8231
 3688TIP3    H232480   5.522   4.275   6.126  0.7484 -0.3864  0.0848
 3689TIP3   OH232481   1.785   0.621  14.505 -0.0912 -0.1169 -0.1162
 3689TIP3    H132482   1.833   0.668  14.573  1.1274  0.3988 -1.2751
 3689TIP3    H232483   1.701   0.666  14.500 -0.3265 -0.3571  1.2274
 3690TIP3   OH232484   1.598   1.374   5.095  0.1188  0.0331 -0.6193
 3690TIP3    H132485   1.596   1.468   5.111 -1.3641 -0.2752  1.5638
 3690TIP3    H232486   1.523   1.340   5.145  1.9743 -2.5518  0.6418
 3691TIP3   OH232487   3.666   4.545   1.454  0.6158  0.8941  0.1240
 3691TIP3    H132488   3.646   4.639   1.451  0.9878  1.1702  3.0337
 3691TIP3    H232489   3.761   4.542   1.465  0.9054  0.0284 -2.1752
 3692TIP3   OH232490   5.765   4.830  14.733 -0.0554 -0.0252 -0.5063
 3692TIP3    H132491   5.838   4.820  14.794 -1.0318  0.8237  0.8628
 3692TIP3    H232492   5.749   4.924  14.730 -1.5355 -0.2522 -0.2459
 3693TIP3   OH232493   5.030   6.649   3.624 -0.3051 -0.2556  0.1254
 3693TIP3    H132494   5.054   6.670   3.715  0.7401  0.9877 -0.4075
 3693TIP3    H232495   4.969   6.719   3.599 -1.8487 -1.4788  0.3509
 3694TIP3   OH232496   1.226   3.078   4.021  0.4820 -0.1626 -0.0976
 3694TIP3    H132497   1.276   3.113   3.948  1.3732 -0.4945  0.3289
 3694TIP3    H232498   1.139   3.116   4.012  0.9016  0.6857 -0.6802
 3695TIP3   OH232499   6.281   3.819   2.497  0.1201  0.3042 -0.2020
 3695TIP3    H132500   6.375   3.825   2.480  0.2152 -0.0563  0.1787
 3695TIP3    H232501   6.265   3.879   2.570  0.2040 -0.2476  0.2800
 3696TIP3   OH232502   3.893   1.574  16.993  0.0932  0.4805 -0.0595
 3696TIP3    H132503   3.873   1.534  17.077 -0.2228 -0.0077 -0.3640
 3696TIP3    H232504   3.966   1.522  16.958 -0.4884 -0.0113 -0.5737
 3697TIP3   OH232505   2.460   5.186   0.499 -0.2289  0.4018 -0.3727
 3697TIP3    H132506   2.477   5.092   0.494  1.4630  0.6656 -0.2428
 3697TIP3    H232507   2.546   5.227   0.491 -0.9144  1.9513 -0.3426
 3698TIP3   OH232508   1.365   5.756   1.890  0.4600 -0.0131 -0.1633
 3698TIP3    H132509   1.420   5.782   1.816  0.0778  1.1189 -0.0757
 3698TIP3    H232510   1.377   5.662   1.898  0.1440 -0.2418 -1.9733
 3699TIP3   OH232511   2.519   1.285   2.676 -0.4687  0.2254 -0.4183
 3699TIP3    H132512   2.573   1.215   2.638 -0.3146  0.1428 -0.0555
 3699TIP3    H232513   2.440   1.240   2.705 -0.0054  0.0325  0.6097
 3700TIP3   OH232514   4.595   0.413   3.527 -0.6501  0.4491  0.5445
 3700TIP3    H132515   4.558   0.500   3.510  0.4034  0.8535  0.2420
 3700TIP3    H232516   4.559   0.388   3.613 -0.4042  1.4889  0.9615
 3701TIP3   OH232517   1.295   2.164   2.919  0.1486  0.1710  0.2523
 3701TIP3    H132518   1.334   2.241   2.961 -0.7875 -0.1625  1.8294
 3701TIP3    H232519   1.267   2.109   2.992 -0.9555 -0.7671 -0.8338
 3702TIP3   OH232520   1.610   5.426  12.118  0.2333 -0.7876 -0.0453
 3702TIP3    H132521   1.633   5.359  12.183 -0.8125 -0.6740  0.4578
 3702TIP3    H232522   1.691   5.440  12.070  0.9414 -1.1369  0.9926
 3703TIP3   OH232523   2.208   4.096   4.867 -0.4276  0.3735 -0.0251
 3703TIP3    H132524   2.230   4.144   4.947  2.2245  1.6109 -1.3885
 3703TIP3    H232525   2.253   4.012   4.875  0.3531  0.7402 -0.4431
 3704TIP3   OH232526   4.425   6.144  15.580  0.2343  0.4974  0.2903
 3704TIP3    H132527   4.332   6.126  15.595  0.4454  0.1307  1.2391
 3704TIP3    H232528   4.461   6.156  15.668  1.4386 -1.0985  0.0535
 3705TIP3   OH232529   1.565   1.099  13.749 -0.0401  0.0429 -0.3224
 3705TIP3    H132530   1.497   1.048  13.704  1.3101 -0.8527 -1.4267
 3705TIP3    H232531   1.638   1.102  13.687  1.8301 -1.0205  1.7048
 3706TIP3   OH232532   2.656   0.925   1.713  0.2068  0.1515  0.3634
 3706TIP3    H132533   2.687   0.858   1.774 -1.7636 -1.2339 -0.0508
 3706TIP3    H232534   2.727   0.936   1.650  1.6137  0.4120  1.9382
 3707TIP3   OH232535   4.014   3.924  16.817 -0.3075  0.1375 -0.3121
 3707TIP3    H132536   3.949   3.976  16.770  1.0151  1.6268 -0.5575
 3707TIP3    H232537   4.024   3.966  16.902  0.1450 -0.2401 -0.1695
 3708TIP3   OH232538   3.436   4.970  12.976  0.4368 -0.4486 -0.0364
 3708TIP3    H132539   3.367   5.001  12.917  0.7900  0.3088 -0.0550
 3708TIP3    H232540   3.517   4.983  12.927  0.5991 -1.4489 -0.0632
 3709TIP3   OH232541   1.509   6.636   1.415  0.1303 -0.2889 -0.3384
 3709TIP3    H132542   1.522   6.557   1.466  2.0374 -0.8726 -1.6253
 3709TIP3    H232543   1.496   6.605   1.325 -0.9055  0.7984 -0.5914
 3710TIP3   OH232544   5.233   0.597   3.982  0.2633 -0.4333  0.7560
 3710TIP3    H132545   5.213   0.572   4.073 -1.4896 -0.6225  0.3698
 3710TIP3    H232546   5.224   0.692   3.982  1.0268 -0.3591  0.9421
 3711TIP3   OH232547   5.303   2.470  16.048  0.5207  0.3225  0.5293
 3711TIP3    H132548   5.286   2.467  15.954 -0.8142  0.2938  0.7562
 3711TIP3    H232549   5.332   2.382  16.070  2.0045  0.6295 -0.0363
 3712TIP3   OH232550   2.586   5.633   3.419 -0.4294 -0.6797  0.0099
 3712TIP3    H132551   2.669   5.644   3.465  0.0984 -0.3444 -1.0067
 3712TIP3    H232552   2.598   5.678   3.336 -1.0717 -1.9554 -0.8096
 3713TIP3   OH232553   4.635   5.791  13.559  0.2259 -0.4937  0.4182
 3713TIP3    H132554   4.662   5.750  13.641  2.4388 -0.1696 -0.0611
 3713TIP3    H232555   4.563   5.737  13.526 -0.8750 -0.4729  2.6533
 3714TIP3   OH232556   4.330   6.810   2.266  0.4434 -0.1278 -0.1466
 3714TIP3    H132557   4.381   6.803   2.347  0.9921  0.4070 -0.4419
 3714TIP3    H232558   4.395   6.811   2.196 -0.0814 -2.3205 -0.7356
 3715TIP3   OH232559   2.513   4.624   0.054  0.1001  0.1915  0.2452
 3715TIP3    H132560   2.491   4.533   0.033 -0.9062  1.0579 -3.0449
 3715TIP3    H232561   2.431   4.663   0.083  0.8877 -0.2390  3.4680
 3716TIP3   OH232562   3.796   1.530   0.483  0.0313  0.1482  0.0699
 3716TIP3    H132563   3.833   1.484   0.558 -2.3290  0.8790  1.8285
 3716TIP3    H232564   3.722   1.476   0.455 -0.3451  0.8777 -0.4043
 3717TIP3   OH232565   3.454   4.448   1.738 -0.2468  0.0349 -0.7632
 3717TIP3    H132566   3.403   4.513   1.689 -2.0878 -1.7691 -1.3559
 3717TIP3    H232567   3.458   4.372   1.681 -1.6696 -1.8283  1.4074
 3718TIP3   OH232568   3.812   2.520  15.509  0.2594  1.0144  0.5402
 3718TIP3    H132569   3.782   2.519  15.418  0.3239  1.7608  0.5022
 3718TIP3    H232570   3.732   2.513  15.561  0.2937 -0.3850  0.4338
 3719TIP3   OH232571   4.919   1.383  10.417 -0.3244  0.0334  0.7924
 3719TIP3    H132572   5.006   1.355  10.388  0.2870  1.5056  1.0860
 3719TIP3    H232573   4.890   1.314  10.477  0.2494 -0.9090  0.0093
 3720TIP3   OH232574   1.272   1.325  15.205 -0.8398 -0.4649 -0.0260
 3720TIP3    H132575   1.246   1.362  15.120 -1.4414 -0.8336 -0.0156
 3720TIP3    H232576   1.228   1.240  15.207  0.0917 -0.9538  0.1718
 3721TIP3   OH232577   0.424   4.594   1.375  0.8488  0.3418 -0.1573
 3721TIP3    H132578   0.377   4.562   1.298 -0.8292  0.8590  0.6091
 3721TIP3    H232579   0.452   4.516   1.421  1.1448  0.0289 -0.8479
 3722TIP3   OH232580   3.360   0.766   4.996 -0.2367 -0.2636 -0.4707
 3722TIP3    H132581   3.441   0.731   5.033 -1.8434 -2.4092  1.2856
 3722TIP3    H232582   3.385   0.797   4.909  2.4980 -0.5934  0.1003
 3723TIP3   OH232583   5.073   3.359  10.914 -0.3329 -0.1766 -0.1950
 3723TIP3    H132584   5.073   3.373  10.819 -0.8884 -1.3741 -0.3925
 3723TIP3    H232585   5.004   3.417  10.947  3.0610  4.1765  0.2097
 3724TIP3   OH232586   2.772   6.648   0.716  0.5533  0.0719  0.1674
 3724TIP3    H132587   2.727   6.563   0.704  2.1811 -0.6261 -1.5068
 3724TIP3    H232588   2.713   6.711   0.675  0.4743 -0.6422 -0.8718
 3725TIP3   OH232589   2.585   3.403   3.214 -0.3720 -0.3186 -0.4293
 3725TIP3    H132590   2.492   3.386   3.195 -0.8757  0.4347  1.1718
 3725TIP3    H232591   2.596   3.377   3.305  0.7258  0.5830 -0.2788
 3726TIP3   OH232592   3.962   6.289  13.829  0.0119 -0.3763 -0.3057
 3726TIP3    H132593   4.055   6.293  13.808  1.1837 -1.7678  3.6964
 3726TIP3    H232594   3.949   6.359  13.894 -1.7087 -0.2970 -0.7001
 3727TIP3   OH232595   0.790   4.305  15.546  0.4307  0.5576  0.5602
 3727TIP3    H132596   0.737   4.363  15.492 -0.9411 -1.1667 -0.0300
 3727TIP3    H232597   0.736   4.285  15.622  0.3931 -0.8009  0.2118
 3728TIP3   OH232598   0.663   4.220  13.707 -0.1474 -0.1535 -0.2094
 3728TIP3    H132599   0.586   4.244  13.655  0.7142  3.7718  0.0586
 3728TIP3    H232600   0.626   4.177  13.784 -2.2654  2.2912  0.2932
 3729TIP3   OH232601   3.753   1.629  12.354 -0.2037 -0.3264 -0.8391
 3729TIP3    H132602   3.794   1.698  12.302 -0.9595 -0.4449 -1.6082
 3729TIP3    H232603   3.684   1.594  12.298  0.3121 -1.8681 -0.5623
 3730TIP3   OH232604   0.159   6.243  15.877 -0.5593  0.3042 -0.4247
 3730TIP3    H132605   0.198   6.212  15.958  0.2396  0.2417 -0.8299
 3730TIP3    H232606   0.225   6.301  15.839 -1.2390  0.9514 -0.6468
 3731TIP3   OH232607   1.110   3.187  14.815 -0.1337  0.0222 -0.1540
 3731TIP3    H132608   1.180   3.209  14.753  1.4663 -2.9799  0.4231
 3731TIP3    H232609   1.154   3.138  14.885 -2.6884 -1.1496  0.7431
 3732TIP3   OH232610   1.431   1.045  12.470 -0.0490  0.1065 -0.3721
 3732TIP3    H132611   1.510   0.991  12.475 -1.1259 -1.5098  3.2989
 3732TIP3    H232612   1.452   1.122  12.523 -0.8891 -0.3897  0.7243
 3733TIP3   OH232613   5.716   6.064  14.803  0.1106 -0.8451 -0.0843
 3733TIP3    H132614   5.751   6.109  14.725 -1.7043  1.1936  0.1736
 3733TIP3    H232615   5.757   6.110  14.877 -0.6605 -0.5654  0.1748
 3734TIP3   OH232616   4.117   5.354  14.561  0.2991  0.4618  0.0700
 3734TIP3    H132617   4.043   5.298  14.536 -0.9806  1.7173  0.8631
 3734TIP3    H232618   4.155   5.312  14.638  0.6325 -0.3717 -0.5412
 3735TIP3   OH232619   3.847   5.405   0.277 -0.3738  0.1558 -0.7038
 3735TIP3    H132620   3.860   5.438   0.187  1.4314  1.9502  0.1406
 3735TIP3    H232621   3.791   5.328   0.266 -2.2940  1.7238 -3.1485
 3736TIP3   OH232622   2.105   6.139  12.622 -0.3334  0.8039 -0.0323
 3736TIP3    H132623   2.161   6.131  12.699  0.7472  0.0944 -0.8690
 3736TIP3    H232624   2.016   6.137  12.658  0.1182 -0.3257  1.1419
 3737TIP3   OH232625   3.232   3.050   1.452  0.5578  0.3491 -0.0306
 3737TIP3    H132626   3.224   3.059   1.357  0.3579 -1.5996 -0.2380
 3737TIP3    H232627   3.156   3.097   1.487 -1.4448 -1.8804 -1.0743
 3738TIP3   OH232628   1.762   6.358  10.979 -0.0089 -0.5345 -0.0597
 3738TIP3    H132629   1.840   6.308  11.004  0.0730 -0.1170  0.5589
 3738TIP3    H232630   1.798   6.438  10.939 -0.0415  0.5131  1.8578
 3739TIP3   OH232631   6.352   4.275   6.357  0.1773 -0.3816  0.6057
 3739TIP3    H132632   6.413   4.207   6.327  1.9342  1.3244  0.1333
 3739TIP3    H232633   6.392   4.308   6.438 -0.9094 -0.2400  1.0936
 3740TIP3   OH232634   4.324   4.396  16.248  0.3758 -0.3884 -0.2115
 3740TIP3    H132635   4.357   4.388  16.338 -2.1204 -0.4975  0.7814
 3740TIP3    H232636   4.261   4.325  16.240 -3.0469  2.3965 -0.2917
 3741TIP3   OH232637   6.576   1.696   4.779  0.0136  0.0719  0.4432
 3741TIP3    H132638   6.509   1.643   4.823 -0.3295 -0.0103 -0.1688
 3741TIP3    H232639   6.528   1.749   4.716  0.3210  1.3543  1.2663
 3742TIP3   OH232640   3.034   4.760  12.465  0.1744  0.3103  0.6918
 3742TIP3    H132641   3.012   4.765  12.372  4.1732  0.8855 -0.4300
 3742TIP3    H232642   3.002   4.842  12.502 -0.8109  0.4096 -0.3370
 3743TIP3   OH232643   3.950   5.257   2.672  0.0900  0.5853  0.0445
 3743TIP3    H132644   3.928   5.164   2.680 -1.4567  0.9007 -0.1443
 3743TIP3    H232645   3.987   5.280   2.757  1.8635 -0.5100 -0.3806
 3744TIP3   OH232646   1.514   1.229  16.269  0.2755  0.2641 -0.3389
 3744TIP3    H132647   1.544   1.309  16.312  0.4566  0.1780 -0.3063
 3744TIP3    H232648   1.570   1.160  16.304  0.5311  0.2173 -0.8296
 3745TIP3   OH232649   3.873   1.741  11.532  0.6418  0.0209 -0.0068
 3745TIP3    H132650   3.961   1.756  11.496  0.0646  1.3048 -0.9652
 3745TIP3    H232651   3.868   1.798  11.609 -0.2139  2.0048 -1.4494
 3746TIP3   OH232652   2.517   1.969  16.477  0.2635 -0.3835 -0.3159
 3746TIP3    H132653   2.551   1.894  16.429  1.5474  1.0221 -1.7017
 3746TIP3    H232654   2.587   1.992  16.538 -0.2104 -0.3998  0.2505
 3747TIP3   OH232655   4.495   4.696  13.735  0.1242  0.3003 -0.3723
 3747TIP3    H132656   4.581   4.671  13.704  0.6705  1.4784  0.1083
 3747TIP3    H232657   4.491   4.662  13.825 -0.6716 -1.3828 -1.0152
 3748TIP3   OH232658   2.597   4.648   0.919  0.4300 -0.0764 -0.0044
 3748TIP3    H132659   2.671   4.606   0.876 -1.0198 -1.4007 -1.3729
 3748TIP3    H232660   2.582   4.728   0.870  0.5121 -0.1752 -0.1922
 3749TIP3   OH232661   0.870   4.111  16.888 -0.1859 -0.0457 -0.1969
 3749TIP3    H132662   0.894   4.083  16.976 -0.4945  0.2677 -0.0086
 3749TIP3    H232663   0.877   4.032  16.834 -2.3817 -0.8339  0.5798
 3750TIP3   OH232664   3.424   2.925   1.152 -0.6105 -0.1052 -0.2265
 3750TIP3    H132665   3.351   2.953   1.207  0.3960 -0.7032  1.5082
 3750TIP3    H232666   3.454   2.844   1.193  0.4333 -0.3596 -1.4574
 3751TIP3   OH232667   2.005   5.045  12.680 -0.0700 -0.0079  0.6496
 3751TIP3    H132668   2.054   5.011  12.605  0.2744 -1.5385  1.5456
 3751TIP3    H232669   2.062   5.031  12.755 -0.1046  2.1561  1.1646
 3752TIP3   OH232670   1.687   4.274  14.561 -0.4640  0.9652  0.3243
 3752TIP3    H132671   1.612   4.232  14.603 -1.3721  2.4723  0.2981
 3752TIP3    H232672   1.660   4.285  14.469  0.3761  0.2233 -0.0205
 3753TIP3   OH232673   4.520   2.057   0.707  0.3183  0.4077 -0.0341
 3753TIP3    H132674   4.551   2.145   0.684 -0.1619  0.3685 -0.8931
 3753TIP3    H232675   4.497   2.062   0.800  1.6772  0.7815  0.2945
 3754TIP3   OH232676   2.513   5.878  13.396 -0.6314 -0.5700 -0.0452
 3754TIP3    H132677   2.506   5.884  13.301 -1.8150  1.6428  0.1237
 3754TIP3    H232678   2.434   5.831  13.424 -0.9719 -0.0197 -0.0723
 3755TIP3   OH232679   3.588   2.960  13.672  0.3535  0.6458 -0.0354
 3755TIP3    H132680   3.503   2.971  13.629  0.6192 -0.2192 -0.8127
 3755TIP3    H232681   3.568   2.912  13.753  0.0350  0.9266  0.0530
 3756TIP3   OH232682   3.716   6.327  17.073 -0.0820  0.5797 -0.5238
 3756TIP3    H132683   3.809   6.349  17.073 -0.2605  1.3611 -0.4273
 3756TIP3    H232684   3.686   6.349  16.984 -0.6376  2.4214  0.0782
 3757TIP3   OH232685   0.791   2.860  15.300 -0.0001  0.6807 -0.0856
 3757TIP3    H132686   0.727   2.929  15.318 -0.6006  0.2919 -0.7193
 3757TIP3    H232687   0.871   2.890  15.344 -0.8704  0.6978  1.5573
 3758TIP3   OH232688   5.493   1.697  11.512 -0.1869  0.2263  0.3160
 3758TIP3    H132689   5.447   1.780  11.501 -1.8388 -0.6864  0.0272
 3758TIP3    H232690   5.570   1.705  11.456 -0.0286  1.7537  0.7063
 3759TIP3   OH232691   3.501   4.737  15.383  0.7420 -0.1887 -0.3621
 3759TIP3    H132692   3.523   4.820  15.339 -1.8607 -0.7613 -3.0961
 3759TIP3    H232693   3.408   4.744  15.402  0.8515 -1.8392  1.0199
 3760TIP3   OH232694   3.818   6.596  14.284 -0.1566  0.1794 -0.3745
 3760TIP3    H132695   3.726   6.598  14.310 -0.0222 -0.3327  0.1717
 3760TIP3    H232696   3.866   6.632  14.360  0.3762 -2.7980  0.8321
 3761TIP3   OH232697   1.389   6.466   5.159 -0.2361  0.1147  0.1676
 3761TIP3    H132698   1.467   6.411   5.147 -0.1077  0.5451 -1.1263
 3761TIP3    H232699   1.322   6.427   5.103 -0.3108  0.9179 -0.3357
 3762TIP3   OH232700   0.266   2.541   5.478  0.1543 -0.2528 -0.0486
 3762TIP3    H132701   0.305   2.464   5.435  1.5424  0.4683 -0.1325
 3762TIP3    H232702   0.211   2.580   5.410  0.9797 -0.0880 -0.6454
 3763TIP3   OH232703   1.248   0.679  13.006 -0.3173  0.2594 -0.7058
 3763TIP3    H132704   1.309   0.747  12.977 -0.9658  0.5614 -1.4022
 3763TIP3    H232705   1.263   0.672  13.100  0.8269  0.2810 -0.8643
 3764TIP3   OH232706   1.349   5.418  14.274 -0.2896  0.0745  0.2980
 3764TIP3    H132707   1.317   5.392  14.360 -2.4482  1.8895  0.1221
 3764TIP3    H232708   1.330   5.343  14.218  0.7533 -0.9578  1.2669
 3765TIP3   OH232709   2.987   3.520  14.575  0.5344 -0.1256 -0.1174
 3765TIP3    H132710   2.903   3.563  14.564  0.3683 -0.3467  0.2599
 3765TIP3    H232711   3.046   3.589  14.604  0.1539 -0.2396  0.9657
 3766TIP3   OH232712   1.044   0.439  10.845  0.2436 -0.3291 -1.0288
 3766TIP3    H132713   0.959   0.480  10.831 -0.3208 -1.5953 -1.5008
 3766TIP3    H232714   1.037   0.354  10.800  1.5801 -0.6634 -0.6517
 3767TIP3   OH232715   5.347   6.471  12.023 -0.0035  0.2079 -0.1690
 3767TIP3    H132716   5.335   6.402  11.957 -0.2197 -1.2433  1.3195
 3767TIP3    H232717   5.327   6.428  12.106 -0.8198  2.2828  0.7631
 3768TIP3   OH232718   0.231   4.427   1.690 -0.3616  0.5007 -0.2923
 3768TIP3    H132719   0.264   4.513   1.715 -0.5025 -0.1561  2.4607
 3768TIP3    H232720   0.138   4.430   1.711  0.0519 -1.0020  2.1952
 3769TIP3   OH232721   4.505   3.903   0.388  0.0226 -0.2878 -0.4755
 3769TIP3    H132722   4.571   3.846   0.348  2.7106  2.2315 -0.0733
 3769TIP3    H232723   4.506   3.880   0.481 -1.8416 -2.1536 -0.8701
 3770TIP3   OH232724   2.638   4.901  16.554 -0.2237 -0.1140 -0.2742
 3770TIP3    H132725   2.562   4.942  16.596 -1.2799 -2.0427 -0.1793
 3770TIP3    H232726   2.603   4.821  16.515  1.7140 -0.8842 -0.5325
 3771TIP3   OH232727   2.964   1.222  11.603  0.0302  0.2262 -0.3997
 3771TIP3    H132728   2.907   1.146  11.590  1.4664 -0.9782  0.1724
 3771TIP3    H232729   3.022   1.222  11.527 -1.8094  2.5418 -1.9739
 3772TIP3   OH232730   2.825   0.548  11.039 -0.7284 -0.4065 -0.1571
 3772TIP3    H132731   2.753   0.559  10.977 -0.5762 -1.9855 -0.6340
 3772TIP3    H232732   2.784   0.508  11.116 -0.7221  0.6135  0.4009
 3773TIP3   OH232733   3.773   4.565  15.263 -0.3173 -0.4967 -0.2409
 3773TIP3    H132734   3.724   4.647  15.257 -1.3403 -0.6223  3.5805
 3773TIP3    H232735   3.822   4.573  15.345  1.5904 -2.7248 -1.0710
 3774TIP3   OH232736   1.054   0.895  16.346 -0.1439 -0.7154 -0.0950
 3774TIP3    H132737   1.035   0.843  16.424  0.1602  0.3050  0.6905
 3774TIP3    H232738   1.063   0.985  16.379 -1.1545 -0.0628 -1.4570
 3775TIP3   OH232739   0.427   1.295   1.013  0.0903 -0.1851  0.5437
 3775TIP3    H132740   0.442   1.351   1.089  1.0566  1.2734 -0.6443
 3775TIP3    H232741   0.483   1.218   1.028  1.6878  0.9173  0.5078
 3776TIP3   OH232742   4.263   3.033   6.197  0.2432 -0.3562 -0.7903
 3776TIP3    H132743   4.194   2.989   6.147 -0.5792 -0.4566  0.3730
 3776TIP3    H232744   4.232   3.123   6.207 -0.5939 -0.7902  1.1406
 3777TIP3   OH232745   2.264   4.737   3.274  0.4187  0.1322 -0.4183
 3777TIP3    H132746   2.197   4.730   3.342  1.3248  2.7245  0.9127
 3777TIP3    H232747   2.276   4.832   3.262  1.0192 -0.2125 -3.5256
 3778TIP3   OH232748   1.408   1.269   2.328 -0.0392  0.0784  0.0139
 3778TIP3    H132749   1.336   1.211   2.302  1.0993 -1.2600 -0.2388
 3778TIP3    H232750   1.439   1.307   2.246 -0.6219  0.8806  0.1537
 3779TIP3   OH232751   6.287   1.857  15.205  0.5574 -0.1251  0.0798
 3779TIP3    H132752   6.338   1.815  15.275  0.2171  0.0710  0.4445
 3779TIP3    H232753   6.211   1.801  15.193 -0.3384  0.8247  1.1567
 3780TIP3   OH232754   2.930   5.441   4.473  0.4567  0.0201  0.2898
 3780TIP3    H132755   2.861   5.477   4.418  0.1056 -1.8842 -0.6101
 3780TIP3    H232756   2.922   5.488   4.556 -2.1396 -0.3574  0.3327
 3781TIP3   OH232757   6.288   3.135   5.883 -0.4122 -0.7868 -0.1055
 3781TIP3    H132758   6.303   3.094   5.968 -0.6866 -1.4884 -0.3940
 3781TIP3    H232759   6.303   3.065   5.819 -0.8901 -0.4450 -0.6038
 3782TIP3   OH232760   5.409   4.293  13.205  0.3340  0.5047  0.4625
 3782TIP3    H132761   5.323   4.267  13.235 -0.4669  1.2862 -1.0306
 3782TIP3    H232762   5.465   4.290  13.283 -1.3661  1.4021  1.7711
 3783TIP3   OH232763   2.579   3.500   5.668  1.0091 -0.4722  0.8970
 3783TIP3    H132764   2.615   3.432   5.724  0.9682  0.0148  1.5243
 3783TIP3    H232765   2.532   3.558   5.728  0.7796 -0.0653  0.3304
 3784TIP3   OH232766   5.235   3.697  16.831 -0.5157 -0.1805  0.0419
 3784TIP3    H132767   5.203   3.665  16.915  1.0558 -0.4110  0.5866
 3784TIP3    H232768   5.208   3.789  16.829  0.5638  0.2072  1.4343
 3785TIP3   OH232769   3.667   4.666   3.553 -0.6588 -0.2008 -0.1779
 3785TIP3    H132770   3.661   4.603   3.482  0.5630 -0.1575 -0.3292
 3785TIP3    H232771   3.577   4.698   3.564 -1.4656 -2.4314  0.3430
 3786TIP3   OH232772   5.929   5.229   4.609  0.1965  0.8011 -0.2888
 3786TIP3    H132773   5.868   5.282   4.660 -0.5106  1.2666 -1.5744
 3786TIP3    H232774   6.015   5.250   4.646 -0.3121  0.9016  0.8833
 3787TIP3   OH232775   6.061   1.884   1.514 -0.7570  0.2472  0.5517
 3787TIP3    H132776   6.048   1.978   1.520 -0.0139  0.3582  0.5119
 3787TIP3    H232777   6.042   1.851   1.602 -1.7008  0.3364  0.3921
 3788TIP3   OH232778   6.383   1.574  14.782  0.2313 -0.1983 -0.0233
 3788TIP3    H132779   6.387   1.600  14.875 -2.9562  1.3937 -0.2064
 3788TIP3    H232780   6.354   1.653  14.737  0.0606 -1.4274 -2.1681
 3789TIP3   OH232781   0.665   6.096   4.834  0.0803 -0.1846 -0.1470
 3789TIP3    H132782   0.739   6.062   4.783  1.2789 -0.5478  1.7596
 3789TIP3    H232783   0.594   6.035   4.815  1.0779 -1.4841  0.1355
 3790TIP3   OH232784   3.456   0.321  12.866 -0.0386 -0.1662  0.5756
 3790TIP3    H132785   3.410   0.270  12.932 -0.0362  1.4421  1.8652
 3790TIP3    H232786   3.469   0.407  12.905 -0.8381  1.1651 -1.8548
 3791TIP3   OH232787   4.921   4.100  13.579  0.2069  0.1678  0.4083
 3791TIP3    H132788   4.858   4.036  13.544  0.9771 -0.1271 -0.4799
 3791TIP3    H232789   4.872   4.182  13.582  0.1042  0.2248 -1.4494
 3792TIP3   OH232790   5.044   4.150   3.208  0.1579  0.4626  0.3065
 3792TIP3    H132791   5.125   4.152   3.157 -1.1358 -0.1298 -1.9134
 3792TIP3    H232792   5.010   4.239   3.202  0.8690  0.8776  1.7590
 3793TIP3   OH232793   6.506   0.332   0.989 -0.1852 -0.3139  0.2065
 3793TIP3    H132794   6.503   0.252   0.936 -2.3364 -1.2197  1.5750
 3793TIP3    H232795   6.596   0.335   1.022  0.3112 -1.4342 -0.9393
 3794TIP3   OH232796   6.067   1.763   3.830 -0.0132 -0.1846  0.2570
 3794TIP3    H132797   6.058   1.694   3.896 -0.9921  0.1548  0.4974
 3794TIP3    H232798   6.061   1.717   3.747  0.8587 -0.5705  0.4020
 3795TIP3   OH232799   2.778   1.248   1.757  0.3399 -0.1405  0.5572
 3795TIP3    H132800   2.772   1.298   1.675 -1.9209 -0.5539  0.4040
 3795TIP3    H232801   2.835   1.174   1.736  1.0973  0.6156 -0.1554
 3796TIP3   OH232802   3.818   2.337   4.797 -0.2333  0.8910 -0.5964
 3796TIP3    H132803   3.757   2.364   4.729 -0.2213 -1.5151 -1.6625
 3796TIP3    H232804   3.764   2.330   4.876 -0.5925  2.0403 -0.7142
 3797TIP3   OH232805   4.089   2.975   1.770 -0.0004  0.0820  0.2775
 3797TIP3    H132806   4.180   2.974   1.742  0.2066  0.0582  0.9482
 3797TIP3    H232807   4.058   2.885   1.753  0.0535  0.1311 -0.0875
 3798TIP3   OH232808   4.304   1.760   1.813 -0.1213 -0.0048  0.3998
 3798TIP3    H132809   4.345   1.728   1.893  1.6986  0.1239 -0.4337
 3798TIP3    H232810   4.213   1.777   1.838  0.3391 -0.1720  2.3656
 3799TIP3   OH232811   0.213   2.159   2.897 -0.0830 -0.3817  0.1239
 3799TIP3    H132812   0.218   2.063   2.906  0.8725 -0.3487  0.1072
 3799TIP3    H232813   0.124   2.181   2.922 -0.4502 -1.3276 -0.2828
 3800TIP3   OH232814   3.198   1.786   5.438 -0.2139  0.1972 -0.7740
 3800TIP3    H132815   3.210   1.701   5.482 -2.8892 -1.4126 -2.8697
 3800TIP3    H232816   3.265   1.788   5.370  0.9591  0.6141  0.3493
 3801TIP3   OH232817   4.877   0.986   1.371  0.3996  0.1843  0.0303
 3801TIP3    H132818   4.803   0.939   1.408 -0.0675 -0.6182 -1.8149
 3801TIP3    H232819   4.838   1.059   1.323  0.8983  0.5327  0.1469
 3802TIP3   OH232820   6.186   1.830   1.262  0.7067  0.2567  0.0038
 3802TIP3    H132821   6.160   1.901   1.204 -1.2226  1.4296  2.1519
 3802TIP3    H232822   6.137   1.845   1.343  0.6911 -3.1704  0.8007
 3803TIP3   OH232823   6.646   2.664  16.874 -0.5561 -0.1756 -0.5416
 3803TIP3    H132824   6.567   2.645  16.823 -0.5214 -0.3826 -0.5203
 3803TIP3    H232825   6.670   2.753  16.849 -1.5933  0.4296  0.4829
 3804TIP3   OH232826   0.164   1.201  11.381  0.1615 -0.3107  0.3280
 3804TIP3    H132827   0.229   1.255  11.335 -1.9866  1.2726 -1.0224
 3804TIP3    H232828   0.187   1.210  11.474  3.4946 -2.0837 -0.1719
 3805TIP3   OH232829   1.460   2.783   3.398 -0.2610 -0.1112  0.6150
 3805TIP3    H132830   1.467   2.878   3.410  0.6736 -0.2619  1.3838
 3805TIP3    H232831   1.478   2.770   3.305 -0.2585  0.4614  0.5312
 3806TIP3   OH232832   1.661   5.903   2.396 -0.0581 -0.7963 -0.3050
 3806TIP3    H132833   1.575   5.937   2.373 -0.0289  0.3662  1.1302
 3806TIP3    H232834   1.651   5.808   2.398 -1.2918 -0.6711 -0.2004
 3807TIP3   OH232835   1.460   3.669   2.460 -0.4553 -0.7492  0.5152
 3807TIP3    H132836   1.398   3.614   2.508 -2.3714  1.6536  0.9587
 3807TIP3    H232837   1.488   3.735   2.523  1.4510 -0.9033 -0.1245
 3808TIP3   OH232838   5.606   5.171   4.368  0.4610  0.3153 -0.1437
 3808TIP3    H132839   5.536   5.126   4.320  0.4052  0.7342 -0.4691
 3808TIP3    H232840   5.594   5.145   4.459  1.2071 -1.3187 -0.4870
 3809TIP3   OH232841   1.634   5.792   6.034  0.3985  0.1037  0.1645
 3809TIP3    H132842   1.568   5.860   6.046 -1.3235 -1.5687  0.6745
 3809TIP3    H232843   1.655   5.762   6.122  1.0919 -0.0752 -0.0532
 3810TIP3   OH232844   0.247   6.589   3.375  0.0727  0.3877 -0.4728
 3810TIP3    H132845   0.340   6.572   3.387 -0.0166  0.5283  0.4414
 3810TIP3    H232846   0.209   6.503   3.354  0.3686  0.2953 -0.6256
 3811TIP3   OH232847   1.543   2.739   0.064  0.0317  0.2135  0.0482
 3811TIP3    H132848   1.548   2.732  -0.031 -0.3397  0.0549  0.0390
 3811TIP3    H232849   1.449   2.750   0.082 -0.1239 -1.6414  0.5233
 3812TIP3   OH232850   6.403   1.417   0.385  0.5042  0.1254 -0.3277
 3812TIP3    H132851   6.319   1.402   0.344  0.7236  1.8890 -1.5563
 3812TIP3    H232852   6.400   1.509   0.412  2.4385  0.5979 -1.5078
 3813TIP3   OH232853   3.528   2.494  11.049 -0.1401 -0.2665  0.0726
 3813TIP3    H132854   3.539   2.589  11.038 -1.2679  0.0833  1.6307
 3813TIP3    H232855   3.499   2.484  11.139 -0.2559 -2.0973 -0.1395
 3814TIP3   OH232856   0.907   1.126   5.518  0.2459  0.2273 -0.3480
 3814TIP3    H132857   0.867   1.130   5.431  2.4842  1.2294 -1.4153
 3814TIP3    H232858   0.960   1.046   5.516 -1.3660 -0.9468  0.9483
 3815TIP3   OH232859   1.897   2.147   1.012 -0.4209 -0.2395  0.0975
 3815TIP3    H132860   1.969   2.157   0.949 -1.9848  0.7490 -1.6194
 3815TIP3    H232861   1.919   2.209   1.082 -0.7885  2.0000 -1.6294
 3816TIP3   OH232862   2.745   3.420   1.836 -0.0931  0.3370  0.3610
 3816TIP3    H132863   2.702   3.417   1.922  1.3031 -1.1084  1.0714
 3816TIP3    H232864   2.824   3.367   1.848  0.3001  0.3888 -1.7388
 3817TIP3   OH232865   1.666   2.904   2.227 -0.3357  0.2437 -0.4062
 3817TIP3    H132866   1.615   2.961   2.170  0.8653  0.4345 -1.3327
 3817TIP3    H232867   1.671   2.821   2.179 -0.9294 -0.2128  0.3084
 3818TIP3   OH232868   6.476   3.953   1.422  0.8019  0.6339 -0.0771
 3818TIP3    H132869   6.487   4.014   1.349 -0.4472 -0.3789 -1.1694
 3818TIP3    H232870   6.472   4.008   1.499  1.2627  1.8121 -0.8646
 3819TIP3   OH232871   4.294   0.714   3.530 -0.3466 -0.4553  0.1200
 3819TIP3    H132872   4.381   0.701   3.492 -0.1370 -1.9028  0.9919
 3819TIP3    H232873   4.278   0.808   3.522  1.2273 -0.1803 -0.2028
 3820TIP3   OH232874   4.523   0.347   0.665  0.2486  0.5045 -0.2926
 3820TIP3    H132875   4.608   0.343   0.620  0.9114  0.4957  0.9290
 3820TIP3    H232876   4.473   0.274   0.628  1.6745 -1.0803  0.7319
 3821TIP3   OH232877   1.559   0.686  13.110 -0.0974  0.2413 -0.2837
 3821TIP3    H132878   1.625   0.702  13.043 -0.0891  1.2245 -0.0647
 3821TIP3    H232879   1.544   0.773  13.149  0.0534 -0.3415  1.1204
 3822TIP3   OH232880   2.718   6.445   5.413  0.3653 -0.4838 -0.2040
 3822TIP3    H132881   2.703   6.500   5.489 -0.2737 -0.0602 -0.6306
 3822TIP3    H232882   2.710   6.504   5.338  1.2327 -0.8393 -0.5978
 3823TIP3   OH232883   5.787   5.740  16.636 -0.9051 -0.0748 -0.1341
 3823TIP3    H132884   5.863   5.754  16.580  0.0579  1.7652  1.5547
 3823TIP3    H232885   5.798   5.651  16.669  0.6020  0.2016  0.1839
 3824TIP3   OH232886   0.464   1.241  11.954  0.1492 -0.4371 -0.2227
 3824TIP3    H132887   0.529   1.179  11.921 -0.1869 -0.6556 -0.4836
 3824TIP3    H232888   0.422   1.195  12.027  1.3014  0.2718  0.9355
 3825TIP3   OH232889   3.392   2.135  11.963 -0.3079 -0.3288 -0.1794
 3825TIP3    H132890   3.336   2.078  12.016  2.8649  0.0281  4.0651
 3825TIP3    H232891   3.345   2.218  11.960 -0.3908 -0.1575  2.8623
 3826TIP3   OH232892   1.187   4.530   1.805  0.1751  0.2920 -0.2730
 3826TIP3    H132893   1.135   4.480   1.742  0.1109 -1.0321  0.7878
 3826TIP3    H232894   1.128   4.598   1.837 -0.2524  0.0540 -0.5443
 3827TIP3   OH232895   1.869   5.505   4.109  0.6169  0.3620 -0.1442
 3827TIP3    H132896   1.832   5.494   4.021 -1.1517 -0.7619  0.6789
 3827TIP3    H232897   1.924   5.428   4.122  0.7569  0.4516 -0.2014
 3828TIP3   OH232898   1.277   4.937   4.242 -0.2091 -0.5864 -0.5188
 3828TIP3    H132899   1.188   4.970   4.240 -0.3952 -1.1198 -1.5901
 3828TIP3    H232900   1.326   4.996   4.184  0.7030  1.1858  1.8972
 3829TIP3   OH232901   4.699   0.377  15.214  0.3121 -0.1802 -0.3644
 3829TIP3    H132902   4.689   0.469  15.239  1.3614 -0.8026  2.9025
 3829TIP3    H232903   4.644   0.367  15.136 -2.9451  2.3320  1.3517
 3830TIP3   OH232904   5.852   4.874   1.566  0.7225  0.2540 -0.6027
 3830TIP3    H132905   5.884   4.893   1.654 -0.9501 -0.6686  0.2555
 3830TIP3    H232906   5.766   4.835   1.580 -1.6841  4.1309 -2.7708
 3831TIP3   OH232907   0.712   3.907  12.759  0.0400 -0.7525 -0.3269
 3831TIP3    H132908   0.794   3.893  12.806 -0.6614 -1.1122  0.8440
 3831TIP3    H232909   0.701   4.002  12.758  0.3574 -0.7148 -0.2966
 3832TIP3   OH232910   4.211   0.454  14.318  0.4309 -0.3002  0.0738
 3832TIP3    H132911   4.172   0.401  14.388  0.5318  0.4160  0.6907
 3832TIP3    H232912   4.150   0.528  14.308  0.3225 -0.4880 -0.7326
 3833TIP3   OH232913   0.615   3.452   3.800  0.4294 -0.2328  0.2412
 3833TIP3    H132914   0.685   3.399   3.838 -1.1094 -0.9443  2.2273
 3833TIP3    H232915   0.538   3.396   3.803 -1.9613  2.7078  4.8989
 3834TIP3   OH232916   3.678   5.144   1.335  0.1296 -0.1980  0.0591
 3834TIP3    H132917   3.642   5.089   1.265 -0.2570  0.7831 -0.5359
 3834TIP3    H232918   3.605   5.199   1.362  0.8191  0.8825 -0.2228
 3835TIP3   OH232919   4.506   4.115   2.177  0.9787  0.0445 -0.1984
 3835TIP3    H132920   4.500   4.021   2.195  0.6511  0.1845  0.4123
 3835TIP3    H232921   4.551   4.151   2.253 -1.0231  0.7356  0.7217
 3836TIP3   OH232922   4.332   2.429  13.002  0.0203 -0.4870 -0.1155
 3836TIP3    H132923   4.348   2.341  12.967  1.1244  0.1715 -1.3135
 3836TIP3    H232924   4.353   2.422  13.095  1.6052 -1.1201 -0.5013
 3837TIP3   OH232925   0.925   5.280   3.195 -0.5998  0.1886 -0.9523
 3837TIP3    H132926   0.837   5.257   3.225 -1.0072  2.4454 -0.2452
 3837TIP3    H232927   0.911   5.324   3.111 -0.1736  0.8400 -0.6863
 3838TIP3   OH232928   4.442   2.950   1.347  0.1660  0.3126 -0.1887
 3838TIP3    H132929   4.362   2.938   1.294  0.6058 -0.2169 -0.7584
 3838TIP3    H232930   4.415   2.928   1.436 -0.7030  1.6508 -0.0943
 3839TIP3   OH232931   3.396   4.231  16.549  0.6064 -0.3197  0.0803
 3839TIP3    H132932   3.473   4.286  16.562 -0.2597  1.3317 -1.3339
 3839TIP3    H232933   3.424   4.168  16.482  1.0852 -0.5282  0.4647
 3840TIP3   OH232934   1.670   3.540  12.918 -0.2387  0.2990 -0.0389
 3840TIP3    H132935   1.610   3.498  12.980 -2.1679  0.2881 -1.8301
 3840TIP3    H232936   1.620   3.549  12.838  2.2082  0.2062 -1.6908
 3841TIP3   OH232937   4.816   0.087   2.199 -0.0381 -0.2352 -0.4731
 3841TIP3    H132938   4.805   0.088   2.294 -2.5520 -1.0436 -0.6788
 3841TIP3    H232939   4.894   0.139   2.183 -0.9853  2.1223  1.8778
 3842TIP3   OH232940   3.914   2.347  16.424  0.0715  0.8631  0.2527
 3842TIP3    H132941   3.946   2.437  16.417  1.4882  0.2630 -2.3523
 3842TIP3    H232942   3.973   2.297  16.368 -2.3150 -1.2415 -0.5532
 3843TIP3   OH232943   1.579   3.398  16.972  0.2207 -0.1412  0.0702
 3843TIP3    H132944   1.578   3.325  17.034  1.7084 -0.9401 -0.8045
 3843TIP3    H232945   1.584   3.476  17.028 -0.5742 -0.7171  0.9911
 3844TIP3   OH232946   1.548   4.118   3.055 -0.3180 -0.1979  0.2135
 3844TIP3    H132947   1.472   4.062   3.038 -0.2130 -0.3015  0.0889
 3844TIP3    H232948   1.588   4.080   3.133 -0.5793  0.0504  0.4723
 3845TIP3   OH232949   6.499   5.175   6.588  0.1841  0.0164  0.1052
 3845TIP3    H132950   6.434   5.106   6.602  0.5783 -1.4239 -3.9792
 3845TIP3    H232951   6.447   5.255   6.582 -0.6630 -0.3974  1.3199
 3846TIP3   OH232952   2.272   6.203  16.022 -0.0332 -0.4409 -0.6901
 3846TIP3    H132953   2.242   6.246  16.102 -1.7098 -0.4453 -1.2838
 3846TIP3    H232954   2.337   6.263  15.985  2.2995 -1.3337  1.6327
 3847TIP3   OH232955   5.122   2.905  14.618 -0.4283 -0.5180  0.1202
 3847TIP3    H132956   5.054   2.973  14.620 -0.6527 -0.7433  1.6350
 3847TIP3    H232957   5.193   2.944  14.567  0.3715  1.8618  2.7491
 3848TIP3   OH232958   6.495   0.014  10.910 -0.1426 -0.3987 -0.6828
 3848TIP3    H132959   6.545  -0.052  10.862  0.9367  0.5554 -0.9091
 3848TIP3    H232960   6.404  -0.006  10.888  0.2642 -0.4990 -2.5028
 3849TIP3   OH232961   3.320   0.361   1.079 -0.2315 -0.2800  0.0159
 3849TIP3    H132962   3.407   0.366   1.038  0.6293 -0.6508  1.6984
 3849TIP3    H232963   3.276   0.290   1.032  0.4870 -0.3107 -0.6460
 3850TIP3   OH232964   4.245   1.932   0.896 -0.7729 -0.2149 -0.0609
 3850TIP3    H132965   4.328   1.977   0.908 -0.0210 -0.9571 -2.0338
 3850TIP3    H232966   4.178   1.999   0.915  0.2679  0.7881  0.1686
 3851TIP3   OH232967   3.885   6.689  15.249 -1.0051  0.6000 -0.2584
 3851TIP3    H132968   3.796   6.719  15.234 -0.7215  0.3151 -2.8789
 3851TIP3    H232969   3.886   6.663  15.341 -3.3858  1.3065  0.0345
 3852TIP3   OH232970   5.036   5.201   3.158  0.7737  0.0337  0.8857
 3852TIP3    H132971   4.948   5.232   3.180  0.5177  0.9584 -1.1687
 3852TIP3    H232972   5.092   5.277   3.173  0.7612  0.3249 -0.4022
 3853TIP3   OH232973   3.124   3.400  16.388  0.1751  0.2397  0.0151
 3853TIP3    H132974   3.185   3.467  16.421  1.5661 -1.0886  0.2534
 3853TIP3    H232975   3.146   3.392  16.295 -0.1724  0.2957 -0.0726
 3854TIP3   OH232976   4.095   3.477  15.279 -0.2099 -0.1959  0.2778
 3854TIP3    H132977   4.101   3.384  15.300  0.6937 -0.2559 -0.1970
 3854TIP3    H232978   4.159   3.490  15.209 -0.6474  0.6967  0.0334
 3855TIP3   OH232979   0.016   5.950   3.825  0.1493 -0.1585 -0.2610
 3855TIP3    H132980   0.057   5.986   3.904  1.5802  0.2396 -1.1516
 3855TIP3    H232981   0.017   5.855   3.839 -0.9195 -0.0242  0.8083
 3856TIP3   OH232982   4.560   4.279  15.677 -0.4065  0.6158 -0.1720
 3856TIP3    H132983   4.544   4.195  15.635  1.5980 -0.3917  0.9204
 3856TIP3    H232984   4.505   4.276  15.756  1.3376 -0.7606  1.0881
 3857TIP3   OH232985   1.962   4.649  15.587 -0.8633  0.3010 -0.2256
 3857TIP3    H132986   2.018   4.573  15.603 -1.4318 -0.0398  0.2279
 3857TIP3    H232987   1.983   4.710  15.658 -0.3873  0.5861 -0.6052
 3858TIP3   OH232988   1.587   4.450  11.111  0.2438 -0.5015 -0.0446
 3858TIP3    H132989   1.618   4.507  11.040  1.2251 -1.6817 -0.5955
 3858TIP3    H232990   1.626   4.365  11.093 -0.7667 -1.2412  1.0554
 3859TIP3   OH232991   0.646   2.487  12.644 -0.0362  0.2043 -0.1498
 3859TIP3    H132992   0.589   2.521  12.575  1.1766  1.5369 -0.5353
 3859TIP3    H232993   0.650   2.392  12.628  0.8354  0.5627 -2.4185
 3860TIP3   OH232994   0.334   5.705  11.018 -0.1050  0.6109  0.1185
 3860TIP3    H132995   0.241   5.715  10.997  0.4670  2.1297 -2.0648
 3860TIP3    H232996   0.366   5.795  11.030  1.0877  0.1210  0.8653
 3861TIP3   OH232997   4.777   1.207   5.773  0.0717 -0.3218  0.2887
 3861TIP3    H132998   4.783   1.302   5.778 -0.2764 -0.2265 -0.8779
 3861TIP3    H232999   4.744   1.189   5.685 -0.6256 -1.4948  0.7586
 3862TIP3   OH233000   1.819   5.502   5.445 -0.3222  0.0626  0.0761
 3862TIP3    H133001   1.745   5.541   5.492 -0.0546  0.7563 -0.0594
 3862TIP3    H233002   1.779   5.443   5.382 -0.6708 -1.4253  1.6187
 3863TIP3   OH233003   2.050   3.965   2.763 -0.1451  0.1044  0.3856
 3863TIP3    H133004   1.989   4.039   2.766  1.2138  1.3474 -1.1131
 3863TIP3    H233005   2.106   3.978   2.840  0.3438  0.8918 -0.0898
 3864TIP3   OH233006   2.838   2.630  11.719  0.1432 -0.1990 -0.0847
 3864TIP3    H133007   2.906   2.601  11.658 -0.0728 -1.5719  0.2892
 3864TIP3    H233008   2.762   2.647  11.665 -0.2623 -2.0763 -0.1883
 3865TIP3   OH233009   1.004   5.306   3.828  0.2796  0.1145 -0.1315
 3865TIP3    H133010   1.030   5.320   3.737  1.2976  4.1400  0.5891
 3865TIP3    H233011   1.080   5.265   3.869  1.1647  1.4050 -0.4350
 3866TIP3   OH233012   3.999   1.017   0.855  0.0293  0.2612  0.4176
 3866TIP3    H133013   3.994   1.000   0.949  0.3022  1.0813  0.5976
 3866TIP3    H233014   3.939   1.090   0.840 -1.2484 -0.9114 -0.3424
 3867TIP3   OH233015   2.959   1.588   3.579  0.6346 -0.2300 -0.6916
 3867TIP3    H133016   3.033   1.586   3.518  0.8899  2.2543 -0.5301
 3867TIP3    H233017   2.915   1.670   3.560 -0.4587 -0.3636  1.1389
 3868TIP3   OH233018   4.322   1.628   3.701 -0.2178  0.3701 -0.3006
 3868TIP3    H133019   4.388   1.565   3.729  1.8269  2.0253 -1.1296
 3868TIP3    H233020   4.372   1.702   3.668 -2.5092  2.2096  0.0814
 3869TIP3   OH233021   0.693   1.495   0.742  0.1749  0.3081 -0.7242
 3869TIP3    H133022   0.612   1.511   0.789  0.6707 -0.2880  0.3824
 3869TIP3    H233023   0.751   1.566   0.768  0.5764 -0.2292 -0.0972
 3870TIP3   OH233024   3.987   5.110  15.670 -0.5495  0.3281  0.3639
 3870TIP3    H133025   3.939   5.113  15.586 -0.1035  0.3471  0.1091
 3870TIP3    H233026   3.989   5.017  15.693  2.7522 -0.2615 -1.6508
 3871TIP3   OH233027   2.782   0.175  10.899  0.1409  0.1811  0.0327
 3871TIP3    H133028   2.759   0.106  10.961  0.1113  0.4348  0.3051
 3871TIP3    H233029   2.862   0.214  10.935  0.1422  0.3083 -0.1052
 3872TIP3   OH233030   2.670   4.217   2.716  0.5770 -0.4098  0.3796
 3872TIP3    H133031   2.687   4.244   2.806 -1.9924  0.3315  0.7122
 3872TIP3    H233032   2.718   4.280   2.662 -1.2206  1.8451  1.2370
 3873TIP3   OH233033   3.188   5.708  16.308 -0.2508 -0.2676 -0.0596
 3873TIP3    H133034   3.210   5.723  16.399 -0.3868 -0.6001  0.0306
 3873TIP3    H233035   3.268   5.727  16.260 -0.0227 -0.6212  0.1819
 3874TIP3   OH233036   6.015   3.358   6.594  0.2657 -0.0656 -0.1990
 3874TIP3    H133037   6.090   3.354   6.653  0.2990 -0.5649 -0.2738
 3874TIP3    H233038   6.043   3.416   6.524  0.7810 -0.6612 -0.4992
 3875TIP3   OH233039   4.313   2.742   6.256 -0.1239 -0.0110  0.5239
 3875TIP3    H133040   4.249   2.691   6.307 -1.5823  2.1133  0.9440
 3875TIP3    H233041   4.282   2.832   6.262  0.7880  0.6121 -2.5121
 3876TIP3   OH233042   2.608   6.694  13.424 -0.2285 -0.5108 -0.0092
 3876TIP3    H133043   2.556   6.637  13.480 -0.5775  0.1953  0.4009
 3876TIP3    H233044   2.571   6.683  13.337 -1.6804  0.6610  0.4303
 3877TIP3   OH233045   1.423   2.575  13.429 -0.8100 -0.2926  0.2120
 3877TIP3    H133046   1.333   2.545  13.441 -0.7119 -1.0260 -0.7559
 3877TIP3    H233047   1.418   2.637  13.356 -0.8659  1.4315  1.6205
 3878TIP3   OH233048   0.425   5.835   5.051  0.6116 -0.4412  0.1682
 3878TIP3    H133049   0.515   5.808   5.068 -0.0156 -1.5856  1.9379
 3878TIP3    H233050   0.381   5.827   5.135 -0.8019  1.6484 -0.2892
 3879TIP3   OH233051   6.558   5.910  17.005  0.1933  0.3866  0.0735
 3879TIP3    H133052   6.522   5.915  16.917 -1.8246  2.8800  0.9115
 3879TIP3    H233053   6.653   5.902  16.992 -0.1314 -0.2907 -2.2672
 3880TIP3   OH233054   6.710   6.610   0.635 -0.5094 -0.3741  0.3449
 3880TIP3    H133055   6.757   6.541   0.589  0.5526  0.9241 -0.5989
 3880TIP3    H233056   6.702   6.578   0.725  2.3658 -0.6123  0.6174
 3881TIP3   OH233057   1.637   6.404  15.452 -0.2988 -0.1619 -0.5361
 3881TIP3    H133058   1.615   6.449  15.371 -0.8059 -0.6710 -0.6925
 3881TIP3    H233059   1.718   6.357  15.433 -0.1319  0.1437 -0.5799
 3882TIP3   OH233060   3.307   2.257   2.067  0.1060  0.3205  0.0575
 3882TIP3    H133061   3.346   2.214   1.991  1.0339  0.1183  0.6328
 3882TIP3    H233062   3.232   2.202   2.089 -0.8818  1.0080 -1.3856
 3883TIP3   OH233063   2.785   6.447   3.909 -0.0663 -0.0268 -0.1868
 3883TIP3    H133064   2.856   6.385   3.896  0.2960  0.6972 -2.0596
 3883TIP3    H233065   2.826   6.534   3.904 -1.0882  0.4235 -1.9805
 3884TIP3   OH233066   4.268   1.678   5.044  0.2138  0.3184 -0.2341
 3884TIP3    H133067   4.318   1.745   4.998  0.0334  0.2008 -0.6074
 3884TIP3    H233068   4.290   1.691   5.136  0.4350  0.6769 -0.3334
 3885TIP3   OH233069   6.710   1.127  15.749  0.8831  0.1645 -0.3677
 3885TIP3    H133070   6.701   1.221  15.735  0.2644 -0.1393 -2.2585
 3885TIP3    H233071   6.628   1.090  15.719  0.7315 -0.9355  1.2534
 3886TIP3   OH233072   1.157   0.443  14.640 -0.4145  0.2637  0.7773
 3886TIP3    H133073   1.109   0.372  14.685  0.9605 -0.6699  0.8269
 3886TIP3    H233074   1.232   0.399  14.599  0.1362  1.6120  0.2921
 3887TIP3   OH233075   0.013   1.271  15.993 -0.1911 -0.1636 -0.1400
 3887TIP3    H133076   0.002   1.238  15.903 -1.6484  0.1389 -0.0931
 3887TIP3    H233077  -0.046   1.346  15.999 -1.2776 -1.0866  1.5205
 3888TIP3   OH233078   6.277   0.970  15.387 -0.2309  0.0809 -0.1959
 3888TIP3    H133079   6.271   1.025  15.465 -0.4899  0.6552 -0.6219
 3888TIP3    H233080   6.277   1.031  15.313 -0.7991 -0.4958 -0.6836
 3889TIP3   OH233081   0.004   6.037  13.840  0.0029 -0.5579 -0.5882
 3889TIP3    H133082   0.025   5.952  13.878  0.8841  0.0432  0.3157
 3889TIP3    H233083  -0.020   6.092  13.915 -1.4823 -0.2540 -1.2540
 3890TIP3   OH233084   1.631   3.025   5.659  0.3789 -0.3560  0.2321
 3890TIP3    H133085   1.614   3.035   5.753  0.9406  0.5679  0.2528
 3890TIP3    H233086   1.577   3.093   5.618  1.6524  0.6011  0.0690
 3891TIP3   OH233087   4.881   0.694  11.874 -0.0519 -0.5479  0.7739
 3891TIP3    H133088   4.868   0.786  11.852  1.6205  0.2843  2.8245
 3891TIP3    H233089   4.822   0.678  11.948  0.5858 -0.7192  1.2613
 3892TIP3   OH233090   0.185   1.953   3.352  0.1161 -0.0427  0.3846
 3892TIP3    H133091   0.276   1.981   3.347  0.3523 -0.3103  2.3350
 3892TIP3    H233092   0.161   1.963   3.445 -2.1306  0.8701 -0.2164
 3893TIP3   OH233093   1.463   1.812  16.177 -0.0828  0.2780  0.2599
 3893TIP3    H133094   1.424   1.727  16.158 -0.4216  0.6758 -0.8773
 3893TIP3    H233095   1.391   1.874  16.172 -0.1203  0.4989  2.4783
 3894TIP3   OH233096   3.316   6.393   6.133 -0.8573  0.2513 -0.1476
 3894TIP3    H133097   3.326   6.415   6.040  0.8548  0.3915  0.0302
 3894TIP3    H233098   3.346   6.303   6.140  0.4853  0.7136  0.4714
 3895TIP3   OH233099   5.176   4.757   4.949  0.1286 -0.2177  0.1502
 3895TIP3    H133100   5.133   4.818   4.889  2.5730  2.2192  0.6840
 3895TIP3    H233101   5.122   4.758   5.028 -0.3923  0.5366 -0.2079
 3896TIP3   OH233102   6.170   3.832   0.861  0.0570 -0.4009 -1.0645
 3896TIP3    H133103   6.255   3.873   0.880 -0.8486  1.6242 -1.1309
 3896TIP3    H233104   6.189   3.767   0.793  2.1942 -2.8551  1.6087
 3897TIP3   OH233105   1.361   2.784  12.772  0.5446 -0.2088  0.2478
 3897TIP3    H133106   1.409   2.865  12.788  0.9256 -0.1777 -0.9401
 3897TIP3    H233107   1.387   2.757  12.684 -0.2608 -1.1466  0.2688
 3898TIP3   OH233108   3.683   2.904  11.933 -0.6377  0.1747 -0.2460
 3898TIP3    H133109   3.590   2.883  11.942 -0.4803 -0.0976  0.8920
 3898TIP3    H233110   3.684   2.997  11.909 -1.2269 -0.0791 -1.2906
 3899TIP3   OH233111   3.255   6.702  14.743  0.1807  0.3169  0.4576
 3899TIP3    H133112   3.172   6.751  14.737 -0.1948 -0.4763 -2.0192
 3899TIP3    H233113   3.231   6.621  14.789  0.0566  0.9136  1.4904
 3900TIP3   OH233114   3.458   6.391  13.251  0.4723 -0.3680  1.1023
 3900TIP3    H133115   3.495   6.414  13.166 -0.7612  1.0146  0.8807
 3900TIP3    H233116   3.434   6.299  13.244 -2.0885  0.3341 -1.0916
 3901TIP3   OH233117   5.187   5.203   0.649  0.8119 -0.0851  0.1048
 3901TIP3    H133118   5.165   5.278   0.594  0.2833  0.2381  0.7452
 3901TIP3    H233119   5.105   5.154   0.656  1.1043 -0.6182 -0.1408
 3902TIP3   OH233120   4.594   4.235   3.674  0.1332 -0.3954 -1.0791
 3902TIP3    H133121   4.599   4.237   3.578 -0.1221 -0.2208 -1.0910
 3902TIP3    H233122   4.645   4.311   3.702 -0.0961 -0.2352 -1.0921
 3903TIP3   OH233123   0.361   3.133   4.248  0.6008  0.5641  0.4170
 3903TIP3    H133124   0.343   3.079   4.170  0.8738 -1.2707  1.5670
 3903TIP3    H233125   0.297   3.102   4.312 -0.6059  3.0664  0.5360
 3904TIP3   OH233126   4.562   1.085  13.642 -0.0087  0.2031  0.4635
 3904TIP3    H133127   4.608   1.044  13.716 -0.7406 -0.7812  0.3897
 3904TIP3    H233128   4.494   1.022  13.618  0.4445  0.3277 -1.2934
 3905TIP3   OH233129   0.401   2.601  12.797 -0.2643  0.1306 -0.1246
 3905TIP3    H133130   0.333   2.626  12.734  0.2176  0.0106 -0.6900
 3905TIP3    H233131   0.445   2.527  12.758  0.4810  0.4761  0.0472
 3906TIP3   OH233132   5.530   5.074   3.059 -0.3100  0.1472 -0.7377
 3906TIP3    H133133   5.620   5.089   3.089  0.3794 -1.2567 -1.9636
 3906TIP3    H233134   5.476   5.105   3.131  1.1235  1.5611 -0.1910
 3907TIP3   OH233135   4.815   5.574   5.682  0.2706 -0.5109 -0.0482
 3907TIP3    H133136   4.864   5.647   5.644 -2.9759  1.3473 -1.0545
 3907TIP3    H233137   4.824   5.585   5.776  3.4461 -1.5743 -0.1090
 3908TIP3   OH233138   3.758   4.528  16.865 -0.3733 -0.0881 -0.0206
 3908TIP3    H133139   3.847   4.556  16.843 -0.5348  1.9836  1.6358
 3908TIP3    H233140   3.769   4.456  16.926  0.1829 -0.0417 -0.0618
 3909TIP3   OH233141   1.962   0.113  15.764  1.2234  0.0994 -0.0719
 3909TIP3    H133142   1.990   0.035  15.715 -0.3795  0.1848 -1.1946
 3909TIP3    H233143   1.946   0.080  15.853 -0.0389 -1.0396 -0.6743
 3910TIP3   OH233144   0.330   3.176  11.615  0.1880  0.3812  0.6074
 3910TIP3    H133145   0.286   3.182  11.700  0.8626 -1.6609  1.1617
 3910TIP3    H233146   0.262   3.146  11.555  0.1360 -0.0131  0.8546
 3911TIP3   OH233147   0.983   0.933   2.904  0.2717  0.0815 -0.3238
 3911TIP3    H133148   0.957   0.841   2.899  3.5921 -1.0194  0.4626
 3911TIP3    H233149   0.939   0.975   2.829 -1.0484 -2.1706 -0.8887
 3912TIP3   OH233150   0.732   0.037   1.407  0.2100 -0.1094 -0.6313
 3912TIP3    H133151   0.765   0.123   1.433  0.4041 -0.1680 -0.6784
 3912TIP3    H233152   0.637   0.044   1.415  0.0690  0.7269 -2.4928
 3913TIP3   OH233153   3.000   5.640   2.829 -0.5137 -0.2770  0.2556
 3913TIP3    H133154   3.014   5.560   2.778 -1.9480  1.3425 -3.0246
 3913TIP3    H233155   3.065   5.701   2.794 -1.7608  1.0034  0.0882
 3914TIP3   OH233156   3.040   4.119  17.022  0.0029  0.1290  0.1898
 3914TIP3    H133157   3.126   4.130  17.063  1.1246 -2.5658 -1.1583
 3914TIP3    H233158   3.041   4.178  16.947  0.3251  0.7437  0.6730
 3915TIP3   OH233159   0.838   6.256   1.581 -0.5387 -1.0137  0.2293
 3915TIP3    H133160   0.789   6.194   1.635 -1.7772  0.0912  0.4062
 3915TIP3    H233161   0.780   6.276   1.508 -0.3508  0.2992  0.4260
 3916TIP3   OH233162   6.139   4.996   4.696  0.7428  0.0147  0.2108
 3916TIP3    H133163   6.104   5.023   4.781 -1.4956 -1.2215 -0.2579
 3916TIP3    H233164   6.220   5.047   4.687  0.3219  1.2193  2.4419
 3917TIP3   OH233165   4.783   3.784  14.973 -0.7618  0.2592 -0.0891
 3917TIP3    H133166   4.704   3.835  14.955 -0.4493  0.2169 -1.7408
 3917TIP3    H233167   4.758   3.694  14.953 -0.5821  0.1149  0.3454
 3918TIP3   OH233168   6.403   4.092  12.303  0.2912 -0.1442 -0.1835
 3918TIP3    H133169   6.471   4.058  12.245 -1.2302 -2.4375 -0.7307
 3918TIP3    H233170   6.392   4.183  12.275  1.1880 -0.5357 -1.9542
 3919TIP3   OH233171   1.684   0.608  10.522  0.0700  0.3204 -0.1182
 3919TIP3    H133172   1.644   0.544  10.463 -0.7562  1.0357 -0.3664
 3919TIP3    H233173   1.637   0.596  10.605 -0.2549  0.7446 -0.2330
 3920TIP3   OH233174   1.484   6.513  15.240 -0.5713 -0.3693  0.4789
 3920TIP3    H133175   1.520   6.512  15.151 -1.5229 -2.0571  0.0597
 3920TIP3    H233176   1.456   6.603  15.254 -0.4644 -0.0940 -0.9522
 3921TIP3   OH233177   5.895   0.901  15.613  0.5288  0.6396 -0.0847
 3921TIP3    H133178   5.822   0.930  15.667 -0.5449 -0.6468 -0.7655
 3921TIP3    H233179   5.963   0.875  15.675  0.6298  2.2921  0.5544
 3922TIP3   OH233180   5.011   1.759   3.156 -0.7381 -0.5871 -0.3874
 3922TIP3    H133181   4.943   1.823   3.177 -0.7839 -1.6063  3.1405
 3922TIP3    H233182   5.078   1.811   3.111 -1.8851  1.3673  0.0066
 3923TIP3   OH233183   3.186   5.435  16.289  0.0626  0.2202  0.3098
 3923TIP3    H133184   3.268   5.418  16.336  1.3886  1.6980 -1.3280
 3923TIP3    H233185   3.171   5.528  16.300 -1.8185 -0.1305  1.1254
 3924TIP3   OH233186   1.970   0.206   3.378  0.2655  0.4353  0.3836
 3924TIP3    H133187   2.002   0.282   3.427  1.6231  0.9026 -1.1532
 3924TIP3    H233188   2.005   0.218   3.290  2.1820 -2.8892  0.5147
 3925TIP3   OH233189   6.224   4.118   2.050 -0.3153 -0.3056 -0.4642
 3925TIP3    H133190   6.186   4.163   1.974 -1.8942  0.2221  0.5773
 3925TIP3    H233191   6.166   4.043   2.064  1.3214 -1.7529 -1.1550
 3926TIP3   OH233192   1.775   3.671  10.427  0.2677  0.0755  0.3393
 3926TIP3    H133193   1.694   3.658  10.377 -0.0912 -0.7755  1.1246
 3926TIP3    H233194   1.809   3.754  10.394 -0.7789  0.3154 -0.2043
 3927TIP3   OH233195   0.291   6.643  16.985 -0.1513 -0.1495  0.3035
 3927TIP3    H133196   0.248   6.601  17.059 -1.3719 -0.3455 -0.4839
 3927TIP3    H233197   0.375   6.597  16.976 -1.3811 -2.3889 -0.4559
 3928TIP3   OH233198   0.537   0.337   5.505 -0.3398  0.4768 -0.0043
 3928TIP3    H133199   0.565   0.389   5.430  2.5193  0.3477  0.8814
 3928TIP3    H233200   0.570   0.249   5.488 -2.0565 -0.2492  0.1732
 3929TIP3   OH233201   2.596   3.171  17.083 -0.1467 -0.2713  0.0445
 3929TIP3    H133202   2.580   3.250  17.031 -0.7659 -0.9428 -0.8120
 3929TIP3    H233203   2.525   3.169  17.147 -1.1669 -1.0512 -1.0775
 3930TIP3   OH233204   6.207   0.383   2.563  0.1701 -0.1065 -0.0126
 3930TIP3    H133205   6.205   0.473   2.593  0.7758 -0.6969  1.9468
 3930TIP3    H233206   6.300   0.363   2.550 -0.0422  0.0690 -2.3042
 3931TIP3   OH233207   5.967   2.930   5.134  0.1468 -0.3135  0.4503
 3931TIP3    H133208   5.973   2.913   5.040 -1.7105 -1.1538  0.4278
 3931TIP3    H233209   5.897   2.994   5.142 -1.2757 -1.8861  1.3596
 3932TIP3   OH233210   0.389   1.955   3.810  0.0979  0.2132 -0.0092
 3932TIP3    H133211   0.437   2.032   3.839  1.6918 -1.3199  1.7748
 3932TIP3    H233212   0.323   1.941   3.878 -0.8405  0.5638 -0.8435
 3933TIP3   OH233213   5.448   3.189  11.888  0.5228 -0.2065 -0.5191
 3933TIP3    H133214   5.534   3.152  11.868  0.0363 -0.4061 -2.5142
 3933TIP3    H233215   5.404   3.122  11.941  0.8452 -1.0546 -1.2922
 3934TIP3   OH233216   6.154   4.052   1.473 -0.1200 -0.0926 -0.3876
 3934TIP3    H133217   6.187   4.011   1.553  0.1834  1.2949  0.2322
 3934TIP3    H233218   6.060   4.063   1.488 -0.0934  0.0009 -0.2834
 3935TIP3   OH233219   4.645   1.173   3.019 -0.6548 -0.2438  0.0019
 3935TIP3    H133220   4.719   1.231   3.000 -1.3796  0.5346 -0.4752
 3935TIP3    H233221   4.680   1.085   3.003  0.1975  0.1065 -0.1327
 3936TIP3   OH233222   3.655   4.247  13.400  0.0528  0.0102  0.0218
 3936TIP3    H133223   3.615   4.259  13.487 -0.8671 -2.6925  0.0544
 3936TIP3    H233224   3.581   4.229  13.342  0.8710 -0.8240 -0.7938
 3937TIP3   OH233225   3.094   0.376   1.749  0.0039  0.1961  0.0487
 3937TIP3    H133226   3.025   0.362   1.815  0.4882 -0.7406  0.3813
 3937TIP3    H233227   3.157   0.433   1.793 -0.6471  1.2345 -0.3326
 3938TIP3   OH233228   1.755   4.927   1.822 -0.2012 -0.2629  0.5457
 3938TIP3    H133229   1.835   4.909   1.871  0.9917 -0.0756 -1.2301
 3938TIP3    H233230   1.731   4.843   1.783  0.1527  0.0254 -0.3273
 3939TIP3   OH233231   2.866   1.831   5.740  0.0820 -0.0643  0.2692
 3939TIP3    H133232   2.929   1.766   5.708 -0.0964  0.1338 -0.5118
 3939TIP3    H233233   2.781   1.787   5.735 -0.2460  0.7020 -1.7283
 3940TIP3   OH233234   5.691   2.583  16.696  0.1143 -0.2164 -0.3164
 3940TIP3    H133235   5.626   2.523  16.734 -0.2293  0.6676  0.5509
 3940TIP3    H233236   5.681   2.573  16.601 -1.0006 -0.4128 -0.1887
 3941TIP3   OH233237   3.280   6.675  15.168  0.2007 -0.3818 -0.5582
 3941TIP3    H133238   3.226   6.651  15.244 -1.5209  0.4088 -1.4492
 3941TIP3    H233239   3.343   6.738  15.203 -1.7827  1.4429 -0.0542
 3942TIP3   OH233240   6.714   0.248  14.233  0.2424  0.1027 -0.1773
 3942TIP3    H133241   6.678   0.251  14.322 -0.4181 -2.3027 -0.2864
 3942TIP3    H233242   6.809   0.254  14.245  0.0712  1.6508  0.5196
 3943TIP3   OH233243   4.379   4.599   5.352 -0.2667  0.1535  1.1156
 3943TIP3    H133244   4.447   4.601   5.286 -0.8759  1.2605  0.4952
 3943TIP3    H233245   4.372   4.690   5.383 -0.5887 -0.1820  2.0777
 3944TIP3   OH233246   3.296   0.775  16.744  0.3535  0.0998 -0.6534
 3944TIP3    H133247   3.206   0.808  16.743  0.6702  1.5247  2.5903
 3944TIP3    H233248   3.312   0.743  16.655 -4.0482 -2.2858 -0.8627
 3945TIP3   OH233249   0.661   5.166   0.568  0.3375  0.0075  0.4348
 3945TIP3    H133250   0.605   5.099   0.606  0.1643 -0.0269  0.1222
 3945TIP3    H233251   0.733   5.176   0.631  2.1478 -2.8227 -0.9919
 3946TIP3   OH233252   2.414   4.683   4.769  0.2168  0.3981 -0.2681
 3946TIP3    H133253   2.399   4.655   4.679 -0.3650  1.2534 -0.4554
 3946TIP3    H233254   2.428   4.602   4.817 -0.1256 -0.1205 -1.0105
 3947TIP3   OH233255   0.269   6.715  13.836 -0.2850 -0.0713  0.3912
 3947TIP3    H133256   0.328   6.711  13.912 -1.6979 -0.8946  1.4934
 3947TIP3    H233257   0.288   6.800  13.796  1.4462 -0.1824  0.8533
 3948TIP3   OH233258   5.732   0.120   0.811 -0.3352 -0.3070  0.2287
 3948TIP3    H133259   5.785   0.093   0.886 -0.0086 -1.1268 -0.2942
 3948TIP3    H233260   5.771   0.203   0.782 -1.4805  0.9151  1.9789
 3949TIP3   OH233261   3.939   4.834  16.558  0.4473  0.0493 -0.1920
 3949TIP3    H133262   3.954   4.922  16.524  3.4087 -1.0202 -2.0445
 3949TIP3    H233263   3.855   4.808  16.520 -0.2385  1.8734 -0.0056
 3950TIP3   OH233264   3.683   3.701   2.324  0.0737 -0.2084 -1.1365
 3950TIP3    H133265   3.739   3.632   2.360  0.9525  0.7703 -0.5369
 3950TIP3    H233266   3.745   3.763   2.286 -0.2848  2.2573  1.8466
 3951TIP3   OH233267   4.208   2.588  14.957  0.4125 -0.4688 -0.2138
 3951TIP3    H133268   4.167   2.616  15.038 -1.1806 -2.0970 -0.3730
 3951TIP3    H233269   4.283   2.646  14.945 -0.5210  1.1285  1.3346
 3952TIP3   OH233270   6.224   0.834  10.955 -0.2242 -0.0553  0.1710
 3952TIP3    H133271   6.272   0.821  11.037 -0.4252 -0.9075  0.1652
 3952TIP3    H233272   6.160   0.764  10.954  1.2175 -1.4722 -1.7614
 3953TIP3   OH233273   4.478   2.394   0.598 -0.2253 -0.0087 -0.0493
 3953TIP3    H133274   4.456   2.458   0.665  0.6988  0.5892 -0.3104
 3953TIP3    H233275   4.425   2.420   0.522 -1.0957 -0.5491  0.3495
 3954TIP3   OH233276   1.877   1.994   1.243  0.8507  0.0542  0.8737
 3954TIP3    H133277   1.964   2.001   1.283  0.7797 -0.3198  1.1002
 3954TIP3    H233278   1.889   2.022   1.152  1.5936 -1.7042  0.3833
 3955TIP3   OH233279   1.627   5.196  13.794 -0.1719  0.0103  0.4600
 3955TIP3    H133280   1.628   5.196  13.698  1.3113 -2.3409  0.4068
 3955TIP3    H233281   1.681   5.271  13.819  0.8801 -0.3734 -0.5812
 3956TIP3   OH233282   0.297   1.597   3.865 -0.3500  0.3317  0.8834
 3956TIP3    H133283   0.379   1.643   3.847  1.3777 -2.5812  0.5088
 3956TIP3    H233284   0.248   1.601   3.783  0.9429 -0.6281  0.0263
 3957TIP3   OH233285   5.190   1.980   3.095 -0.2965  0.2072 -0.2664
 3957TIP3    H133286   5.159   2.007   3.182  0.0464 -0.7151  0.1603
 3957TIP3    H233287   5.197   2.062   3.046 -0.4874  0.7483  0.5737
 3958TIP3   OH233288   6.606   5.883   0.597 -0.0891 -0.6281  0.0852
 3958TIP3    H133289   6.676   5.905   0.536 -0.9333  0.0046 -0.6817
 3958TIP3    H233290   6.527   5.922   0.559 -0.6501 -0.2244  1.5798
 3959TIP3   OH233291   3.700   3.054   5.422 -0.3777 -0.4312 -0.2333
 3959TIP3    H133292   3.698   3.127   5.484 -0.7377 -0.3731 -0.3138
 3959TIP3    H233293   3.678   3.094   5.338  0.8359 -0.3653 -0.5480
 3960TIP3   OH233294   4.324   1.670   2.277  0.5941  0.3013 -0.2848
 3960TIP3    H133295   4.415   1.648   2.261  0.1096 -1.5771 -0.6233
 3960TIP3    H233296   4.274   1.600   2.236 -0.9465  0.1849  1.6343
 3961TIP3   OH233297   0.252   2.663   4.926 -0.1339 -0.1694 -0.2295
 3961TIP3    H133298   0.340   2.668   4.961 -0.6066 -1.5344  1.2861
 3961TIP3    H233299   0.240   2.571   4.904 -0.5229  0.3315 -2.3054
 3962TIP3   OH233300   2.125   0.753   0.320 -0.0037 -0.4653  0.2081
 3962TIP3    H133301   2.194   0.785   0.261  0.6545 -0.3210  1.0352
 3962TIP3    H233302   2.062   0.709   0.263  0.7885 -0.6158 -0.5613
 3963TIP3   OH233303   2.567   5.384  14.989  0.3437 -0.1790 -0.1166
 3963TIP3    H133304   2.624   5.456  14.960  1.1644 -0.7320  0.1098
 3963TIP3    H233305   2.586   5.374  15.082 -1.0919  0.4940  0.2800
 3964TIP3   OH233306   3.871   4.561   4.924 -0.4608  0.0531  0.0517
 3964TIP3    H133307   3.905   4.578   5.011 -3.1594  0.3322  1.1449
 3964TIP3    H233308   3.831   4.474   4.930  0.4669 -0.5091 -1.3338
 3965TIP3   OH233309   1.074   3.929  11.497  0.4165 -0.4257 -0.1424
 3965TIP3    H133310   1.004   3.976  11.543  0.5079 -0.4351  0.0050
 3965TIP3    H233311   1.155   3.957  11.540  0.6122  0.4685 -1.0522
 3966TIP3   OH233312   3.142   3.954  10.761 -0.1500 -0.2150 -0.2006
 3966TIP3    H133313   3.134   4.028  10.701 -1.8564  0.5768  0.9189
 3966TIP3    H233314   3.192   3.988  10.835  1.0362 -0.8759 -0.6854
 3967TIP3   OH233315   5.052   3.527   2.411 -0.7312  0.1157 -0.0301
 3967TIP3    H133316   5.034   3.486   2.495 -0.8503 -2.3417 -1.1824
 3967TIP3    H233317   4.968   3.566   2.385 -0.3457  2.1752  1.5732
 3968TIP3   OH233318   6.573   5.224  12.980 -0.1849  0.7490 -0.5983
 3968TIP3    H133319   6.653   5.273  12.999  0.5519 -0.6163 -0.0398
 3968TIP3    H233320   6.582   5.143  13.030 -2.2933  0.8971  0.1126
 3969TIP3   OH233321   1.293   3.219  14.616 -0.1477 -0.0855 -0.5173
 3969TIP3    H133322   1.368   3.170  14.581  0.1375 -0.8003  1.0282
 3969TIP3    H233323   1.322   3.311  14.614  0.7763 -0.3505  0.0427
 3970TIP3   OH233324   5.653   1.080  15.050 -0.2699 -0.6811  0.4356
 3970TIP3    H133325   5.610   1.035  15.124 -0.0076 -1.3111  0.2115
 3970TIP3    H233326   5.643   1.173  15.070 -0.4786 -0.8398  1.1115
 3971TIP3   OH233327   2.101   4.371  11.411  0.4540  1.0331 -0.1579
 3971TIP3    H133328   2.072   4.294  11.460  0.9025  0.2025 -1.1754
 3971TIP3    H233329   2.027   4.395  11.356 -0.0545  1.9762  0.8816
 3972TIP3   OH233330   4.359   1.725  12.169  0.3998 -0.4906 -0.5510
 3972TIP3    H133331   4.350   1.661  12.240  1.8963 -3.1028 -2.5143
 3972TIP3    H233332   4.334   1.809  12.208 -0.3065 -2.0234  2.5841
 3973TIP3   OH233333   1.122   4.711  13.349  0.3579  0.5553 -0.0723
 3973TIP3    H133334   1.132   4.795  13.394  2.1032  0.0985  0.4619
 3973TIP3    H233335   1.157   4.726  13.261  0.1591  0.5284 -0.1565
 3974TIP3   OH233336   4.597   1.601   5.460  0.1025 -0.1632 -0.2561
 3974TIP3    H133337   4.506   1.570   5.467 -0.9959  2.9162  0.9809
 3974TIP3    H233338   4.602   1.642   5.374  0.8027 -1.4860 -0.8801
 3975TIP3   OH233339   5.560   0.700   5.274 -0.3331  0.3047  0.8862
 3975TIP3    H133340   5.559   0.637   5.347 -0.5277 -0.4912  0.2072
 3975TIP3    H233341   5.550   0.785   5.317  2.1080  0.1007  2.0124
 3976TIP3   OH233342   6.097   1.574   4.520  0.4615 -0.9200 -0.3527
 3976TIP3    H133343   6.038   1.504   4.491 -1.5319  0.5081  0.0425
 3976TIP3    H233344   6.184   1.540   4.503 -0.4176 -3.5111 -0.1496
 3977TIP3   OH233345   3.455   2.128  16.862 -0.0784  0.2184 -0.3786
 3977TIP3    H133346   3.505   2.119  16.781  0.4226  0.8743 -0.1547
 3977TIP3    H233347   3.383   2.187  16.839  0.9484  1.6773  0.0189
 3978TIP3   OH233348   3.032   0.170  15.336 -0.4511  0.3578 -0.3792
 3978TIP3    H133349   2.951   0.128  15.364 -0.4476 -2.6824 -4.1494
 3978TIP3    H233350   3.096   0.099  15.328  1.2855  1.9465 -1.7175
 3979TIP3   OH233351   4.046   5.442   4.881 -0.1769 -0.9489 -0.5146
 3979TIP3    H133352   4.001   5.519   4.916 -0.7210 -0.1422 -2.8498
 3979TIP3    H233353   3.979   5.375   4.877  0.4286 -1.8327  2.0775
 3980TIP3   OH233354   2.051   6.150   0.576  0.3724 -0.4102 -0.2984
 3980TIP3    H133355   2.048   6.086   0.506 -1.9749 -0.6974 -0.0158
 3980TIP3    H233356   2.087   6.102   0.651 -2.7084 -1.9942  0.3481
 3981TIP3   OH233357   4.392   0.928  14.368  0.2755 -0.3829 -0.2687
 3981TIP3    H133358   4.472   0.965  14.407 -1.1229  0.1727  2.2789
 3981TIP3    H233359   4.386   0.840  14.405 -0.3956 -0.3413 -0.2701
 3982TIP3   OH233360   2.042   4.088  13.363 -0.0857  0.0032  0.2125
 3982TIP3    H133361   2.043   3.997  13.333  2.6283 -0.5979  1.7555
 3982TIP3    H233362   1.953   4.118  13.346 -1.8941 -3.7506  1.9021
 3983TIP3   OH233363   4.668   3.721   4.244 -0.1169 -0.5302 -0.1121
 3983TIP3    H133364   4.657   3.806   4.201 -3.2609  0.6661  2.6450
 3983TIP3    H233365   4.749   3.730   4.294 -1.0690  1.4545  1.1979
 3984TIP3   OH233366   0.763   1.733   4.650  0.2577 -0.4232 -0.0197
 3984TIP3    H133367   0.687   1.790   4.655 -0.0473 -0.9143  1.4307
 3984TIP3    H233368   0.835   1.786   4.684  0.3668 -0.3070 -0.4183
 3985TIP3   OH233369   1.476   6.386   3.431 -0.1417 -0.1022  0.4397
 3985TIP3    H133370   1.452   6.314   3.491 -2.5675 -0.3417 -0.6731
 3985TIP3    H233371   1.485   6.462   3.488 -0.2844 -0.7366  1.3447
 3986TIP3   OH233372   1.334   0.001   4.528  0.0701 -0.5173 -1.0809
 3986TIP3    H133373   1.414   0.042   4.493  0.5720 -1.6083 -1.2351
 3986TIP3    H233374   1.363  -0.084   4.561 -1.1622 -1.2065 -1.7476
 3987TIP3   OH233375   4.556   5.838  11.371  0.4511  0.0233  0.0593
 3987TIP3    H133376   4.525   5.905  11.310  1.2309 -0.1203 -0.5080
 3987TIP3    H233377   4.511   5.858  11.453 -1.0905 -0.1377 -0.7015
 3988TIP3   OH233378   3.699   4.438  13.906 -0.0938 -0.2855  0.4905
 3988TIP3    H133379   3.767   4.381  13.944 -0.9873 -0.9829  1.0796
 3988TIP3    H233380   3.748   4.509  13.864  1.0869 -1.6762 -0.6117
 3989TIP3   OH233381   1.659   6.661  13.927  0.1793  0.4970  0.1491
 3989TIP3    H133382   1.693   6.639  14.013 -1.1130 -1.1845  0.2707
 3989TIP3    H233383   1.637   6.577  13.887 -1.6631  1.3772 -0.8037
 3990TIP3   OH233384   2.131   6.810   0.352 -0.2967  0.4119  0.3796
 3990TIP3    H133385   2.121   6.771   0.264  2.6659 -1.1313  0.5991
 3990TIP3    H233386   2.158   6.900   0.336  0.6007  0.0287 -0.3208
 3991TIP3   OH233387   3.485   3.341   5.403 -0.6062  0.3315 -0.4189
 3991TIP3    H133388   3.425   3.284   5.451 -3.0990  2.5983 -0.5766
 3991TIP3    H233389   3.526   3.395   5.471  1.1135 -1.0071 -0.3401
 3992TIP3   OH233390   5.532   1.365  14.567  0.5162  0.2717  0.1793
 3992TIP3    H133391   5.460   1.349  14.506 -2.4750 -2.3008  3.9299
 3992TIP3    H233392   5.557   1.279  14.598  2.2058  1.4075  2.2060
 3993TIP3   OH233393   0.084   1.957  13.931 -0.0765  0.1470  0.0479
 3993TIP3    H133394   0.075   1.906  13.851  0.1966 -0.6238  0.4975
 3993TIP3    H233395   0.010   1.929  13.985  0.5528 -0.4241  0.6360
 3994TIP3   OH233396   2.504   5.949  12.252  0.1739 -0.2566  0.0964
 3994TIP3    H133397   2.525   6.024  12.309  0.0421  1.8522 -2.4585
 3994TIP3    H233398   2.565   5.881  12.280  1.0334  1.1237  1.8449
 3995TIP3   OH233399   2.975   1.061   1.614  0.1109 -0.3163  0.0050
 3995TIP3    H133400   2.985   0.998   1.543 -0.1587 -0.8521  0.4325
 3995TIP3    H233401   3.046   1.041   1.675  1.2982  1.1389 -0.8145
 3996TIP3   OH233402   2.840   6.750  13.636  0.3860  0.2312  0.0474
 3996TIP3    H133403   2.769   6.797  13.679  0.2146 -0.8667  1.0167
 3996TIP3    H233404   2.810   6.739  13.546 -1.1034 -0.9752  0.6442
 3997TIP3   OH233405   4.941   2.688  14.493  0.0415 -0.6717  0.6139
 3997TIP3    H133406   5.004   2.640  14.440  0.2493 -1.7459  1.8100
 3997TIP3    H233407   4.993   2.753  14.540 -0.1524  0.3298 -0.4941
 3998TIP3   OH233408   6.782   0.946  13.859 -0.1626  0.2390  0.0119
 3998TIP3    H133409   6.754   0.858  13.882 -0.1734 -0.1072 -1.2611
 3998TIP3    H233410   6.791   0.945  13.764 -0.0800  1.5890 -0.0207
 3999TIP3   OH233411   5.597   6.197  15.592  0.3019  0.6763 -0.1028
 3999TIP3    H133412   5.675   6.192  15.537 -0.7660 -1.5869 -1.5476
 3999TIP3    H233413   5.543   6.264  15.550  0.6160  0.8701 -0.2061
 4000TIP3   OH233414   2.421   0.814   2.400  1.1213  0.0456 -0.5370
 4000TIP3    H133415   2.453   0.898   2.434  0.2448 -0.0196  0.5403
 4000TIP3    H233416   2.445   0.750   2.467  0.5806 -0.3269 -0.6852
 4001TIP3   OH233417   4.067   6.254  11.811  0.1723  0.7771  0.3184
 4001TIP3    H133418   4.085   6.186  11.875  0.9033  1.4549  0.8502
 4001TIP3    H233419   3.999   6.308  11.850 -1.4356 -0.4212 -0.6964
 4002TIP3   OH233420   4.003   4.058  16.555 -0.6927 -0.2497 -0.4549
 4002TIP3    H133421   3.928   4.117  16.558 -1.5921 -1.3648  1.9205
 4002TIP3    H233422   3.978   3.990  16.492 -0.9661  0.2349 -0.8730
 4003TIP3   OH233423   2.135   4.668   2.053  0.1830 -0.7986  0.2027
 4003TIP3    H133424   2.230   4.664   2.069  0.2111 -1.0334 -0.0254
 4003TIP3    H233425   2.098   4.604   2.114  0.1297 -0.3979  0.5991
 4004TIP3   OH233426   2.496   4.150  14.028  0.3932 -0.0972  0.2292
 4004TIP3    H133427   2.487   4.215  13.958  0.1540  2.4429  2.4440
 4004TIP3    H233428   2.408   4.143  14.065  0.7102 -0.6684  0.9061
 4005TIP3   OH233429   3.650   6.536  11.566  0.2434  0.1131  0.1319
 4005TIP3    H133430   3.602   6.617  11.545  0.9306  0.2351 -1.0383
 4005TIP3    H233431   3.653   6.534  11.662 -0.8243  0.8533  0.1938
 4006TIP3   OH233432   1.513   3.541   1.958  0.2603 -0.3330  0.0182
 4006TIP3    H133433   1.460   3.595   2.017  0.4080  0.2044 -0.3406
 4006TIP3    H233434   1.472   3.454   1.963 -0.6104  0.0563 -0.1970
 4007TIP3   OH233435   2.518   5.935  13.136  0.0112  0.4038  0.2553
 4007TIP3    H133436   2.598   5.970  13.097 -0.7597 -0.0527 -1.8372
 4007TIP3    H233437   2.453   6.005  13.127 -0.1934  0.2706  0.6694
 4008TIP3   OH233438   2.549   5.600   6.135  0.2576 -0.4991 -0.1643
 4008TIP3    H133439   2.508   5.513   6.141  0.3501 -0.5534 -0.3262
 4008TIP3    H233440   2.501   5.644   6.065 -0.8117  0.1297  0.9361
 4009TIP3   OH233441   6.598   0.051   3.575 -0.0815  0.5180 -0.3802
 4009TIP3    H133442   6.678   0.016   3.535  0.0320 -0.2367  0.5033
 4009TIP3    H233443   6.590   0.139   3.537 -0.6225 -0.5717 -2.9807
 4010TIP3   OH233444   3.665   6.399   3.965 -0.1889 -0.0917  0.0472
 4010TIP3    H133445   3.728   6.330   3.947  0.9742  0.6103  1.2434
 4010TIP3    H233446   3.714   6.480   3.952 -0.5797  0.4651  1.7550
 4011TIP3   OH233447   1.346   1.626   4.862  0.1290  0.5563 -0.7531
 4011TIP3    H133448   1.365   1.647   4.770 -1.4255  2.0734 -0.7617
 4011TIP3    H233449   1.409   1.678   4.912 -1.5841  2.9070 -0.8895
 4012TIP3   OH233450   4.160   2.521  12.324 -0.1181  0.2033 -0.1262
 4012TIP3    H133451   4.167   2.616  12.331  1.6507  0.5305 -3.8534
 4012TIP3    H233452   4.104   2.507  12.247  1.8523 -1.5929 -1.3425
 4013TIP3   OH233453   1.971   0.168  16.051  0.0595  0.8374  0.2270
 4013TIP3    H133454   1.957   0.245  15.997  0.0839  0.8266  0.2056
 4013TIP3    H233455   2.013   0.201  16.131 -0.8895  0.9960  0.6776
 4014TIP3   OH233456   2.804   5.824  16.311 -0.1204 -0.3220 -0.3870
 4014TIP3    H133457   2.842   5.742  16.281  0.6774  0.4589 -1.5685
 4014TIP3    H233458   2.847   5.892  16.259 -0.1199  0.9379  1.1694
 4015TIP3   OH233459   2.953   6.308   2.156 -0.0042 -0.0298  0.4133
 4015TIP3    H133460   2.884   6.244   2.176  0.4972 -0.9857 -0.7982
 4015TIP3    H233461   3.015   6.259   2.102  0.1576  1.6269 -0.9549
 4016TIP3   OH233462   1.896   6.523  14.343 -0.2879  0.1388 -0.3519
 4016TIP3    H133463   1.842   6.602  14.341  1.9884  1.8146  0.3941
 4016TIP3    H233464   1.891   6.493  14.434 -1.6286 -1.0167 -0.7595
 4017TIP3   OH233465   1.286   4.029   3.054  0.1924  0.8909 -0.0763
 4017TIP3    H133466   1.210   4.030   3.113  0.0436 -1.2801 -0.1651
 4017TIP3    H233467   1.249   4.021   2.967  0.4865 -0.7009 -0.0856
 4018TIP3   OH233468   0.914   0.999   3.973  0.5783  0.2193 -0.7744
 4018TIP3    H133469   0.961   1.063   3.918  1.9029 -1.2270 -1.4035
 4018TIP3    H233470   0.973   0.983   4.046 -1.4300  2.5871  1.5605
 4019TIP3   OH233471   2.514   0.631  11.805 -0.0907 -0.1740  0.2763
 4019TIP3    H133472   2.543   0.691  11.737  0.6011 -0.3454  0.4110
 4019TIP3    H233473   2.462   0.565  11.759 -2.1343  1.2989  0.3124
 4020TIP3   OH233474   4.406   2.069  12.160  0.3860 -0.3631  0.0081
 4020TIP3    H133475   4.479   2.119  12.124  1.2391 -0.8466  0.9975
 4020TIP3    H233476   4.346   2.136  12.195 -0.0156  0.0651 -1.4410
 4021TIP3   OH233477   0.836   3.298   2.588  0.9154 -0.3220 -0.1677
 4021TIP3    H133478   0.807   3.372   2.535  2.8018 -1.0722 -2.3964
 4021TIP3    H233479   0.755   3.253   2.612 -0.1253  1.1948 -0.6526
 4022TIP3   OH233480   5.126   2.042  16.924 -0.2506  0.5719  0.2539
 4022TIP3    H133481   5.093   1.952  16.923  0.7118  0.2025  0.1376
 4022TIP3    H233482   5.189   2.043  16.997  1.0800  0.6279 -0.8500
 4023TIP3   OH233483   3.832   6.266   2.095 -0.6506 -0.3197 -0.1179
 4023TIP3    H133484   3.765   6.283   2.029 -1.2824 -0.2884  0.5174
 4023TIP3    H233485   3.853   6.353   2.130  1.2077 -0.0558 -1.6840
 4024TIP3   OH233486   1.283   6.166  12.568 -0.1742  0.0037  0.7381
 4024TIP3    H133487   1.357   6.213  12.530  0.6928  0.1654  2.5259
 4024TIP3    H233488   1.254   6.106  12.499  1.1956  0.4129 -0.2159
 4025TIP3   OH233489   2.672   5.064  17.010  0.1091  0.5096  0.2210
 4025TIP3    H133490   2.654   4.979  16.969 -2.5723  0.6120  1.0118
 4025TIP3    H233491   2.697   5.043  17.100  2.5942  0.4806 -0.3887
 4026TIP3   OH233492   5.759   1.247  13.947  0.5953 -0.0279  0.0107
 4026TIP3    H133493   5.792   1.235  13.858 -0.4132 -0.3104 -0.3414
 4026TIP3    H233494   5.838   1.260  14.000  1.2101  0.1686 -0.9197
 4027TIP3   OH233495   3.009   1.927  12.986 -0.0833  0.2309  0.6541
 4027TIP3    H133496   2.953   2.001  12.964 -0.1026 -0.3313 -1.3403
 4027TIP3    H233497   3.089   1.968  13.020  0.0041  1.2121 -0.6311
 4028TIP3   OH233498   4.330   6.053   4.982  0.3419 -0.0872 -0.0782
 4028TIP3    H133499   4.274   6.126   4.955 -0.0856 -0.1694  0.5626
 4028TIP3    H233500   4.307   5.982   4.922  0.2006  0.0694 -0.2096
 4029TIP3   OH233501   2.087   6.537   2.534 -0.2423  0.6530 -0.1900
 4029TIP3    H133502   2.017   6.475   2.551 -0.9557  1.4938  0.0265
 4029TIP3    H233503   2.152   6.488   2.484 -0.6536 -0.3355  0.2346
 4030TIP3   OH233504   3.078   6.813   2.065 -0.0696  0.2007  0.0302
 4030TIP3    H133505   3.038   6.744   2.118 -0.0197 -0.2861 -0.5577
 4030TIP3    H233506   3.006   6.872   2.045 -0.4753 -0.5690 -0.8585
 4031TIP3   OH233507   4.778   5.788   4.646  0.0550 -0.0661 -0.3155
 4031TIP3    H133508   4.846   5.846   4.613  0.7058 -0.7263 -0.1755
 4031TIP3    H233509   4.721   5.844   4.698  2.0847  0.0814  1.9338
 4032TIP3   OH233510   0.709   1.186  16.205  0.3306 -0.8476 -0.1066
 4032TIP3    H133511   0.780   1.129  16.174 -0.3810 -0.4644 -2.7126
 4032TIP3    H233512   0.748   1.239  16.273  2.6087 -0.6282 -1.4840
 4033TIP3   OH233513   2.286   2.097   5.535  0.2748 -0.0187 -0.3315
 4033TIP3    H133514   2.344   2.074   5.608  2.1776 -0.4747 -1.9165
 4033TIP3    H233515   2.281   2.018   5.481 -0.4201  0.5568 -1.1465
 4034TIP3   OH233516   3.333   6.279  12.976 -0.3260 -0.1999 -0.2863
 4034TIP3    H133517   3.381   6.197  12.982 -1.0089 -0.9714 -3.5016
 4034TIP3    H233518   3.399   6.347  12.987  0.5026 -1.1612  0.9005
 4035TIP3   OH233519   0.650   2.171  10.561 -0.6116  0.2022  0.1779
 4035TIP3    H133520   0.707   2.242  10.591 -0.1028  0.1484 -0.6306
 4035TIP3    H233521   0.671   2.161  10.468 -3.0535  1.1946 -0.5470
 4036TIP3   OH233522   1.892   3.912  10.323 -0.1879  0.5166 -0.0566
 4036TIP3    H133523   1.971   3.935  10.275  0.5030  1.0049  1.2609
 4036TIP3    H233524   1.827   3.976  10.295 -0.1898  0.0242 -1.2565
 4037TIP3   OH233525   2.096   1.132  11.708  0.3796  0.1338 -0.0847
 4037TIP3    H133526   2.105   1.167  11.620 -0.7000 -0.1628 -0.3234
 4037TIP3    H233527   2.093   1.037  11.697  1.7749 -0.0045  0.4287
 4038TIP3   OH233528   6.632   0.023   4.009  0.3050 -0.3785 -0.1535
 4038TIP3    H133529   6.719   0.014   4.049  0.8793 -2.3571 -1.6638
 4038TIP3    H233530   6.647   0.068   3.927 -0.0320 -0.9355 -0.5317
 4039TIP3   OH233531   1.345   4.155   4.024 -0.5147  0.4776  0.1425
 4039TIP3    H133532   1.253   4.145   3.996 -0.8129  2.0354  0.4680
 4039TIP3    H233533   1.358   4.086   4.088 -0.8541 -1.0050 -1.2983
 4040TIP3   OH233534   0.296   0.692  16.528  0.2453  0.0980 -0.5073
 4040TIP3    H133535   0.241   0.747  16.472 -0.8563 -0.9275 -0.4545
 4040TIP3    H233536   0.268   0.603  16.510  1.3851 -0.4063  0.0845
 4041TIP3   OH233537   6.092   1.219   5.653  0.2593  0.0361 -0.0414
 4041TIP3    H133538   6.152   1.231   5.726  0.4624 -0.9328 -0.0237
 4041TIP3    H233539   6.131   1.270   5.581  0.7928 -0.1012  0.1428
 4042TIP3   OH233540   2.979   2.194  14.305 -0.2301  0.2282  0.2297
 4042TIP3    H133541   2.968   2.173  14.213 -0.8228  0.3813  0.2643
 4042TIP3    H233542   3.041   2.128  14.337 -1.0854 -0.6938  0.0446
 4043TIP3   OH233543   6.700   4.857   5.046  0.2520  0.6468 -0.7937
 4043TIP3    H133544   6.791   4.864   5.074  0.1851 -1.7409  0.2466
 4043TIP3    H233545   6.649   4.895   5.117  0.3695  0.4948 -0.6287
 4044TIP3   OH233546   5.994   6.781  13.654  0.5044  0.5827 -0.2623
 4044TIP3    H133547   5.998   6.857  13.595  1.6455 -0.8200 -2.0771
 4044TIP3    H233548   6.081   6.741  13.648  0.2356 -0.3601  1.4142
 4045TIP3   OH233549   1.187   2.743   2.598 -0.0224  0.5899 -0.3762
 4045TIP3    H133550   1.254   2.771   2.536  0.2756 -0.6117 -0.6116
 4045TIP3    H233551   1.152   2.662   2.561 -2.5699  1.8208 -0.9759
 4046TIP3   OH233552   5.550   1.352   0.682  0.8603 -0.7948 -0.5640
 4046TIP3    H133553   5.617   1.381   0.743  1.0543  1.3715 -1.6883
 4046TIP3    H233554   5.538   1.259   0.701  2.1414 -0.5940  1.5462
 4047TIP3   OH233555   6.343   6.516  14.560  0.1330 -0.3108 -0.3614
 4047TIP3    H133556   6.289   6.581  14.516  2.4628  0.8278 -1.6644
 4047TIP3    H233557   6.357   6.448  14.495 -0.6125 -1.1764  0.3474
 4048TIP3   OH233558   2.709   3.267   3.017  0.8606  0.1295  0.0162
 4048TIP3    H133559   2.646   3.313   3.073 -1.3801 -0.2777 -2.0283
 4048TIP3    H233560   2.732   3.331   2.950 -0.7172 -0.9799 -1.6740
 4049TIP3   OH233561   2.767   3.414  12.955 -0.2885 -0.0747  0.1601
 4049TIP3    H133562   2.844   3.469  12.965 -0.8768  0.6736  0.6511
 4049TIP3    H233563   2.749   3.414  12.861  0.3666 -0.3519  0.0271
 4050TIP3   OH233564   0.586   2.912   1.469  0.3439 -0.6589 -0.1869
 4050TIP3    H133565   0.601   2.817   1.467  2.0353 -0.4324 -0.3928
 4050TIP3    H233566   0.670   2.948   1.499 -0.6742  0.7051  1.1125
 4051TIP3   OH233567   2.438   1.654  13.634 -0.4778 -0.1302  0.3633
 4051TIP3    H133568   2.411   1.570  13.670 -3.5648  1.1883  1.4744
 4051TIP3    H233569   2.412   1.718  13.700 -1.0680  1.9442 -1.7206
 4052TIP3   OH233570   3.976   4.612  15.749  0.2776 -0.6026  0.0030
 4052TIP3    H133571   4.038   4.554  15.793 -0.8629 -2.6646 -0.9904
 4052TIP3    H233572   3.890   4.578  15.773 -0.4031 -0.6981 -2.3321
 4053TIP3   OH233573   2.549   0.980   2.948 -0.2886 -0.1071  0.3427
 4053TIP3    H133574   2.494   1.040   2.998 -1.5337 -0.0148 -1.0503
 4053TIP3    H233575   2.536   1.006   2.857  1.1135 -0.8993 -0.1178
 4054TIP3   OH233576   0.592   4.996   5.969 -0.7099 -0.1324  0.2036
 4054TIP3    H133577   0.622   4.906   5.977 -0.7148 -0.2405 -0.8890
 4054TIP3    H233578   0.598   5.031   6.058  1.4938 -0.5202  0.2704
 4055TIP3   OH233579   6.030   4.812  14.113  0.0744 -0.6870  0.0210
 4055TIP3    H133580   6.021   4.727  14.070  0.9577 -0.5090 -0.5385
 4055TIP3    H233581   6.007   4.876  14.046  2.1817 -0.3739 -0.4600
 4056TIP3   OH233582   6.748   5.689  14.387  0.1770 -0.6662 -0.2473
 4056TIP3    H133583   6.786   5.775  14.365  0.0966 -0.5045  0.2431
 4056TIP3    H233584   6.710   5.659  14.304 -1.8398  0.8210  0.0666
 4057TIP3   OH233585   2.561   2.326   3.567  0.6766 -0.3830 -0.4849
 4057TIP3    H133586   2.655   2.308   3.572  0.5209 -2.4694 -2.9086
 4057TIP3    H233587   2.519   2.241   3.579 -0.8700  0.3627 -0.3175
 4058TIP3   OH233588   4.586   0.890  15.037  0.3605  0.6624  0.4511
 4058TIP3    H133589   4.586   0.868  14.944 -1.6977  0.6928  0.3989
 4058TIP3    H233590   4.664   0.945  15.049 -0.0922  1.8467 -1.5473
 4059TIP3   OH233591   1.319   2.498  13.739 -0.0816  0.2457 -0.1556
 4059TIP3    H133592   1.352   2.574  13.690  1.5891 -1.3537 -1.6488
 4059TIP3    H233593   1.226   2.518  13.753  0.3059  2.5850 -0.4078
 4060TIP3   OH233594   2.130   4.655  12.689 -0.0263 -0.4784  0.6910
 4060TIP3    H133595   2.122   4.729  12.630  0.1242 -1.9334 -1.2547
 4060TIP3    H233596   2.187   4.686  12.759  0.5867  1.0183 -0.4261
 4061TIP3   OH233597   3.149   6.779  16.755 -0.0421  0.0319 -0.1322
 4061TIP3    H133598   3.198   6.707  16.795  0.5314  1.4305  1.8356
 4061TIP3    H233599   3.081   6.800  16.819 -1.2224  0.2219 -1.4013
 4062TIP3   OH233600   2.439   3.374  12.406  0.0548 -0.3965 -0.6868
 4062TIP3    H133601   2.518   3.323  12.393  0.8787  0.3707  1.0344
 4062TIP3    H233602   2.454   3.455  12.358  0.5787 -0.0024  0.1346
 4063TIP3   OH233603   5.294   1.030   1.043  1.2276 -0.6182  0.6848
 4063TIP3    H133604   5.368   0.991   0.997  0.7181 -2.8122  1.5729
 4063TIP3    H233605   5.218   0.978   1.015  0.1680  0.8997  0.5919
 4064TIP3   OH233606   0.094   3.218   0.479 -0.7673  0.1064 -0.5845
 4064TIP3    H133607   0.166   3.256   0.428  1.6857 -0.6744  2.0646
 4064TIP3    H233608   0.080   3.280   0.550 -1.1325 -0.8510  0.1999
 4065TIP3   OH233609   5.977   3.509   0.444 -0.6569 -0.0629  0.2014
 4065TIP3    H133610   5.906   3.471   0.495 -1.2048  2.6265  1.6059
 4065TIP3    H233611   6.038   3.437   0.431 -2.3747 -1.8024  1.2392
 4066TIP3   OH233612   0.047   0.776  11.837  0.3731  0.5450  0.4621
 4066TIP3    H133613  -0.021   0.730  11.887  0.0001  0.1287 -0.3942
 4066TIP3    H233614   0.018   0.867  11.835  0.3099  0.5356  0.8647
 4067TIP3   OH233615   1.844   5.559   3.553  0.6399  1.0815  0.7858
 4067TIP3    H133616   1.915   5.605   3.596  1.5951  2.9327 -2.4583
 4067TIP3    H233617   1.775   5.625   3.541  0.0974  0.4293  0.1865
 4068TIP3   OH233618   6.652   5.765  12.427 -0.8624  0.1573  0.4978
 4068TIP3    H133619   6.673   5.748  12.336 -2.2109 -1.0536  0.3810
 4068TIP3    H233620   6.588   5.836  12.425 -2.2815 -1.0832  0.3424
 4069TIP3   OH233621   5.507   4.958  13.746  0.2946 -0.1476  0.1101
 4069TIP3    H133622   5.532   5.018  13.676 -0.3957 -1.5145 -1.3736
 4069TIP3    H233623   5.589   4.920  13.776  0.5801  0.2826 -0.1239
 4070TIP3   OH233624   2.235   0.142  12.433  0.3925 -0.3875  0.1743
 4070TIP3    H133625   2.141   0.156  12.417  0.0823 -0.5249  1.7638
 4070TIP3    H233626   2.269   0.117  12.347 -0.8751  0.4033 -0.6029
 4071TIP3   OH233627   4.487   2.700   1.819  0.3627 -0.3810 -0.0438
 4071TIP3    H133628   4.445   2.623   1.779  1.1428  0.0011 -1.6861
 4071TIP3    H233629   4.430   2.773   1.794  0.4846 -0.2233  0.1463
 4072TIP3   OH233630   5.028   4.407  12.242  0.0176  0.0533  0.2549
 4072TIP3    H133631   5.030   4.351  12.165  0.4982 -0.0682  0.3516
 4072TIP3    H233632   4.977   4.359  12.306 -0.8616  0.3979 -0.1657
 4073TIP3   OH233633   4.505   6.339   0.791 -0.4402  0.0006  0.7558
 4073TIP3    H133634   4.420   6.346   0.748 -1.2274 -0.6830  2.1182
 4073TIP3    H233635   4.532   6.248   0.777 -0.4030 -0.0543  1.1727
 4074TIP3   OH233636   0.193   1.439  13.681 -0.8816 -0.1443 -0.2651
 4074TIP3    H133637   0.209   1.510  13.744  0.0032  0.1969 -0.8447
 4074TIP3    H233638   0.211   1.359  13.730  1.7122  0.1815 -0.5638
 4075TIP3   OH233639   2.111   4.558   1.806 -0.1991  0.7562 -0.0420
 4075TIP3    H133640   2.024   4.517   1.814  0.1522  0.0942  0.4960
 4075TIP3    H233641   2.133   4.583   1.895  0.9706 -0.7913  0.1441
 4076TIP3   OH233642   0.488   1.029   2.902 -0.2044 -0.1690 -0.0879
 4076TIP3    H133643   0.464   0.980   2.823 -0.8712 -0.8319  0.5114
 4076TIP3    H233644   0.494   0.963   2.971  2.1100  0.1633  0.0894
 4077TIP3   OH233645   0.613   4.445   3.407  0.3939  0.4022  0.0239
 4077TIP3    H133646   0.548   4.516   3.410 -1.2328 -0.9908 -0.5171
 4077TIP3    H233647   0.563   4.366   3.430  1.3312 -1.1006 -2.6179
 4078TIP3   OH233648   0.913   1.041  16.124  0.1194 -0.4022 -0.3281
 4078TIP3    H133649   0.927   0.976  16.193  0.0425 -0.6034 -0.5031
 4078TIP3    H233650   0.945   0.999  16.044  1.2582  0.2468 -0.2368
 4079TIP3   OH233651   0.779   0.399  16.700 -0.2350  0.3965 -0.5178
 4079TIP3    H133652   0.837   0.335  16.742 -0.7873  0.1977 -0.0504
 4079TIP3    H233653   0.770   0.367  16.610 -0.5609 -0.2320 -0.2716
 4080TIP3   OH233654   3.210   3.303   0.196  0.0112  0.3664 -0.0564
 4080TIP3    H133655   3.249   3.216   0.196 -0.4234  0.1692  0.4807
 4080TIP3    H233656   3.232   3.339   0.110  1.6087  0.3698  0.3136
 4081TIP3   OH233657   0.373   4.810  15.346 -0.6317  0.8758  0.4972
 4081TIP3    H133658   0.445   4.872  15.343  1.3355 -1.2972  0.1003
 4081TIP3    H233659   0.323   4.835  15.424 -0.1937  3.1648  0.1013
 4082TIP3   OH233660   6.381   5.533   4.024  0.0260 -0.3232  0.2285
 4082TIP3    H133661   6.469   5.507   4.052 -0.5026 -1.3067  1.0514
 4082TIP3    H233662   6.337   5.451   4.004 -1.1319  0.0348  1.1664
 4083TIP3   OH233663   0.650   1.297  15.974 -1.4236 -0.1730 -0.2319
 4083TIP3    H133664   0.641   1.381  16.018  0.2023  0.0771 -0.3136
 4083TIP3    H233665   0.668   1.235  16.045  0.0306  0.0271 -0.4060
 4084TIP3   OH233666   4.427   4.613   4.294  0.3532 -0.0073  0.9418
 4084TIP3    H133667   4.416   4.594   4.201  2.1669 -1.8366  1.0221
 4084TIP3    H233668   4.357   4.674   4.315 -1.3160 -1.0759 -1.1725
 4085TIP3   OH233669   3.420   5.055   1.545  0.6397 -0.2268 -0.1991
 4085TIP3    H133670   3.448   5.140   1.578 -1.2048  0.1646  0.4643
 4085TIP3    H233671   3.388   5.073   1.457 -3.4459  0.6617  1.2479
 4086TIP3   OH233672   4.956   1.620   6.291  0.2573  0.1841 -0.2044
 4086TIP3    H133673   4.930   1.602   6.381  1.0755 -1.5387 -0.2716
 4086TIP3    H233674   4.932   1.712   6.277 -0.8517  0.1890  1.4085
 4087TIP3   OH233675   5.516   3.376  11.513  0.4949  0.6333 -0.2330
 4087TIP3    H133676   5.608   3.385  11.489  0.3431  1.0468 -0.6913
 4087TIP3    H233677   5.508   3.423  11.596  0.7115  0.5313 -0.1545
 4088TIP3   OH233678   3.231   5.633  14.028  0.4550 -0.0929  0.0540
 4088TIP3    H133679   3.300   5.691  13.997  0.3943 -0.6165 -1.1262
 4088TIP3    H233680   3.154   5.689  14.037  0.9991  0.4860  1.3357
 4089TIP3   OH233681   2.443   2.007   2.679  0.2459  0.1458  0.1192
 4089TIP3    H133682   2.359   1.961   2.673  0.1810  0.1401  0.9170
 4089TIP3    H233683   2.420   2.095   2.710  0.4310  0.5117 -0.7689
 4090TIP3   OH233684   2.695   2.394  11.812 -0.4550  0.5543 -0.3233
 4090TIP3    H133685   2.709   2.480  11.773 -0.3571  0.5283 -0.3450
 4090TIP3    H233686   2.609   2.401  11.854 -0.2300  0.8256  0.1047
 4091TIP3   OH233687   3.529   4.523   6.070  0.2899  0.0169 -0.1504
 4091TIP3    H133688   3.602   4.469   6.099  1.0943 -0.2653 -2.4875
 4091TIP3    H233689   3.452   4.467   6.082  0.6382 -0.2626  0.8718
 4092TIP3   OH233690   3.351   1.675  11.997 -0.6113 -0.1066  0.2691
 4092TIP3    H133691   3.371   1.600  11.941  0.2950 -0.4940  1.0813
 4092TIP3    H233692   3.310   1.637  12.075  1.4767 -0.0241  1.5044
 4093TIP3   OH233693   5.782   4.892  15.668  0.9692  0.1912 -0.6769
 4093TIP3    H133694   5.725   4.905  15.744 -0.5230 -0.9351 -1.5549
 4093TIP3    H233695   5.855   4.952  15.683 -1.0931  2.7540 -0.1989
 4094TIP3   OH233696   1.967   0.070  11.668 -0.1795 -0.0029  0.0929
 4094TIP3    H133697   2.036   0.068  11.735 -1.3696 -3.8217  1.4710
 4094TIP3    H233698   2.013   0.050  11.586  0.9564  2.5067  0.0184
 4095TIP3   OH233699   5.637   2.458  17.020  0.6351  0.0926  0.1092
 4095TIP3    H133700   5.542   2.456  17.023  0.5872  1.4999  0.0553
 4095TIP3    H233701   5.663   2.366  17.028 -0.7226 -0.3426 -0.2323
 4096TIP3   OH233702   0.559   4.247   0.014  0.4432  0.4449  0.3858
 4096TIP3    H133703   0.642   4.292  -0.002 -0.4975  1.7647 -1.1080
 4096TIP3    H233704   0.536   4.208  -0.071 -0.2968 -0.1856  0.8602
 4097TIP3   OH233705   2.743   4.930   0.146  0.0917 -0.2228  0.1360
 4097TIP3    H133706   2.766   4.906   0.236  0.5390  1.1746  0.4124
 4097TIP3    H233707   2.648   4.938   0.147  0.1095 -0.0536  0.5249
 4098TIP3   OH233708   0.538   0.202  13.723  0.7074  0.4597  0.2604
 4098TIP3    H133709   0.505   0.276  13.774 -0.5895  1.2946 -1.6775
 4098TIP3    H233710   0.607   0.164  13.778  0.3072  2.1071  2.0128
 4099TIP3   OH233711   1.093   1.755   0.100 -0.2915  0.1542 -0.4626
 4099TIP3    H133712   1.052   1.672   0.076  2.3532 -1.7470  1.1315
 4099TIP3    H233713   1.021   1.807   0.136 -1.5158 -2.7860  1.7230
 4100TIP3   OH233714   0.941   2.232  11.860 -0.4444 -0.1627 -0.0659
 4100TIP3    H133715   0.965   2.293  11.790 -0.0497  0.7235  0.8302
 4100TIP3    H233716   1.003   2.160  11.851  1.4640  1.2502  1.0759
 4101TIP3   OH233717   5.323   5.683   4.947  0.6646 -0.0455  0.1544
 4101TIP3    H133718   5.318   5.758   5.007 -0.1461  0.1796 -0.1739
 4101TIP3    H233719   5.310   5.722   4.860 -0.7325 -0.6759  0.0579
 4102TIP3   OH233720   4.684   3.083  14.515 -0.2494  0.2963 -0.1699
 4102TIP3    H133721   4.774   3.110  14.532 -0.1357  0.1687 -0.5817
 4102TIP3    H233722   4.691   3.011  14.452 -0.5662 -0.5449  0.7313
 4103TIP3   OH233723   5.713   6.800  14.015  0.2084  0.3591  0.0482
 4103TIP3    H133724   5.760   6.773  13.936  0.9709  1.1944  0.1958
 4103TIP3    H233725   5.779   6.847  14.067 -0.3246 -0.0436  1.1104
 4104TIP3   OH233726   0.070   5.868  12.293  0.1478 -0.3182  0.3488
 4104TIP3    H133727   0.145   5.808  12.288  0.5591  0.2110 -0.0806
 4104TIP3    H233728   0.018   5.837  12.367 -0.6212 -2.3011 -0.9594
 4105TIP3   OH233729   3.137   0.136  12.431 -0.0703  0.1378 -0.4835
 4105TIP3    H133730   3.049   0.110  12.404  0.7559 -0.2965 -2.9552
 4105TIP3    H233731   3.134   0.232  12.434 -0.4735  0.1470 -1.0830
 4106TIP3   OH233732   4.303   1.481   6.286  0.4160  0.4610  0.5622
 4106TIP3    H133733   4.298   1.446   6.198  0.1754  0.6276  0.5068
 4106TIP3    H233734   4.332   1.408   6.340  0.9017  0.4535  0.2905
 4107TIP3   OH233735   0.613   0.078   5.413 -0.1858  0.0070  0.3807
 4107TIP3    H133736   0.682   0.073   5.347 -1.0156  0.8308 -0.5717
 4107TIP3    H233737   0.563  -0.004   5.402 -0.6104  0.3510 -0.3656
 4108TIP3   OH233738   0.821   6.733  11.232 -0.1128 -0.6240 -0.5088
 4108TIP3    H133739   0.871   6.814  11.240  0.6773 -1.2198  1.0781
 4108TIP3    H233740   0.738   6.752  11.275 -0.8932  0.0321 -2.2068
 4109TIP3   OH233741   0.264   6.752   3.005 -0.6944  0.7851  0.0333
 4109TIP3    H133742   0.346   6.803   3.007  0.3306 -0.7912  1.6590
 4109TIP3    H233743   0.198   6.814   3.036  0.3311  1.4610  0.9993
 4110TIP3   OH233744   5.633   4.887   1.232  0.8013 -0.9050  1.1877
 4110TIP3    H133745   5.686   4.807   1.236 -0.6083 -1.8438  1.9295
 4110TIP3    H233746   5.549   4.858   1.195  1.3118  0.8793 -1.6382
 4111TIP3   OH233747   3.421   5.520  11.418 -0.2570  0.4045  0.1276
 4111TIP3    H133748   3.377   5.475  11.346 -0.5291  2.3123 -0.9767
 4111TIP3    H233749   3.351   5.541  11.479 -0.0752 -0.9196  0.8337
 4112TIP3   OH233750   3.836   4.398  13.262 -0.6567  0.2664  0.6418
 4112TIP3    H133751   3.808   4.317  13.305 -0.8104 -0.2835 -0.4547
 4112TIP3    H233752   3.784   4.401  13.182  0.1090  0.9086  0.1604
 4113TIP3   OH233753   1.799   0.280  11.428 -0.2420  0.1436  0.0589
 4113TIP3    H133754   1.755   0.321  11.354 -0.4875  1.1223  0.7276
 4113TIP3    H233755   1.729   0.267  11.493  0.2252  0.6777  0.6863
 4114TIP3   OH233756   0.530   5.328   1.820 -0.3799 -0.0119 -0.0425
 4114TIP3    H133757   0.615   5.353   1.783 -0.5159 -0.0066 -0.3595
 4114TIP3    H233758   0.472   5.400   1.797 -0.1257  0.7275  1.5278
 4115TIP3   OH233759   6.435   4.608   1.867  0.7242  0.2452 -0.0537
 4115TIP3    H133760   6.487   4.541   1.911  0.1653 -1.0477 -1.2933
 4115TIP3    H233761   6.463   4.603   1.775  0.0579  1.1352 -0.3158
 4116TIP3   OH233762   1.647   5.152  11.123  0.6324  0.3189 -0.5694
 4116TIP3    H133763   1.577   5.217  11.123 -0.7091 -1.0883 -0.3204
 4116TIP3    H233764   1.654   5.125  11.031 -1.0471 -1.4519 -0.2474
 4117TIP3   OH233765   1.257   4.341   2.869 -0.2352 -0.7131 -0.1819
 4117TIP3    H133766   1.253   4.271   2.804 -2.3752  0.7891 -1.8210
 4117TIP3    H233767   1.351   4.357   2.880  0.2384 -1.6582 -2.2209
 4118TIP3   OH233768   4.527   5.257  16.244 -0.1905  0.2935 -0.2010
 4118TIP3    H133769   4.515   5.342  16.286  0.2029  1.1077 -1.6758
 4118TIP3    H233770   4.520   5.275  16.150 -0.9221 -1.4442 -0.5169
 4119TIP3   OH233771   6.408   6.741  15.000 -0.6171 -0.2595  0.3276
 4119TIP3    H133772   6.404   6.827  14.958  0.4685 -1.3530 -2.2254
 4119TIP3    H233773   6.349   6.748  15.075 -1.7727  2.2104 -0.7145
 4120TIP3   OH233774   5.013   5.302  16.594 -0.0985  0.1579 -0.2292
 4120TIP3    H133775   4.991   5.290  16.501 -0.6455  0.4431 -0.1386
 4120TIP3    H233776   5.017   5.213  16.629 -1.3133  0.0986 -0.2085
 4121TIP3   OH233777   3.839   3.251  16.995  0.0737 -0.2658 -0.2319
 4121TIP3    H133778   3.776   3.181  17.015  0.4173 -0.4369  0.2536
 4121TIP3    H233779   3.917   3.205  16.965 -0.2682 -0.0323 -1.5530
 4122TIP3   OH233780   5.104   6.429   5.356 -0.3002 -0.0268  0.1995
 4122TIP3    H133781   5.124   6.465   5.443 -2.9624  2.6487 -0.1339
 4122TIP3    H233782   5.158   6.480   5.296  0.3505 -0.7653  0.1518
 4123TIP3   OH233783   0.094   4.706  12.296 -0.5991 -0.1351 -0.1377
 4123TIP3    H133784   0.178   4.707  12.341 -1.5871 -2.7522  2.0280
 4123TIP3    H233785   0.063   4.616  12.303 -2.8008  0.3016 -2.4760
 4124TIP3   OH233786   3.224   0.585   4.245  0.2420 -0.1442 -0.5066
 4124TIP3    H133787   3.273   0.504   4.252 -0.0416 -0.3340 -0.7063
 4124TIP3    H233788   3.145   0.570   4.298  0.7003  0.3916  0.3584
 4125TIP3   OH233789   5.291   6.266  14.361  0.0510 -0.6549  0.3256
 4125TIP3    H133790   5.220   6.321  14.328 -0.3805 -0.5230  1.4159
 4125TIP3    H233791   5.266   6.177  14.338 -0.5429 -0.6218  0.7903
 4126TIP3   OH233792   5.306   3.442   2.914 -0.2428  0.1478 -0.4733
 4126TIP3    H133793   5.272   3.383   2.846  0.0693  0.6727 -1.0950
 4126TIP3    H233794   5.328   3.522   2.867 -1.2421  0.9887  0.4669
 4127TIP3   OH233795   3.770   3.274   4.694  0.1081  0.5920 -0.0568
 4127TIP3    H133796   3.716   3.228   4.759  1.1436  0.7591  0.9668
 4127TIP3    H233797   3.712   3.339   4.656 -0.6872  0.0986  0.2746
 4128TIP3   OH233798   2.725   3.911  14.513 -0.2620 -0.3038  0.1363
 4128TIP3    H133799   2.772   3.863  14.581 -0.0966  0.8883  0.9036
 4128TIP3    H233800   2.654   3.956  14.560  0.2277  1.0292 -0.3364
 4129TIP3   OH233801   6.606   0.831  11.610  0.3006 -0.1753 -0.0582
 4129TIP3    H133802   6.606   0.926  11.614 -1.0305 -0.1972  2.6449
 4129TIP3    H233803   6.613   0.811  11.516 -3.4450  2.6898 -1.2015
 4130TIP3   OH233804   6.534   6.768  12.783  0.0609  0.1668  0.3858
 4130TIP3    H133805   6.467   6.835  12.800 -1.8707 -1.6263  0.2880
 4130TIP3    H233806   6.525   6.707  12.856  0.1934 -1.1535 -0.6613
 4131TIP3   OH233807   6.035   2.461  13.607  0.2212 -0.0342  0.3726
 4131TIP3    H133808   5.985   2.394  13.654  0.4278  0.1382  0.8507
 4131TIP3    H233809   5.979   2.485  13.533 -0.2917 -0.0406  0.7450
 4132TIP3   OH233810   3.055   1.013   0.899  0.1464 -0.3771  0.1826
 4132TIP3    H133811   2.999   0.936   0.890 -0.3699  0.1293 -1.3398
 4132TIP3    H233812   3.075   1.039   0.809  0.0680  1.4309  0.6333
 4133TIP3   OH233813   0.595   6.001  12.412 -0.2137 -0.2707  0.2734
 4133TIP3    H133814   0.612   6.014  12.505 -0.6624  0.6084  0.2451
 4133TIP3    H233815   0.499   5.998  12.406 -0.1699 -1.6384 -0.0020
 4134TIP3   OH233816   4.991   4.505  15.229  0.5293  0.2568 -0.0614
 4134TIP3    H133817   5.001   4.571  15.160  2.9092  0.7736  0.7004
 4134TIP3    H233818   5.022   4.549  15.309 -1.7184 -0.4653  1.3229
 4135TIP3   OH233819   1.648   2.516  13.579 -0.4772  0.3948 -0.7335
 4135TIP3    H133820   1.563   2.530  13.537  0.3780  1.8494 -2.0844
 4135TIP3    H233821   1.702   2.475  13.511 -0.0511 -0.4053  0.0731
 4136TIP3   OH233822   0.192   0.668   2.310 -0.3033 -0.1271 -0.2903
 4136TIP3    H133823   0.188   0.613   2.231  0.8785  1.3952 -1.4702
 4136TIP3    H233824   0.280   0.654   2.345  0.4930  1.8697 -1.3282
 4137TIP3   OH233825   5.274   6.021  11.577  0.1473 -0.6188  0.0174
 4137TIP3    H133826   5.359   6.049  11.608 -0.4098  0.3384  0.7067
 4137TIP3    H233827   5.243   5.959  11.643  0.9151 -2.1200 -0.9690
 4138TIP3   OH233828   4.197   4.534  15.041 -0.0015 -0.0569  0.1346
 4138TIP3    H133829   4.259   4.469  15.007 -1.7374 -2.4305  1.1658
 4138TIP3    H233830   4.112   4.490  15.035 -0.9310  1.0332  3.4778
 4139TIP3   OH233831   0.137   5.570   1.232 -0.3102  0.1374  0.1698
 4139TIP3    H133832   0.137   5.480   1.263  1.0869 -0.3574 -1.1465
 4139TIP3    H233833   0.075   5.571   1.159  0.7231 -0.1542 -0.7512
 4140TIP3   OH233834   5.261   0.402  13.101  0.3287  0.2570 -0.9498
 4140TIP3    H133835   5.166   0.399  13.112  0.4121  1.6900  0.6353
 4140TIP3    H233836   5.295   0.362  13.181  1.0670  0.0966 -1.3350
 4141TIP3   OH233837   4.431   4.376  11.101 -0.0726  0.3136  0.2920
 4141TIP3    H133838   4.351   4.382  11.048 -1.0009  0.7263  1.6765
 4141TIP3    H233839   4.484   4.451  11.074 -0.2903  0.2131 -0.4259
 4142TIP3   OH233840   3.741   5.506  16.222  0.0155 -0.9932 -0.0884
 4142TIP3    H133841   3.796   5.530  16.297 -0.4575 -1.3780  0.3855
 4142TIP3    H233842   3.803   5.495  16.150  0.5421 -1.2605  0.3977
 4143TIP3   OH233843   5.507   1.553   4.513  0.1631  0.1412 -0.4495
 4143TIP3    H133844   5.503   1.577   4.605  0.3758  0.9482 -0.6379
 4143TIP3    H233845   5.423   1.582   4.477  0.6564  1.1672 -0.8041
 4144TIP3   OH233846   1.945   5.237  16.370  0.0954  0.1569 -0.3456
 4144TIP3    H133847   1.922   5.175  16.301 -0.5573  0.6107 -0.5509
 4144TIP3    H233848   1.975   5.315  16.322  1.1081 -0.0600 -0.0924
 4145TIP3   OH233849   5.956   4.218  11.833 -0.0168  0.1487  0.4635
 4145TIP3    H133850   5.868   4.252  11.847  1.1551  2.7625  2.2404
 4145TIP3    H233851   5.955   4.131  11.873 -2.0276 -0.3462 -0.5274
 4146TIP3   OH233852   1.343   6.608  13.814 -0.1678 -0.1382 -0.0376
 4146TIP3    H133853   1.254   6.584  13.787  0.0525  0.1588 -1.0611
 4146TIP3    H233854   1.355   6.697  13.780 -0.5438  1.0641  2.6754
 4147TIP3   OH233855   0.314   4.380  12.762 -0.2222 -0.3624 -0.3813
 4147TIP3    H133856   0.325   4.402  12.670 -1.3479 -0.8119 -0.6390
 4147TIP3    H233857   0.220   4.372  12.774 -0.0128 -2.3433  0.3212
 4148TIP3   OH233858   2.072   3.788  15.772  0.7104  0.1101  0.0112
 4148TIP3    H133859   2.042   3.830  15.852  1.2550 -0.7151  0.6599
 4148TIP3    H233860   2.140   3.847  15.739  0.5488  0.4037  0.1929
 4149TIP3   OH233861   2.543   1.694  15.670  0.3819  0.0930 -0.2273
 4149TIP3    H133862   2.592   1.769  15.635  0.6013  0.3779  0.6593
 4149TIP3    H233863   2.595   1.664  15.745 -0.5525  0.1073  0.4490
 4150TIP3   OH233864   4.843   2.835   5.795 -0.0803  0.0396  0.5634
 4150TIP3    H133865   4.816   2.921   5.825 -0.7845 -0.4134  1.2782
 4150TIP3    H233866   4.918   2.813   5.852  0.7032  0.5589 -0.2447
 4151TIP3   OH233867   4.249   1.195  14.671 -0.2646  0.7237  0.2250
 4151TIP3    H133868   4.182   1.248  14.716 -1.0738 -0.6483  0.7193
 4151TIP3    H233869   4.220   1.193  14.580 -0.6768  0.4988  0.3543
 4152TIP3   OH233870   5.820   3.441   6.346  0.1198 -0.3857 -0.2483
 4152TIP3    H133871   5.770   3.500   6.289 -0.8268 -0.3802  0.5663
 4152TIP3    H233872   5.796   3.466   6.435  2.7626  0.6511  0.2722
 4153TIP3   OH233873   1.220   2.490   5.495  0.0411 -0.1656 -0.2654
 4153TIP3    H133874   1.159   2.545   5.545  2.0222  2.4209 -0.4441
 4153TIP3    H233875   1.289   2.468   5.557  1.7597  1.8141 -1.3380
 4154TIP3   OH233876   3.151   6.171  13.617  0.0032 -0.0020 -0.1358
 4154TIP3    H133877   3.175   6.226  13.542 -0.3132 -0.6201 -0.7034
 4154TIP3    H233878   3.121   6.089  13.578  1.4082 -0.9611  0.7274
 4155TIP3   OH233879   5.351   0.635   0.079  0.5583 -0.2260 -0.0110
 4155TIP3    H133880   5.358   0.598   0.167 -0.5579 -0.2983  0.0658
 4155TIP3    H233881   5.375   0.563   0.020  0.5732 -0.3975  0.2053
 4156TIP3   OH233882   0.555   1.544   0.503  0.0180 -0.0516  0.4569
 4156TIP3    H133883   0.606   1.513   0.578  0.6843  0.6426  0.3156
 4156TIP3    H233884   0.480   1.485   0.497 -0.6599  0.5479  2.3669
 4157TIP3   OH233885   2.725   0.045  11.331 -0.6026  0.4135 -0.4163
 4157TIP3    H133886   2.703  -0.034  11.380  1.2260 -0.2487 -0.5953
 4157TIP3    H233887   2.640   0.077  11.299 -1.6410 -0.1460  1.6015
 4158TIP3   OH233888   2.029   3.822  12.515 -0.6674  0.2408 -0.0714
 4158TIP3    H133889   2.050   3.833  12.422 -0.8957  2.4949  0.1038
 4158TIP3    H233890   2.112   3.797  12.555 -0.3785  0.0922 -0.7482
 4159TIP3   OH233891   6.317   2.034   1.744  0.2597 -0.2171  0.1015
 4159TIP3    H133892   6.307   2.042   1.649  1.1733  1.8205  0.1437
 4159TIP3    H233893   6.315   1.939   1.760  0.9433 -0.6458 -2.0404
 4160TIP3   OH233894   4.201   3.942   5.441  0.4567  0.0754 -0.7494
 4160TIP3    H133895   4.181   3.908   5.528  1.5961 -1.3808 -1.0210
 4160TIP3    H233896   4.240   4.028   5.458 -0.7490  0.4785  0.0654
 4161TIP3   OH233897   1.784   6.401  11.964 -0.1740  0.0437  0.3594
 4161TIP3    H133898   1.725   6.414  11.890  0.7444  0.1356 -0.3867
 4161TIP3    H233899   1.815   6.489  11.986  0.0086 -0.0426  0.4612
 4162TIP3   OH233900   1.573   2.742  11.183 -0.3857  0.2325 -0.0614
 4162TIP3    H133901   1.492   2.758  11.232 -0.7627  0.8803 -0.8651
 4162TIP3    H233902   1.556   2.780  11.096  1.3088  1.7752  0.2148
 4163TIP3   OH233903   2.909   2.789   0.678 -0.4586 -0.2316  0.3275
 4163TIP3    H133904   2.889   2.696   0.688 -0.9213 -0.1173  0.4851
 4163TIP3    H233905   2.824   2.833   0.687 -0.2330  0.2087  0.3174
 4164TIP3   OH233906   3.322   4.859   4.827  0.2115 -0.0527  0.2974
 4164TIP3    H133907   3.279   4.940   4.855 -0.0862 -0.1993  0.2732
 4164TIP3    H233908   3.349   4.876   4.737  1.5385  0.5694  0.7848
 4165TIP3   OH233909   5.645   4.694  16.377 -0.2190  0.8388 -0.2154
 4165TIP3    H133910   5.652   4.779  16.420  0.3886  1.1641 -0.9153
 4165TIP3    H233911   5.730   4.653  16.392  0.7786  1.7731 -2.6887
 4166TIP3   OH233912   5.323   1.729  13.105  0.3550 -0.0462  0.1638
 4166TIP3    H133913   5.228   1.717  13.108  0.4106 -0.3804  2.1630
 4166TIP3    H233914   5.346   1.758  13.193  2.0725  0.4498 -0.4085
 4167TIP3   OH233915   3.475   5.280   5.032 -0.8905 -0.4268 -0.3050
 4167TIP3    H133916   3.543   5.286   5.099 -1.0919 -0.5754 -0.0882
 4167TIP3    H233917   3.514   5.225   4.964 -0.6649 -0.2289 -0.3396
 4168TIP3   OH233918   2.726   2.303   2.157  0.7051 -0.4853 -0.0161
 4168TIP3    H133919   2.736   2.397   2.173 -1.0102 -0.3898  0.7711
 4168TIP3    H233920   2.674   2.272   2.232  1.6240 -2.1552 -0.0322
 4169TIP3   OH233921   5.984   1.486   1.089 -0.3781 -0.3182 -0.2114
 4169TIP3    H133922   5.925   1.410   1.092 -1.0742  0.0940 -2.1016
 4169TIP3    H233923   5.989   1.516   1.179 -1.7786 -1.3567  0.2481
 4170TIP3   OH233924   0.938   4.090   5.516  0.1037 -0.8228  0.7823
 4170TIP3    H133925   0.868   4.027   5.536  0.6980 -2.1338 -1.0395
 4170TIP3    H233926   0.924   4.161   5.579 -2.5785 -1.2447  0.8028
 4171TIP3   OH233927   1.608   4.282   6.151  0.2371 -0.1589  0.4010
 4171TIP3    H133928   1.607   4.261   6.244 -0.8046 -0.6625  0.2829
 4171TIP3    H233929   1.518   4.269   6.122  0.1469  1.6738 -0.3150
 4172TIP3   OH233930   0.626   0.566  16.858 -0.2575 -0.4950  0.5588
 4172TIP3    H133931   0.542   0.593  16.821  0.6383  0.4671 -0.8240
 4172TIP3    H233932   0.664   0.508  16.792 -0.0115 -1.2747  1.3663
 4173TIP3   OH233933   5.871   2.128   2.398  0.1088 -0.3695  0.2810
 4173TIP3    H133934   5.951   2.154   2.444  2.0282 -2.1328 -1.7517
 4173TIP3    H233935   5.857   2.198   2.334  0.9392 -0.7070 -0.3017
 4174TIP3   OH233936   6.806   0.259  16.949  0.0874  0.3227 -0.2420
 4174TIP3    H133937   6.735   0.209  16.909 -0.1458 -0.2502  0.8341
 4174TIP3    H233938   6.862   0.193  16.990  1.0669  0.7949 -0.8057
 4175TIP3   OH233939   5.866   2.332  16.838  0.4864 -0.8384  0.1853
 4175TIP3    H133940   5.797   2.385  16.799  0.2628  1.0520  2.8650
 4175TIP3    H233941   5.824   2.285  16.909  1.6686 -0.7464  0.9753
 4176TIP3   OH233942   6.755   2.001   3.799 -0.3175 -0.2044 -0.0407
 4176TIP3    H133943   6.745   2.068   3.867 -0.0277  0.1853 -0.3802
 4176TIP3    H233944   6.733   1.919   3.844  2.1566 -0.2802  1.2079
 4177TIP3   OH233945   4.275   3.789  13.639 -0.4580  0.9801 -0.4275
 4177TIP3    H133946   4.317   3.865  13.680  0.0982  1.3769 -1.6824
 4177TIP3    H233947   4.182   3.799  13.660  0.0425 -0.6088  3.5285
 4178TIP3   OH233948   5.549   5.755   5.537  0.4899 -0.0171 -0.0520
 4178TIP3    H133949   5.570   5.769   5.629  1.9963 -2.2639  0.0295
 4178TIP3    H233950   5.457   5.781   5.529  0.8374  1.9186  1.6357
 4179TIP3   OH233951   6.434   2.425   5.586 -0.9023 -0.4838 -0.5214
 4179TIP3    H133952   6.482   2.372   5.649 -1.2931  0.0292  0.2288
 4179TIP3    H233953   6.501   2.470   5.535 -0.5714 -1.4466 -0.9679
 4180TIP3   OH233954   6.695   3.650  16.352  0.4487  0.1662 -0.0737
 4180TIP3    H133955   6.738   3.567  16.370 -0.2626 -0.2540 -0.2848
 4180TIP3    H233956   6.760   3.700  16.302  0.6454 -0.5114 -0.5030
 4181TIP3   OH233957   0.846   1.785   1.254 -0.4239 -0.3601  0.3243
 4181TIP3    H133958   0.816   1.819   1.170 -0.6462 -1.1722  0.0689
 4181TIP3    H233959   0.937   1.812   1.260 -1.0865  2.0288  1.0400
 4182TIP3   OH233960   4.771   1.704  15.147  1.0773 -0.9572  0.5208
 4182TIP3    H133961   4.842   1.729  15.206  2.3071 -1.7979 -0.5537
 4182TIP3    H233962   4.815   1.670  15.069 -0.3948  1.9569 -1.7979
 4183TIP3   OH233963   4.577   6.275  11.477  0.6980 -0.2305  0.7588
 4183TIP3    H133964   4.595   6.343  11.413  0.1985 -0.7896  0.0078
 4183TIP3    H233965   4.629   6.300  11.554  1.5744  0.2728  0.0298
 4184TIP3   OH233966   4.773   0.813  15.977 -0.2093  0.4413 -0.5250
 4184TIP3    H133967   4.855   0.829  15.931  0.5102 -0.2058  0.5160
 4184TIP3    H233968   4.732   0.900  15.983 -1.0557  0.3675 -3.6469
 4185TIP3   OH233969   5.225   5.232  13.696  0.5495 -0.0911  0.0120
 4185TIP3    H133970   5.304   5.213  13.746  0.5008  0.3361  0.2547
 4185TIP3    H233971   5.155   5.235  13.762  0.1105 -1.7067 -0.3378
 4186TIP3   OH233972   6.201   1.357   5.447 -0.1041 -0.1370  0.6146
 4186TIP3    H133973   6.176   1.448   5.460 -0.6465  0.2296 -2.3626
 4186TIP3    H233974   6.253   1.357   5.367  0.0270 -2.4432  0.6308
 4187TIP3   OH233975   3.364   6.693  16.434 -0.4721 -0.0337  0.2354
 4187TIP3    H133976   3.359   6.677  16.340  0.4804  0.6897  0.0465
 4187TIP3    H233977   3.273   6.693  16.464 -0.7568 -0.6537 -0.6123
 4188TIP3   OH233978   2.567   4.583   4.370  0.0848  0.4885 -0.1214
 4188TIP3    H133979   2.613   4.657   4.410 -1.8997  0.8673  1.6428
 4188TIP3    H233980   2.502   4.624   4.312 -0.8417  0.1673  0.6611
 4189TIP3   OH233981   2.749   6.023  16.527 -0.1029 -0.8530  0.4285
 4189TIP3    H133982   2.742   5.999  16.434  0.1361 -2.7262  0.8620
 4189TIP3    H233983   2.775   5.943  16.571 -0.3512 -0.0303  2.1641
 4190TIP3   OH233984   2.422   0.745   5.788 -0.1054 -0.5406 -0.2276
 4190TIP3    H133985   2.516   0.751   5.807 -0.5855  0.9999  2.0971
 4190TIP3    H233986   2.395   0.663   5.829 -0.2795  0.5809  2.1171
 4191TIP3   OH233987   2.501   0.157   2.847  0.4939  0.3544  0.3044
 4191TIP3    H133988   2.523   0.208   2.925  1.9076 -0.3236  0.3817
 4191TIP3    H233989   2.429   0.101   2.875  0.2887  0.8620  0.8074
 4192TIP3   OH233990   4.154   3.957   2.382  0.0709 -0.6033 -0.1506
 4192TIP3    H133991   4.144   3.955   2.287  0.6605  0.4037 -0.2543
 4192TIP3    H233992   4.247   3.943   2.397  0.1912  0.4557  0.1972
 4193TIP3   OH233993   1.430   6.116   1.554  0.4062 -0.2140  0.0680
 4193TIP3    H133994   1.494   6.045   1.545  1.1124  0.5388 -1.2319
 4193TIP3    H233995   1.450   6.175   1.481 -0.6078  0.9706  0.7132
 4194TIP3   OH233996   0.600   2.014  14.595  0.2883 -0.1782 -0.0111
 4194TIP3    H133997   0.569   2.091  14.547 -0.4868 -0.8832 -0.6910
 4194TIP3    H233998   0.695   2.020  14.590  0.2595  1.1028  0.5679
 4195TIP3   OH233999   5.903   6.539   1.723  0.0614  0.2947 -0.1948
 4195TIP3    H134000   5.930   6.518   1.812 -2.4607 -0.1776  0.5481
 4195TIP3    H234001   5.960   6.611   1.696  1.4660 -0.1596  1.4363
 4196TIP3   OH234002   3.761   4.146   1.409 -0.0731  0.6708 -0.4034
 4196TIP3    H134003   3.744   4.083   1.339  0.0422 -0.0342  0.1982
 4196TIP3    H234004   3.849   4.125   1.440 -0.2934  0.6919  0.2521
 4197TIP3   OH234005   4.244   3.500  11.080  0.6140 -0.3015 -0.1069
 4197TIP3    H134006   4.280   3.589  11.082  1.6539 -0.7127  0.6680
 4197TIP3    H234007   4.257   3.471  10.990  0.9408  0.0849 -0.1874
 4198TIP3   OH234008   0.185   1.580   4.958 -0.0137 -0.0495  0.2715
 4198TIP3    H134009   0.179   1.490   4.990 -0.0829 -0.7954 -1.6505
 4198TIP3    H234010   0.102   1.621   4.983 -0.8513 -1.1770 -0.5536
 4199TIP3   OH234011   6.007   2.412   3.403  0.2667  0.4184 -0.0709
 4199TIP3    H134012   6.015   2.334   3.457  1.8758  0.8930  0.4398
 4199TIP3    H234013   6.063   2.477   3.446 -1.4633  2.0556 -0.1530
 4200TIP3   OH234014   6.740   5.418  14.939 -0.2682  0.5521  0.2257
 4200TIP3    H134015   6.770   5.372  14.861  0.8364  0.2395  0.7978
 4200TIP3    H234016   6.743   5.510  14.915  0.0757  0.4598 -0.1072
 4201TIP3   OH234017   0.771   2.992  14.044 -0.3790 -0.2968 -0.3223
 4201TIP3    H134018   0.792   3.067  14.100 -0.5291 -0.2794 -0.2875
 4201TIP3    H234019   0.796   2.916  14.095  1.4532 -0.2359 -1.0553
 4202TIP3   OH234020   5.064   5.840  11.715 -0.3310  0.1815  0.0640
 4202TIP3    H134021   5.093   5.814  11.802 -2.0892 -0.4933  0.4863
 4202TIP3    H234022   5.049   5.757  11.669 -0.1698  0.5300 -0.6394
 4203TIP3   OH234023   6.057   5.877   1.877  0.7462 -0.0473 -0.2760
 4203TIP3    H134024   6.089   5.891   1.966  0.5152 -2.9057  0.3585
 4203TIP3    H234025   6.009   5.794   1.881  0.9432 -0.4124 -3.1096
 4204TIP3   OH234026   2.157   2.132  11.366  0.2129 -0.1417  0.7136
 4204TIP3    H134027   2.073   2.108  11.406  0.1309 -0.8779  0.1261
 4204TIP3    H234028   2.215   2.150  11.440 -0.4214  0.2627  1.1288
 4205TIP3   OH234029   2.970   4.026  15.041 -0.6314 -0.1103 -0.0496
 4205TIP3    H134030   2.996   4.036  14.949  0.6203  1.4738  0.4317
 4205TIP3    H234031   2.884   4.067  15.046 -2.2354 -3.0399 -1.1119
 4206TIP3   OH234032   5.226   0.060   0.104  0.0920  0.2679  0.0639
 4206TIP3    H134033   5.198   0.024   0.188  0.9278  0.3979  0.3994
 4206TIP3    H234034   5.260  -0.016   0.056  0.5927  0.3739  0.2492
 4207TIP3   OH234035   3.743   3.277   5.586  0.4564 -0.3765  0.3687
 4207TIP3    H134036   3.838   3.267   5.599  0.3582 -0.5268  1.0402
 4207TIP3    H234037   3.735   3.356   5.532  0.9655 -0.3770  0.2818
 4208TIP3   OH234038   0.971   0.783   3.558  0.2593 -0.2144  0.1645
 4208TIP3    H134039   0.893   0.839   3.554 -0.4300 -1.1146  0.5667
 4208TIP3    H234040   0.999   0.775   3.466 -0.2986 -0.1143 -0.0221
 4209TIP3   OH234041   5.936   5.291  15.529 -0.0777 -0.0154 -0.0761
 4209TIP3    H134042   5.975   5.238  15.598  0.5499  0.0106 -0.4048
 4209TIP3    H234043   5.899   5.228  15.468 -0.7274 -0.0372  0.3283
 4210TIP3   OH234044   1.722   2.235   2.097  0.9083 -0.3710  0.8304
 4210TIP3    H134045   1.710   2.304   2.032  1.1845 -0.9056  0.1849
 4210TIP3    H234046   1.664   2.258   2.169  0.0046 -0.1586  0.0615
 4211TIP3   OH234047   4.216   2.308   2.758 -0.0798  0.0456  0.6573
 4211TIP3    H134048   4.217   2.307   2.854  0.4688 -1.3631  0.6605
 4211TIP3    H234049   4.124   2.304   2.734 -0.1858 -0.4521  1.1365
 4212TIP3   OH234050   6.734   3.978   2.255  0.1922 -0.2555 -0.3715
 4212TIP3    H134051   6.828   3.997   2.246  0.3266 -0.5366  0.3523
 4212TIP3    H234052   6.691   4.060   2.230  0.6768  0.2233  0.3023
 4213TIP3   OH234053   0.665   6.105   1.728  0.3292 -0.1717 -0.0188
 4213TIP3    H134054   0.598   6.062   1.675  0.9533 -1.1915 -0.0111
 4213TIP3    H234055   0.616   6.155   1.793 -0.4486 -1.4441  0.4141
 4214TIP3   OH234056   5.127   3.107   3.572  0.1901 -1.0697  0.0734
 4214TIP3    H134057   5.094   3.148   3.492  0.4062  0.5985  0.7904
 4214TIP3    H234058   5.056   3.051   3.602 -0.1061 -1.2756 -0.9754
 4215TIP3   OH234059   0.333   6.159  11.858  0.3238  0.1506  0.0621
 4215TIP3    H134060   0.284   6.098  11.803  0.6574  0.3254 -0.4381
 4215TIP3    H234061   0.339   6.115  11.943  0.7627 -0.6223 -0.3531
 4216TIP3   OH234062   4.854   6.017  11.654 -0.2639  0.4094  0.4377
 4216TIP3    H134063   4.875   6.029  11.747  0.0474 -0.4266  0.4896
 4216TIP3    H234064   4.903   5.938  11.629 -0.9552  0.1864 -0.2432
 4217TIP3   OH234065   6.656   6.051  15.359 -0.1231 -0.5061 -0.4350
 4217TIP3    H134066   6.678   6.140  15.329 -0.1789  0.5498  2.3418
 4217TIP3    H234067   6.568   6.036  15.324  0.3124  0.0541 -1.8582
 4218TIP3   OH234068   4.492   6.284   2.783 -0.8733 -0.3388 -0.0963
 4218TIP3    H134069   4.435   6.320   2.715 -1.4255 -0.6288  0.2090
 4218TIP3    H234070   4.527   6.204   2.744  0.9026  0.8232 -1.0471
 4219TIP3   OH234071   0.960   1.054  11.717  0.3041 -0.4117 -0.2017
 4219TIP3    H134072   0.874   1.084  11.686 -0.6985 -1.7723  1.1162
 4219TIP3    H234073   1.017   1.063  11.641 -0.2520  3.1846 -0.3724
 4220TIP3   OH234074   0.235   6.671  11.432 -0.2552 -0.1020 -0.1941
 4220TIP3    H134075   0.231   6.701  11.341 -0.0059 -0.7550 -0.4273
 4220TIP3    H234076   0.328   6.676  11.454 -0.5457  2.0076  0.7097
 4221TIP3   OH234077   4.266   4.287  12.847  0.0236 -0.1183 -0.4164
 4221TIP3    H134078   4.350   4.331  12.833 -0.2302  0.6692  0.4647
 4221TIP3    H234079   4.286   4.194  12.836  1.0077  0.0599 -0.2489
 4222TIP3   OH234080   0.308   4.920   0.103  0.0391  0.1966 -0.5478
 4222TIP3    H134081   0.360   4.938   0.024 -0.9698  1.9264 -0.8506
 4222TIP3    H234082   0.337   4.985   0.167  0.5919 -0.9688  0.4328
 4223TIP3   OH234083   5.213   2.556   4.871  0.2308  0.6319 -0.3327
 4223TIP3    H134084   5.144   2.495   4.898  0.3539 -0.7390 -2.8326
 4223TIP3    H234085   5.292   2.503   4.866  1.1837  1.8451  0.9406
 4224TIP3   OH234086   3.913   3.298   2.419 -0.3667  0.0293  0.6099
 4224TIP3    H134087   3.893   3.387   2.446  0.2889  0.0623  1.0039
 4224TIP3    H234088   3.889   3.294   2.326 -1.5838  0.2426  0.9100
 4225TIP3   OH234089   4.030   3.149   2.127  0.4777 -0.7021  0.1582
 4225TIP3    H134090   3.942   3.119   2.104 -0.3224  0.3599  1.6592
 4225TIP3    H234091   4.043   3.228   2.074 -0.7744  0.9118  2.1380
 4226TIP3   OH234092   5.527   5.766  15.938 -0.1504  0.5895  0.6205
 4226TIP3    H134093   5.607   5.716  15.925 -1.0044 -0.6936  0.1091
 4226TIP3    H234094   5.529   5.832  15.868  0.6079  0.7672  0.8071
 4227TIP3   OH234095   6.415   4.023  15.383  0.4049 -0.0686  0.5883
 4227TIP3    H134096   6.395   3.963  15.310  0.2547 -0.0639  0.6253
 4227TIP3    H234097   6.333   4.030  15.431  0.3538  0.3658  0.4409
 4228TIP3   OH234098   6.656   6.484  13.167 -0.3337 -0.0979  0.0808
 4228TIP3    H134099   6.607   6.417  13.119  0.4762  0.0013 -0.9174
 4228TIP3    H234100   6.748   6.458  13.157 -0.0131  1.1129 -0.2596
 4229TIP3   OH234101   6.427   0.167  15.629  0.4856 -0.3089  0.0378
 4229TIP3    H134102   6.414   0.152  15.723  1.0015  1.3977  0.4077
 4229TIP3    H234103   6.340   0.189  15.596  0.1674 -1.6246 -0.0490
 4230TIP3   OH234104   1.768   3.016  16.271 -0.2356 -0.1740 -0.2491
 4230TIP3    H134105   1.720   2.933  16.275 -0.3738 -0.1661 -1.3540
 4230TIP3    H234106   1.842   3.004  16.330 -1.9361  0.0633  2.0615
 4231TIP3   OH234107   2.044   4.506   1.084 -0.1233  0.1633  0.5504
 4231TIP3    H134108   2.117   4.486   1.026  0.4508  0.9512  0.9836
 4231TIP3    H234109   1.980   4.550   1.029  0.5041  1.0846  0.5513
 4232TIP3   OH234110   2.804   2.469  16.265 -0.0742 -0.0716  0.1781
 4232TIP3    H134111   2.829   2.422  16.185 -2.4776 -3.3977  1.1882
 4232TIP3    H234112   2.710   2.486  16.256  0.0277  1.4836  1.4270
 4233TIP3   OH234113   5.940   0.104   5.666  0.4448  0.3862  0.3619
 4233TIP3    H134114   5.905   0.177   5.718 -0.4717  0.0411  0.2401
 4233TIP3    H234115   5.863   0.055   5.638  0.9182  0.5450 -1.3035
 4234TIP3   OH234116   6.584   4.249  14.388 -0.1013  0.0375  0.1301
 4234TIP3    H134117   6.550   4.222  14.473 -0.5319 -4.0819 -1.1178
 4234TIP3    H234118   6.679   4.238  14.396  0.0705  1.5791  0.5757
 4235TIP3   OH234119   4.228   4.282   3.216  0.5092  0.2345  0.4886
 4235TIP3    H134120   4.276   4.234   3.148  0.8263 -1.2577  1.6975
 4235TIP3    H234121   4.275   4.364   3.225  1.1668 -0.0414 -0.2828
 4236TIP3   OH234122   2.684   5.517  11.800 -0.9683  0.1704  0.2966
 4236TIP3    H134123   2.763   5.475  11.834  1.2989  2.6341 -1.5787
 4236TIP3    H234124   2.645   5.561  11.876  0.8624  0.9691  0.8127
 4237TIP3   OH234125   6.173   0.779  15.675 -0.0568 -0.4512 -0.1045
 4237TIP3    H134126   6.167   0.843  15.746  0.5628  0.0719 -0.5084
 4237TIP3    H234127   6.247   0.723  15.698 -1.8732 -2.4181  1.3223
 4238TIP3   OH234128   2.451   4.227  15.550  0.2981  0.3137  0.2929
 4238TIP3    H134129   2.395   4.150  15.537 -1.5105  1.3504  1.4728
 4238TIP3    H234130   2.443   4.277  15.469  1.3745 -0.6539 -0.4252
 4239TIP3   OH234131   1.733   5.898  14.933 -0.0750  0.0240  1.1876
 4239TIP3    H134132   1.823   5.866  14.942  0.7842  1.3860 -1.4511
 4239TIP3    H234133   1.692   5.837  14.871 -0.7610 -0.1485  1.7960
 4240TIP3   OH234134   3.235   0.788  11.991 -0.0005  0.0929 -0.4422
 4240TIP3    H134135   3.206   0.701  11.964  0.1117 -0.1504  0.1970
 4240TIP3    H234136   3.178   0.849  11.944  0.0117 -0.3192 -0.9985
 4241TIP3   OH234137   0.832   0.163   3.314 -0.0449 -0.1904  0.4745
 4241TIP3    H134138   0.914   0.191   3.353 -0.0433  0.7488 -0.1715
 4241TIP3    H234139   0.811   0.231   3.250 -1.0828 -0.6567  0.2956
 4242TIP3   OH234140   1.146   3.284   3.024  0.0715  0.2839  0.4348
 4242TIP3    H134141   1.167   3.259   3.115  0.2966 -1.5206 -0.0707
 4242TIP3    H234142   1.060   3.246   3.008  0.3704 -0.0877 -0.3472
 4243TIP3   OH234143   2.155   3.187   2.467 -0.5112 -0.7340 -0.5403
 4243TIP3    H134144   2.090   3.155   2.530 -0.8915 -0.3540 -0.7310
 4243TIP3    H234145   2.105   3.201   2.386  0.0291 -1.4811 -1.0074
 4244TIP3   OH234146   4.530   4.352  11.533 -0.2497 -0.1803  0.2103
 4244TIP3    H134147   4.502   4.443  11.539 -1.8562 -0.5155 -1.3397
 4244TIP3    H234148   4.522   4.318  11.622 -0.4187  0.9739  0.6463
 4245TIP3   OH234149   3.558   1.163  15.852  0.1516 -0.4096 -0.0040
 4245TIP3    H134150   3.618   1.131  15.785 -0.2376 -0.4835 -0.3201
 4245TIP3    H234151   3.611   1.168  15.932  1.0330  1.1072 -0.6386
 4246TIP3   OH234152   1.050   3.884   0.128 -0.2398  0.2270  0.2545
 4246TIP3    H134153   1.133   3.838   0.142  0.7740  2.1350  0.9233
 4246TIP3    H234154   1.006   3.834   0.059  2.1258 -0.0092 -1.2102
 4247TIP3   OH234155   5.278   3.188   3.904 -0.4620 -0.5168  0.2138
 4247TIP3    H134156   5.269   3.092   3.904 -0.9353 -0.5015 -1.3915
 4247TIP3    H234157   5.372   3.202   3.916 -0.2738 -1.2288 -0.3006
 4248TIP3   OH234158   3.581   6.672  11.914  0.2388 -0.1676 -0.2578
 4248TIP3    H134159   3.542   6.587  11.896  0.2474 -0.0021 -1.0907
 4248TIP3    H234160   3.526   6.734  11.867  0.4217  0.2600  0.0847
 4249TIP3   OH234161   2.102   5.607   0.343 -0.4259 -0.1398  0.0112
 4249TIP3    H134162   2.188   5.631   0.309 -0.0331 -2.3419 -0.6888
 4249TIP3    H234163   2.040   5.638   0.277  0.0015 -0.4080 -0.5192
 4250TIP3   OH234164   5.688   2.197   4.937  0.3300 -0.0100 -0.0710
 4250TIP3    H134165   5.728   2.125   4.887  1.0370  1.3128 -1.5218
 4250TIP3    H234166   5.757   2.226   4.996  0.4362  0.1846 -0.2867
 4251TIP3   OH234167   5.924   1.965   0.056 -0.6022 -0.0471  0.0946
 4251TIP3    H134168   5.955   2.048   0.092  1.0061 -0.5795  0.0159
 4251TIP3    H234169   5.889   1.918   0.132  0.3640 -0.0980  0.5265
 4252TIP3   OH234170   5.854   0.566  16.052 -0.0848  0.3341  0.4045
 4252TIP3    H134171   5.814   0.492  16.005  0.3224  0.1371  0.3645
 4252TIP3    H234172   5.780   0.624  16.073 -0.3329  0.1935 -0.0631
 4253TIP3   OH234173   0.467   5.305  10.579  0.1755 -0.2016  0.5957
 4253TIP3    H134174   0.409   5.356  10.522 -0.9147 -1.9858  0.0130
 4253TIP3    H234175   0.470   5.355  10.661 -1.5804  0.3449  0.3680
 4254TIP3   OH234176   3.653   4.681  14.795 -0.4694  0.4558 -0.0492
 4254TIP3    H134177   3.634   4.739  14.721 -1.4390 -1.6562 -1.5259
 4254TIP3    H234178   3.743   4.652  14.780 -0.3033  0.8470  0.1833
 4255TIP3   OH234179   3.759   2.376   2.093  0.1810 -0.3395 -0.5233
 4255TIP3    H134180   3.812   2.454   2.108 -1.3014  0.7256 -0.5809
 4255TIP3    H234181   3.694   2.378   2.164  0.9725 -2.3262  0.3378
 4256TIP3   OH234182   1.291   6.402   3.210  0.1050  0.5389  0.1210
 4256TIP3    H134183   1.337   6.392   3.293 -0.8713  0.0117  0.6265
 4256TIP3    H234184   1.269   6.495   3.205 -0.9461  0.3713  1.1030
 4257TIP3   OH234185   0.392   5.013   0.954 -0.3257  0.3211  0.1368
 4257TIP3    H134186   0.421   4.945   1.015  0.6678  0.1730 -0.4692
 4257TIP3    H234187   0.307   5.041   0.987 -0.1054 -0.2225  1.2000
 4258TIP3   OH234188   5.325   2.910   3.923 -0.5032 -0.4723  0.9266
 4258TIP3    H134189   5.278   2.863   3.854  0.2012 -0.3074  0.3228
 4258TIP3    H234190   5.409   2.865   3.930 -0.1213  0.2188  0.8713
 4259TIP3   OH234191   2.725   1.837   2.198  0.3521  0.2536 -0.3607
 4259TIP3    H134192   2.806   1.804   2.158  1.1434  1.9154 -0.2442
 4259TIP3    H234193   2.731   1.809   2.289  0.3857 -0.3597 -0.5509
 4260TIP3   OH234194   1.668   1.494  15.443 -0.2473  0.8915 -0.1001
 4260TIP3    H134195   1.728   1.430  15.482  0.1984  1.3196 -0.0754
 4260TIP3    H234196   1.607   1.441  15.392  0.7071  0.5037 -0.8808
 4261TIP3   OH234197   0.732   5.000  14.240 -0.1020  0.0151 -0.3707
 4261TIP3    H134198   0.682   4.920  14.252 -2.1987  1.2566 -0.4049
 4261TIP3    H234199   0.788   5.005  14.318  0.0032 -1.4259 -0.3379
 4262TIP3   OH234200   2.098   4.827   4.356  0.0999 -0.3024  0.3921
 4262TIP3    H134201   2.009   4.864   4.355  0.1224 -0.2309 -1.3475
 4262TIP3    H234202   2.086   4.735   4.336  0.3471 -0.5695  1.3835
 4263TIP3   OH234203   6.688   4.940   2.645  0.1457  0.8700  0.1653
 4263TIP3    H134204   6.687   5.034   2.627  0.6880  0.5400 -1.8557
 4263TIP3    H234205   6.680   4.899   2.559 -1.6794 -0.9589  1.1080
 4264TIP3   OH234206   0.875   0.566  11.524 -0.1356 -0.6372 -0.2562
 4264TIP3    H134207   0.819   0.497  11.559 -1.6258  1.6484  2.2386
 4264TIP3    H234208   0.951   0.566  11.582 -0.7083  0.5329  0.5340
 4265TIP3   OH234209   5.135   3.395  14.994  0.4036  0.0247 -0.3297
 4265TIP3    H134210   5.211   3.337  14.988  2.2319  2.2303  0.3111
 4265TIP3    H234211   5.170   3.479  15.022 -2.3680  1.0325  0.4991
 4266TIP3   OH234212   0.009   1.137   6.651  0.2627  0.1039 -0.4723
 4266TIP3    H134213  -0.062   1.187   6.610 -1.6746 -1.6715  0.5241
 4266TIP3    H234214  -0.036   1.069   6.702  2.6983 -0.9741  0.3830
 4267TIP3   OH234215   2.135   4.428  11.797  0.2117  0.4788 -0.2601
 4267TIP3    H134216   2.206   4.487  11.773  0.9254  0.0973  0.8342
 4267TIP3    H234217   2.118   4.448  11.889 -0.8150  0.2576 -0.3879
 4268TIP3   OH234218   3.663   0.043   2.510 -0.2067  0.8419 -0.8486
 4268TIP3    H134219   3.618   0.013   2.590 -1.3186  2.2274 -0.9182
 4268TIP3    H234220   3.592   0.064   2.450  0.5789  1.5975 -1.5305
 4269TIP3   OH234221   2.583   1.702  11.416  0.1162 -0.4901 -0.6984
 4269TIP3    H134222   2.545   1.716  11.329  3.4371 -0.2734 -2.3193
 4269TIP3    H234223   2.648   1.773  11.424  0.0771 -0.6777  1.8674
 4270TIP3   OH234224   0.659   0.694  16.123  0.4530 -0.2040 -0.1732
 4270TIP3    H134225   0.593   0.753  16.087 -0.1204 -1.5961 -1.5845
 4270TIP3    H234226   0.609   0.617  16.151  1.3672 -0.9167 -0.4397
 4271TIP3   OH234227   1.259   0.478   1.531  0.4133 -0.1493 -0.7160
 4271TIP3    H134228   1.354   0.479   1.524  0.5042  1.7724  0.2786
 4271TIP3    H234229   1.230   0.556   1.484 -0.4196  0.8531  1.3506
 4272TIP3   OH234230   1.927   4.486   3.588 -0.0275  0.5023  0.0504
 4272TIP3    H134231   1.874   4.565   3.580 -1.0619 -0.1310  0.4284
 4272TIP3    H234232   1.929   4.468   3.682  0.5446  0.2947  0.0030
 4273TIP3   OH234233   5.024   1.666   0.831  0.7672 -0.2161  0.7986
 4273TIP3    H134234   5.033   1.722   0.908 -1.3221 -2.7304  3.0944
 4273TIP3    H234235   4.930   1.656   0.819  1.0466 -0.2210 -1.9378
 4274TIP3   OH234236   4.884   3.998  14.336  0.1067  0.0173  0.1754
 4274TIP3    H134237   4.803   3.994  14.387 -0.5021 -0.9706 -0.8273
 4274TIP3    H234238   4.954   4.003  14.402 -0.7022 -0.3114  1.0734
 4275TIP3   OH234239   1.227   0.231   1.191 -0.0679 -0.1702 -0.0051
 4275TIP3    H134240   1.138   0.195   1.192 -0.7668  1.3888 -1.5511
 4275TIP3    H234241   1.271   0.186   1.263 -2.0562 -1.0864  0.7227
 4276TIP3   OH234242   2.099   3.986  15.138 -0.3528  0.6295  0.0373
 4276TIP3    H134243   2.091   3.972  15.044 -1.6541  1.6522 -0.0381
 4276TIP3    H234244   2.188   3.959  15.160 -0.1643  0.0339 -1.4202
 4277TIP3   OH234245   2.166   3.539  15.780  0.2750 -0.4744 -0.4945
 4277TIP3    H134246   2.179   3.506  15.869 -1.2896 -1.2217 -0.4938
 4277TIP3    H234247   2.112   3.618  15.792  0.6256 -0.1950 -0.7459
 4278TIP3   OH234248   6.523   6.509  12.280 -0.4654 -0.6903 -0.3491
 4278TIP3    H134249   6.448   6.550  12.323 -0.4715 -1.2762  0.2186
 4278TIP3    H234250   6.484   6.440  12.225 -0.3123 -1.4178  0.4360
 4279TIP3   OH234251   0.438   6.288   5.572 -0.2354 -0.1959  0.3010
 4279TIP3    H134252   0.428   6.200   5.536 -0.1009 -0.4208  0.7966
 4279TIP3    H234253   0.407   6.347   5.503 -3.5960 -0.7636  1.1800
 4280TIP3   OH234254   0.688   6.605   1.942  0.7762  0.4483  0.2532
 4280TIP3    H134255   0.648   6.686   1.971 -0.0440 -0.0403  0.5138
 4280TIP3    H234256   0.702   6.618   1.848  0.9553  1.0110  0.3540
 4281TIP3   OH234257   3.612   1.480  13.656 -0.0047  0.3146  0.3419
 4281TIP3    H134258   3.535   1.453  13.706  0.1751  0.3994  0.6657
 4281TIP3    H234259   3.648   1.553  13.706 -1.0497  1.8392 -1.0086
 4282TIP3   OH234260   3.012   0.013  14.756  0.4718 -0.4675 -0.5653
 4282TIP3    H134261   2.934   0.003  14.811 -0.3288  0.0461 -1.5695
 4282TIP3    H234262   2.985   0.074  14.688  1.8764 -0.0073 -0.7321
 4283TIP3   OH234263   0.699   4.916  13.947 -0.4722  0.2141  0.6299
 4283TIP3    H134264   0.793   4.909  13.966 -0.4929 -0.1296  0.6165
 4283TIP3    H234265   0.658   4.922  14.034 -0.4237  0.5688  0.6304
 4284TIP3   OH234266   0.035   4.670  12.787 -0.2067  0.3319 -0.4790
 4284TIP3    H134267   0.129   4.686  12.784 -0.2583  0.5311 -1.1641
 4284TIP3    H234268  -0.002   4.749  12.825 -0.2592  0.9886 -1.8615
 4285TIP3   OH234269   0.480   6.269   5.842  0.3734  0.1142 -0.6766
 4285TIP3    H134270   0.517   6.347   5.884  2.6873 -0.3961 -1.6190
 4285TIP3    H234271   0.491   6.285   5.748 -3.0450  0.4397 -1.1660
 4286TIP3   OH234272   6.076   5.578   4.438  0.3569 -0.0463  0.5061
 4286TIP3    H134273   6.159   5.603   4.397  0.3919 -1.0050 -0.0539
 4286TIP3    H234274   6.079   5.482   4.439 -0.5637 -0.0756  0.8680
 4287TIP3   OH234275   6.696   1.136   5.242 -0.4339  0.3594  0.3555
 4287TIP3    H134276   6.713   1.213   5.296 -1.2574  1.6601 -1.1469
 4287TIP3    H234277   6.691   1.171   5.153  2.4645 -1.8649 -0.8587
 4288TIP3   OH234278   6.111   3.958  14.988  0.3256 -0.4213  0.0319
 4288TIP3    H134279   6.082   4.040  15.029  1.7355  0.0176  0.2037
 4288TIP3    H234280   6.124   3.981  14.896  1.2301 -0.2983  0.1816
 4289TIP3   OH234281   1.113   4.076   4.279 -0.2136  0.1936 -0.1882
 4289TIP3    H134282   1.124   4.170   4.267  0.3991  0.5294  2.5211
 4289TIP3    H234283   1.199   4.039   4.259 -0.3889  0.1983 -1.0087
 4290TIP3   OH234284   4.621   3.863  12.917 -0.0739  0.4855 -0.0860
 4290TIP3    H134285   4.680   3.825  12.852 -0.0552  0.2851  0.0486
 4290TIP3    H234286   4.666   3.942  12.947  0.7166 -0.3405  0.9423
 4291TIP3   OH234287   2.008   0.136   3.119 -0.2148 -0.1349  0.0702
 4291TIP3    H134288   1.921   0.113   3.086 -0.8882  2.4636 -0.1368
 4291TIP3    H234289   2.059   0.154   3.041  0.1561 -0.4112  0.2470
 4292TIP3   OH234290   4.648   2.727   0.493 -0.1347  0.3060  0.8085
 4292TIP3    H134291   4.578   2.757   0.551 -0.5818  0.5625  0.1504
 4292TIP3    H234292   4.711   2.799   0.492 -1.2606  1.3404 -0.8605
 4293TIP3   OH234293   0.015   5.159  13.100 -0.0252 -0.1358 -0.0995
 4293TIP3    H134294   0.081   5.128  13.162  0.5325  1.5693  0.2098
 4293TIP3    H234295  -0.001   5.250  13.126  0.5838  0.8173 -2.7525
 4294TIP3   OH234296   5.514   2.677  13.736  0.0504  1.2645 -0.3080
 4294TIP3    H134297   5.418   2.684  13.738  0.0919  1.7813  0.7094
 4294TIP3    H234298   5.531   2.588  13.709 -0.7114  1.4731 -1.5486
 4295TIP3   OH234299   4.538   1.821   2.014  0.2918 -0.5192 -0.4198
 4295TIP3    H134300   4.513   1.730   2.033  0.8043 -0.7690 -0.9036
 4295TIP3    H234301   4.634   1.819   2.009  0.3208  0.1061 -0.1483
 4296TIP3   OH234302   4.106   0.665  12.034  0.1695  0.0518  0.0164
 4296TIP3    H134303   4.151   0.660  12.118  0.5853  1.2300 -0.1254
 4296TIP3    H234304   4.014   0.679  12.057  0.3378  0.7610  0.2765
 4297TIP3   OH234305   1.627   3.323   3.984 -0.4048 -0.0296 -0.5313
 4297TIP3    H134306   1.662   3.340   4.071  0.6385 -0.6111 -0.8182
 4297TIP3    H234307   1.618   3.409   3.943  3.0582  0.1117 -1.3265
 4298TIP3   OH234308   3.079   3.513  15.330 -0.1058 -0.2832  0.9917
 4298TIP3    H134309   3.046   3.603  15.338  0.7806  0.0616  0.9067
 4298TIP3    H234310   3.103   3.488  15.419 -0.3690 -0.4466  1.0179
 4299TIP3   OH234311   4.913   3.364  15.140  0.2129 -0.8669 -0.0049
 4299TIP3    H134312   5.004   3.363  15.110  0.3155 -0.8446  0.3073
 4299TIP3    H234313   4.918   3.388  15.232 -0.1776  0.1389 -0.2323
 4300TIP3   OH234314   6.701   4.777   3.740  0.0572  0.1807  0.1851
 4300TIP3    H134315   6.622   4.724   3.728 -0.1810  0.5068  0.3169
 4300TIP3    H234316   6.675   4.866   3.717  0.1310  0.4608  1.1721
 4301TIP3   OH234317   1.241   4.931   1.317 -0.2519  0.2516  0.1622
 4301TIP3    H134318   1.310   4.929   1.251 -0.0115  0.1649  0.4116
 4301TIP3    H234319   1.159   4.925   1.268 -0.0528 -0.6026 -0.0789
 4302TIP3   OH234320   3.557   1.847  14.232  0.8453 -0.0472  0.4882
 4302TIP3    H134321   3.625   1.802  14.281  1.4720 -0.1502 -0.4392
 4302TIP3    H234322   3.486   1.860  14.294  1.2251 -1.0507  1.1466
 4303TIP3   OH234323   5.945   1.957  15.145  0.5209 -0.1344  0.0409
 4303TIP3    H134324   5.917   1.892  15.210 -1.1435  0.6486  0.1637
 4303TIP3    H234325   6.031   1.986  15.175 -0.4752  0.6849  2.2975
 4304TIP3   OH234326   4.922   4.805   1.470  0.3333 -0.3125  0.4205
 4304TIP3    H134327   4.900   4.720   1.432 -1.2653 -0.4031  1.4627
 4304TIP3    H234328   4.926   4.789   1.565  1.1564  0.5482  0.5515
 4305TIP3   OH234329   2.838   1.586  16.404 -0.2350 -0.3524  0.2131
 4305TIP3    H134330   2.899   1.608  16.334 -0.5532  0.6788  0.2483
 4305TIP3    H234331   2.861   1.496  16.429 -0.1448 -0.7497 -1.2372
 4306TIP3   OH234332   3.410   5.374  14.499  0.1322  0.0195  0.4514
 4306TIP3    H134333   3.454   5.440  14.553  0.4919  0.8281 -0.7836
 4306TIP3    H234334   3.448   5.386  14.412 -0.6292 -1.0731 -0.0453
 4307TIP3   OH234335   4.270   3.933  12.388 -0.0282 -0.0727 -0.1973
 4307TIP3    H134336   4.239   3.955  12.301  0.5567 -0.4696 -0.5102
 4307TIP3    H234337   4.269   3.837  12.391 -1.4840 -0.0670  0.7639
 4308TIP3   OH234338   3.081   1.633   5.696  0.3971 -0.2095  0.4457
 4308TIP3    H134339   3.166   1.660   5.729  1.5251  0.0664 -2.4455
 4308TIP3    H234340   3.089   1.539   5.683 -1.0609 -0.8873  3.5478
 4309TIP3   OH234341   1.227   2.727   4.814 -0.1631  0.1247  0.0348
 4309TIP3    H134342   1.305   2.707   4.866 -0.2962 -0.1512  0.1322
 4309TIP3    H234343   1.208   2.646   4.767  0.1438  0.4682 -0.6946
 4310TIP3   OH234344   5.521   6.369   3.252  0.3460 -0.0236 -0.7935
 4310TIP3    H134345   5.454   6.420   3.298  1.4988  0.7779  0.0557
 4310TIP3    H234346   5.473   6.324   3.182 -1.0307  0.7111 -0.3600
 4311TIP3   OH234347   6.090   2.193  13.965  0.0730  0.1092 -0.1213
 4311TIP3    H134348   6.116   2.109  14.004  2.2827  0.1099 -1.3752
 4311TIP3    H234349   6.021   2.226  14.022  0.4637 -1.6636  1.4987
 4312TIP3   OH234350   6.208   3.456   6.354  0.7153  0.2548  0.0891
 4312TIP3    H134351   6.302   3.476   6.357  1.0678 -0.7860 -1.9708
 4312TIP3    H234352   6.200   3.389   6.285 -1.2374 -1.5444  1.9065
 4313TIP3   OH234353   6.427   3.906   2.066  0.4999 -0.0587 -0.0686
 4313TIP3    H134354   6.371   3.961   2.011 -0.1547 -1.0594 -0.4306
 4313TIP3    H234355   6.455   3.964   2.137 -2.3081  0.0873  1.0474
 4314TIP3   OH234356   3.934   0.295  16.197  0.2367 -0.1547 -0.0499
 4314TIP3    H134357   3.971   0.383  16.193 -0.9245  0.3462 -0.3598
 4314TIP3    H234358   3.978   0.247  16.127  1.7280 -0.1835  0.8734
 4315TIP3   OH234359   3.444   0.909   2.821  0.3767  0.6465 -0.0515
 4315TIP3    H134360   3.450   0.854   2.899 -2.3962  0.5774  0.2249
 4315TIP3    H234361   3.530   0.951   2.814  1.0000 -0.0396  2.4907
 4316TIP3   OH234362   3.517   4.041  15.854 -0.1241 -0.2522 -0.0674
 4316TIP3    H134363   3.439   4.032  15.909 -0.5352  1.9114 -0.2383
 4316TIP3    H234364   3.486   4.083  15.774  0.7600 -1.8681 -1.3414
 4317TIP3   OH234365   2.327   4.235  16.252  0.5510  0.2066 -0.3128
 4317TIP3    H134366   2.234   4.255  16.255  0.7435  0.9999  1.6474
 4317TIP3    H234367   2.368   4.313  16.215  0.4382 -0.2837 -1.5287
 4318TIP3   OH234368   1.004   6.025  16.223  0.0309 -0.0582 -0.4134
 4318TIP3    H134369   0.988   6.094  16.159 -2.1184 -1.3857 -1.4360
 4318TIP3    H234370   0.936   5.960  16.205  1.6036 -2.1864  0.8674
 4319TIP3   OH234371   1.163   1.532  12.618  0.0635  0.7331 -0.0628
 4319TIP3    H134372   1.170   1.453  12.671 -0.0623 -0.2818 -1.5155
 4319TIP3    H234373   1.192   1.602  12.676  0.4318 -0.4045  1.1716
 4320TIP3   OH234374   2.153   2.261   5.691 -0.0056 -0.0231 -0.2099
 4320TIP3    H134375   2.200   2.198   5.636 -0.5704  1.3524 -2.4291
 4320TIP3    H234376   2.209   2.272   5.768  2.0757 -0.2934 -1.6047
 4321TIP3   OH234377   0.599   1.759   1.743  0.1256  0.5910 -0.7024
 4321TIP3    H134378   0.653   1.726   1.671 -0.4463  0.4018 -1.0483
 4321TIP3    H234379   0.513   1.775   1.703 -0.4382 -0.2986  0.1120
 4322TIP3   OH234380   3.756   5.812   4.896  0.4131 -0.3609  0.1777
 4322TIP3    H134381   3.732   5.726   4.931  0.8894 -0.5965 -0.0665
 4322TIP3    H234382   3.693   5.828   4.825  0.5356 -0.6628 -0.0011
 4323TIP3   OH234383   3.921   2.000   3.978  0.4025  0.3352 -0.3881
 4323TIP3    H134384   3.848   2.004   3.916 -1.4828 -0.9684  1.5879
 4323TIP3    H234385   3.949   1.908   3.976  0.9562  0.4906 -0.0167
 4324TIP3   OH234386   3.514   6.536  15.333  0.7590  0.2601  0.2940
 4324TIP3    H134387   3.557   6.464  15.287 -2.7539 -0.4095 -2.3237
 4324TIP3    H234388   3.529   6.613  15.278 -1.6029 -0.0841 -0.9248
 4325TIP3   OH234389   4.463   1.923   6.087  0.4873 -0.9727 -0.3615
 4325TIP3    H134390   4.515   1.999   6.062  1.5759 -2.0375 -1.4868
 4325TIP3    H234391   4.375   1.943   6.056  0.7491 -0.1669 -0.6194
 4326TIP3   OH234392   6.031   3.093   0.592 -0.3236  0.4908  0.6937
 4326TIP3    H134393   6.046   3.110   0.685 -0.8632 -2.0994  1.3220
 4326TIP3    H234394   5.936   3.083   0.585 -0.2782  0.5673 -0.1338
 4327TIP3   OH234395   3.106   6.378   3.220 -0.6713 -0.4119  0.7172
 4327TIP3    H134396   3.013   6.374   3.199 -0.9100 -2.2845  1.8831
 4327TIP3    H234397   3.128   6.290   3.251  2.0952 -0.8098 -1.8813
 4328TIP3   OH234398   3.198   5.780   2.700 -0.4958 -0.4725  0.4569
 4328TIP3    H134399   3.260   5.711   2.675 -0.4292 -0.6834  1.1799
 4328TIP3    H234400   3.253   5.851   2.733 -0.3540  1.0768 -2.7554
 4329TIP3   OH234401   3.322   5.075  13.850  0.4462 -0.0311  0.2158
 4329TIP3    H134402   3.299   5.066  13.758  0.8096  1.6049 -0.0618
 4329TIP3    H234403   3.275   5.004  13.894 -2.2438  0.9860 -0.8031
 4330TIP3   OH234404   3.782   0.874  14.801  0.0280  0.2566 -0.5554
 4330TIP3    H134405   3.710   0.900  14.743 -0.1001 -1.1885 -1.0929
 4330TIP3    H234406   3.859   0.873  14.744 -0.1354 -1.3717 -0.7984
 4331TIP3   OH234407   0.392   5.744  13.275  0.1489 -0.3226  0.0715
 4331TIP3    H134408   0.478   5.782  13.295  0.0649  0.7471 -1.5364
 4331TIP3    H234409   0.334   5.780  13.342  0.7652 -0.3750  0.6490
 4332TIP3   OH234410   4.776   6.628   3.314  0.6571  0.4389 -1.3522
 4332TIP3    H134411   4.769   6.704   3.373  0.1808  0.9932 -2.0973
 4332TIP3    H234412   4.703   6.572   3.339  2.7024 -1.2898  1.2239
 4333TIP3   OH234413   2.809   4.661  15.180 -0.5167  0.0041  0.2068
 4333TIP3    H134414   2.895   4.660  15.222 -1.0269 -0.4375  1.2724
 4333TIP3    H234415   2.766   4.582  15.211 -1.4482  0.4062 -0.0235
 4334TIP3   OH234416   0.297   3.310  12.750 -0.7509 -0.1170 -0.0879
 4334TIP3    H134417   0.264   3.367  12.819  1.5608  1.3049 -0.0569
 4334TIP3    H234418   0.367   3.260  12.793  0.2052  0.2440 -1.2007
 4335TIP3   OH234419   1.264   0.286   0.935  0.0667 -0.6002 -0.1351
 4335TIP3    H134420   1.270   0.248   1.023  0.3821 -1.1218 -0.3808
 4335TIP3    H234421   1.171   0.301   0.921 -0.0445 -1.1516  0.0155
 4336TIP3   OH234422   5.163   6.249   2.652 -0.0311 -0.0249 -0.1758
 4336TIP3    H134423   5.120   6.281   2.732  1.4733 -0.4098  0.8450
 4336TIP3    H234424   5.254   6.233   2.679  0.6868  0.4525 -2.1516
 4337TIP3   OH234425   0.109   2.039   5.414 -0.3652  0.8082 -0.1312
 4337TIP3    H134426   0.170   2.099   5.458  0.5491  0.3205 -0.7007
 4337TIP3    H234427   0.027   2.088   5.410 -0.5136  0.8731  2.1384
 4338TIP3   OH234428   6.176   3.563   2.786 -0.1587  0.6458  0.1132
 4338TIP3    H134429   6.139   3.579   2.700  0.8012  0.6139 -0.3239
 4338TIP3    H234430   6.238   3.636   2.799 -1.5190  1.6100  1.5118
 4339TIP3   OH234431   2.967   4.879  14.061  0.5002  0.0964  0.5810
 4339TIP3    H134432   3.061   4.881  14.076  0.4819  1.8690  0.7420
 4339TIP3    H234433   2.955   4.923  13.976 -0.1129 -1.0371  0.0671
 4340TIP3   OH234434   1.433   5.839   6.329  0.1145 -0.4542 -0.1908
 4340TIP3    H134435   1.506   5.778   6.319 -0.6389 -1.0596 -2.8021
 4340TIP3    H234436   1.452   5.909   6.266 -0.6062  0.3924  0.5063
 4341TIP3   OH234437   5.020   4.966  15.966  0.0710  0.3380 -0.0346
 4341TIP3    H134438   5.101   4.945  16.014  0.8482  3.2730  0.0893
 4341TIP3    H234439   5.039   4.940  15.876  0.7223 -0.0186  0.1975
 4342TIP3   OH234440   2.225   3.522  14.271 -0.1493 -0.9823  0.2182
 4342TIP3    H134441   2.234   3.454  14.205 -1.0872 -1.5184  0.6258
 4342TIP3    H234442   2.139   3.561  14.254  1.1714  1.5519 -1.3319
 4343TIP3   OH234443   5.950   1.872  16.890  0.7598  0.3597 -0.0234
 4343TIP3    H134444   6.021   1.814  16.917 -1.8873 -1.4750  3.9211
 4343TIP3    H234445   5.920   1.912  16.971 -2.9712  0.6212 -1.3486
 4344TIP3   OH234446   2.038   5.844   2.164 -0.3719 -0.0807 -0.0374
 4344TIP3    H134447   2.030   5.837   2.260  0.8071  1.1203  0.1785
 4344TIP3    H234448   2.014   5.934   2.145 -0.2387 -0.2154 -0.8501
 4345TIP3   OH234449   1.176   5.874  14.137 -0.0584 -0.6202  1.0593
 4345TIP3    H134450   1.223   5.953  14.163 -1.7327  0.5006  0.8422
 4345TIP3    H234451   1.113   5.859  14.207 -0.6402 -0.9936  0.4720
 4346TIP3   OH234452   4.814   0.275   2.503  0.3707 -0.0996 -1.2659
 4346TIP3    H134453   4.838   0.190   2.542 -1.9436  0.3861  1.6033
 4346TIP3    H234454   4.733   0.257   2.455 -1.2470  0.7221  0.9997
 4347TIP3   OH234455   0.617   5.941  11.367  0.5028  0.4272  0.2259
 4347TIP3    H134456   0.693   5.925  11.312  0.2833 -0.4842  0.1855
 4347TIP3    H234457   0.546   5.894  11.325  0.6355 -1.5404  2.0565
 4348TIP3   OH234458   3.381   5.912   4.495 -0.1366 -0.2698  0.0241
 4348TIP3    H134459   3.322   5.857   4.445 -0.5606 -0.1314  0.3619
 4348TIP3    H234460   3.449   5.937   4.434 -0.0041 -1.0725 -0.1644
 4349TIP3   OH234461   2.101   5.465   1.957  0.1212  0.1169  0.0105
 4349TIP3    H134462   2.137   5.554   1.956  1.1082 -0.2332  1.4029
 4349TIP3    H234463   2.162   5.415   2.011 -1.3717 -0.9868  0.7491
 4350TIP3   OH234464   5.587   0.741  15.650 -0.4268  0.0931 -0.6480
 4350TIP3    H134465   5.591   0.652  15.615 -2.7689 -0.3664  0.0780
 4350TIP3    H234466   5.657   0.744  15.716  0.3546 -0.8581 -1.4092
 4351TIP3   OH234467   6.471   5.765   0.249  0.2752  0.6499  0.0864
 4351TIP3    H134468   6.527   5.688   0.256 -0.5742  0.1477  2.0218
 4351TIP3    H234469   6.472   5.788   0.156  2.3294 -0.3326 -0.1715
 4352TIP3   OH234470   0.590   0.698  11.431  0.2364 -0.0863  0.2163
 4352TIP3    H134471   0.683   0.680  11.443  0.5700 -1.2183 -2.9696
 4352TIP3    H234472   0.586   0.746  11.348 -1.9231  1.6128  1.2136
 4353TIP3   OH234473   0.564   1.804   4.121 -0.0217 -0.1070 -0.1047
 4353TIP3    H134474   0.628   1.768   4.181 -1.8329 -3.4731  0.0248
 4353TIP3    H234475   0.614   1.830   4.044  1.9127  1.2348  1.5117
 4354TIP3   OH234476   3.301   1.170  15.924 -0.3251 -0.1019 -0.0556
 4354TIP3    H134477   3.295   1.263  15.946 -0.3574  0.0428 -0.6411
 4354TIP3    H234478   3.391   1.157  15.897 -0.3120 -0.2493  0.0592
 4355TIP3   OH234479   4.096   4.699   2.665 -0.0268 -0.2516  0.2206
 4355TIP3    H134480   4.055   4.695   2.751  1.1758  0.9212  0.8892
 4355TIP3    H234481   4.129   4.611   2.650 -0.1941 -0.4536  0.9956
 4356TIP3   OH234482   2.291   2.027  11.149  0.3165  0.4092 -0.5874
 4356TIP3    H134483   2.369   2.073  11.180 -0.1153  0.8819 -0.1858
 4356TIP3    H234484   2.221   2.056  11.207  0.1953 -1.4714  0.2973
 4357TIP3   OH234485   4.131   5.383  16.469  0.5722  0.5323 -0.4015
 4357TIP3    H134486   4.105   5.311  16.527 -0.5185  1.0370 -0.2335
 4357TIP3    H234487   4.222   5.400  16.493  0.3479  0.2862  0.7152
 4358TIP3   OH234488   1.368   0.213   5.557  0.9654 -0.0951  0.6915
 4358TIP3    H134489   1.424   0.197   5.633 -1.0345  3.3389  3.1913
 4358TIP3    H234490   1.379   0.307   5.539 -0.6471 -0.2669 -1.6071
 4359TIP3   OH234491   6.479   3.475  16.134 -0.4038  0.2276 -0.4294
 4359TIP3    H134492   6.558   3.429  16.159 -0.9112  0.0037  0.8283
 4359TIP3    H234493   6.436   3.418  16.071 -0.0749 -0.1153 -0.3422
 4360TIP3   OH234494   6.236   1.560  12.967  0.1723  0.1207  0.1954
 4360TIP3    H134495   6.235   1.636  13.025 -0.8655  0.1014  0.2198
 4360TIP3    H234496   6.159   1.510  12.992 -0.2381  0.0526 -1.1128
 4361TIP3   OH234497   0.893   1.314   0.502  0.2460 -0.2704 -0.4038
 4361TIP3    H134498   0.977   1.272   0.488  0.3156 -0.2276 -0.1321
 4361TIP3    H234499   0.915   1.405   0.523  0.2383 -0.6190  1.2554
 4362TIP3   OH234500   1.476   2.476  11.762  0.2736  0.1909 -0.0426
 4362TIP3    H134501   1.433   2.561  11.769  2.2686  1.3063 -0.4974
 4362TIP3    H234502   1.407   2.413  11.781 -2.2943  1.6575 -3.4473
 4363TIP3   OH234503   6.427   4.339   2.673 -0.6834 -0.1735  0.1679
 4363TIP3    H134504   6.485   4.409   2.702 -1.3347 -0.4396  2.3191
 4363TIP3    H234505   6.400   4.295   2.754 -1.2268 -2.1766 -1.0125
 4364TIP3   OH234506   0.857   0.315  13.784  0.4158 -0.2042 -0.1465
 4364TIP3    H134507   0.843   0.235  13.835  2.7771  0.2258  1.3072
 4364TIP3    H234508   0.882   0.285  13.697  2.5712 -1.1445  0.7394
 4365TIP3   OH234509   1.099   2.385   3.193  0.3357  0.0921  0.0691
 4365TIP3    H134510   1.066   2.455   3.250 -0.1351 -0.6531  0.7301
 4365TIP3    H234511   1.098   2.307   3.248  0.8525 -0.4424 -0.6650
 4366TIP3   OH234512   1.882   3.882   5.792  0.3358  0.1847 -0.5161
 4366TIP3    H134513   1.805   3.863   5.738  1.0042 -0.4234 -1.2656
 4366TIP3    H234514   1.850   3.874   5.882 -0.3902 -0.4524 -0.8151
 4367TIP3   OH234515   6.361   2.374  16.010  0.7180  0.1137 -0.0990
 4367TIP3    H134516   6.274   2.391  15.975  1.2403 -0.2720 -1.6714
 4367TIP3    H234517   6.358   2.282  16.037  0.5153  0.2103  0.2005
 4368TIP3   OH234518   1.051   1.602  16.888  0.1693  0.4155 -0.1274
 4368TIP3    H134519   1.112   1.544  16.935 -1.4796 -0.2904  1.2531
 4368TIP3    H234520   1.013   1.546  16.820  0.4744  0.6430 -0.4909
 4369TIP3   OH234521   3.611   1.375   0.369  0.1347 -0.2667  0.2243
 4369TIP3    H134522   3.583   1.335   0.451 -1.8223 -0.0821 -0.3187
 4369TIP3    H234523   3.549   1.343   0.304  1.5696 -0.3004 -1.1812
 4370TIP3   OH234524   3.443   4.129   4.059 -0.2472  0.4765  0.1969
 4370TIP3    H134525   3.520   4.168   4.018 -0.7243  0.5584 -0.6525
 4370TIP3    H234526   3.395   4.088   3.987 -0.1233 -1.1034  0.9634
 4371TIP3   OH234527   3.279   2.121   3.393 -0.1586  0.0796  0.2496
 4371TIP3    H134528   3.342   2.061   3.353  1.2000  0.9718  0.9715
 4371TIP3    H234529   3.258   2.082   3.478 -1.9762 -1.1021 -0.6710
 4372TIP3   OH234530   4.158   5.557   1.311 -0.7432  0.4621 -0.3035
 4372TIP3    H134531   4.167   5.604   1.228  1.0978  1.1617  0.2357
 4372TIP3    H234532   4.248   5.540   1.339 -1.3469 -1.5883  0.5579
 4373TIP3   OH234533   2.348   0.389   0.029 -0.0915 -0.2824 -0.4967
 4373TIP3    H134534   2.395   0.411  -0.051  1.6365 -1.3984  0.1614
 4373TIP3    H234535   2.266   0.349  -0.001 -0.3023  0.9839 -1.6726
 4374TIP3   OH234536   4.564   4.672   2.190  0.5122 -0.0397 -0.2402
 4374TIP3    H134537   4.514   4.711   2.118  0.8076  2.4523  0.8286
 4374TIP3    H234538   4.651   4.658   2.152 -0.0126 -1.2233 -1.0942
 4375TIP3   OH234539   2.018   6.686   5.593  0.1221  0.0113  0.2754
 4375TIP3    H134540   1.940   6.657   5.641  0.8718 -2.9664 -0.0984
 4375TIP3    H234541   2.091   6.653   5.645  1.0997  0.8048 -0.5496
 4376TIP3   OH234542   0.027   1.706  16.960 -0.4566  0.1846 -0.6284
 4376TIP3    H134543   0.065   1.650  17.027  1.3777  1.7569 -0.2500
 4376TIP3    H234544  -0.006   1.782  17.009 -2.0768 -0.1010 -1.2118
 4377TIP3   OH234545   4.766   0.557   5.722 -0.0904  0.5129  0.5027
 4377TIP3    H134546   4.731   0.478   5.764  1.0367 -1.3992 -1.9301
 4377TIP3    H234547   4.766   0.623   5.792 -0.3834 -1.8222  2.8722
 4378TIP3   OH234548   6.426   6.180  10.893  0.2688 -0.4325  1.0977
 4378TIP3    H134549   6.449   6.088  10.902  2.2047 -0.1440 -0.2943
 4378TIP3    H234550   6.448   6.202  10.802 -0.3838  1.3402  1.3221
 4379TIP3   OH234551   4.009   2.251  11.141  0.1600 -0.2955 -0.0474
 4379TIP3    H134552   4.037   2.318  11.080  0.3269 -2.3803 -2.4291
 4379TIP3    H234553   3.916   2.269  11.156 -0.3746 -0.7480 -2.4453
 4380TIP3   OH234554   4.196   4.818  15.114 -0.7615  0.0569  0.3214
 4380TIP3    H134555   4.255   4.813  15.190 -0.0934 -0.0440 -0.1948
 4380TIP3    H234556   4.205   4.733  15.072 -1.4082 -0.0155  0.3276
 4381TIP3   OH234557   3.852   2.137   5.019  0.7572  0.4873 -0.4468
 4381TIP3    H134558   3.767   2.178   5.006 -0.3480 -0.2579  3.2765
 4381TIP3    H234559   3.836   2.044   5.003  0.7072  0.2835  0.7245
 4382TIP3   OH234560   6.671   0.768  16.472 -0.8074 -0.5833  0.5731
 4382TIP3    H134561   6.702   0.795  16.386  0.1422 -2.5166  0.2375
 4382TIP3    H234562   6.691   0.842  16.529  1.3731 -0.4082 -0.3128
 4383TIP3   OH234563   2.467   3.239  14.605  0.0522 -0.4788  0.7359
 4383TIP3    H134564   2.392   3.192  14.568 -1.4595  2.4722 -0.2910
 4383TIP3    H234565   2.440   3.260  14.694  0.2806 -0.6933  0.8552
 4384TIP3   OH234566   0.264   6.649   2.489 -0.2448 -0.0480 -0.3836
 4384TIP3    H134567   0.340   6.689   2.531  1.0124  0.9451 -3.3230
 4384TIP3    H234568   0.285   6.555   2.487  1.2490  0.2696 -1.6479
 4385TIP3   OH234569   1.741   3.774   0.451 -0.1855  0.1830 -0.5244
 4385TIP3    H134570   1.703   3.840   0.508 -2.3565 -1.7041  0.3966
 4385TIP3    H234571   1.794   3.719   0.509 -0.8282 -0.6117 -0.6726
 4386TIP3   OH234572   0.265   3.510   4.585  0.5677  0.2905  0.0290
 4386TIP3    H134573   0.280   3.605   4.584 -0.8063  0.5339 -0.0831
 4386TIP3    H234574   0.290   3.480   4.498  2.1934  0.3288  0.4596
 4387TIP3   OH234575   2.565   0.796  15.134  0.4478  0.1529  0.3081
 4387TIP3    H134576   2.635   0.807  15.198 -0.3223 -3.3817  1.9703
 4387TIP3    H234577   2.608   0.757  15.058  0.9254  2.1023 -0.5011
 4388TIP3   OH234578   3.874   3.371  10.059  0.4364 -0.1538 -0.4435
 4388TIP3    H134579   3.813   3.433  10.020  0.7388  0.6257  0.2842
 4388TIP3    H234580   3.828   3.287  10.056 -1.1450  0.5896  1.0781
 4389TIP3   OH234581   4.502   0.409  12.783 -0.0022 -0.1067  0.2401
 4389TIP3    H134582   4.421   0.455  12.765  1.1950  1.7742 -0.6821
 4389TIP3    H234583   4.571   0.474  12.767  1.7493 -1.9490 -0.1944
 4390TIP3   OH234584   4.826   3.510   1.532 -0.3587  0.6725  0.1111
 4390TIP3    H134585   4.763   3.473   1.594 -2.1032  2.8787 -0.2548
 4390TIP3    H234586   4.888   3.559   1.586 -0.4062  0.5523  0.2746
 4391TIP3   OH234587   3.830   6.413  13.384  0.4167  0.2583  0.1770
 4391TIP3    H134588   3.889   6.342  13.407  1.2812  1.1108  0.6481
 4391TIP3    H234589   3.745   6.386  13.418 -0.2427 -2.3303 -2.9595
 4392TIP3   OH234590   6.644   1.535   2.125  0.6250  0.3461  0.4263
 4392TIP3    H134591   6.657   1.474   2.198  0.6143 -0.1566  0.0102
 4392TIP3    H234592   6.589   1.604   2.161  0.5154  0.0338  0.8596
 4393TIP3   OH234593   5.788   3.417   0.126  0.1423  0.1398  0.3091
 4393TIP3    H134594   5.730   3.392   0.197 -3.3223  1.5277 -1.8044
 4393TIP3    H234595   5.806   3.334   0.080 -0.0458 -0.3125  1.0314
 4394TIP3   OH234596   2.465   4.972   0.163 -0.3298 -0.0523 -0.1239
 4394TIP3    H134597   2.418   5.054   0.148 -0.5536  0.5176  3.0003
 4394TIP3    H234598   2.428   4.911   0.099 -2.0738  1.5744 -0.7700
 4395TIP3   OH234599   6.182   6.428   2.573  0.3488  0.4269  0.1949
 4395TIP3    H134600   6.238   6.366   2.619  0.7663  1.4637  1.1580
 4395TIP3    H234601   6.122   6.460   2.640  0.7311  1.7041 -0.0425
 4396TIP3   OH234602   3.304   0.327  13.960 -0.2032 -0.0980  0.3702
 4396TIP3    H134603   3.359   0.367  13.893  0.3490  0.8985  1.3881
 4396TIP3    H234604   3.365   0.286  14.021 -0.5918  0.4366  1.1432
 4397TIP3   OH234605   2.314   4.810   5.799  0.0729  0.2342 -0.0936
 4397TIP3    H134606   2.354   4.807   5.886 -1.4729 -0.4678  0.6308
 4397TIP3    H234607   2.385   4.788   5.739  0.8799 -0.5362  1.1007
 4398TIP3   OH234608   5.184   2.182   4.956 -0.5097 -0.0753  0.5659
 4398TIP3    H134609   5.120   2.142   5.014 -0.2534 -0.5230  0.5430
 4398TIP3    H234610   5.228   2.108   4.914 -0.6101  0.2373 -0.1055
 4399TIP3   OH234611   3.043   6.092   1.977  0.5198 -0.0511  0.1347
 4399TIP3    H134612   3.003   6.008   1.997  1.3359 -0.1646  1.4110
 4399TIP3    H234613   3.113   6.071   1.914 -2.0238  0.3028 -3.0698
 4400TIP3   OH234614   6.514   2.510  12.810  0.2037  0.4227  1.0117
 4400TIP3    H134615   6.596   2.462  12.810 -0.1996 -0.3340 -1.0294
 4400TIP3    H234616   6.449   2.446  12.839  0.0029  0.3612  0.4341
 4401TIP3   OH234617   1.916   3.824  16.839 -0.2289  0.3956  0.6696
 4401TIP3    H134618   1.881   3.840  16.751  2.7662  2.1249 -0.3584
 4401TIP3    H234619   1.880   3.740  16.864 -1.4966  0.0122 -2.0656
 4402TIP3   OH234620   3.209   6.744  15.789  0.4161 -0.2433 -0.2127
 4402TIP3    H134621   3.168   6.824  15.756 -0.4270  0.0549  1.4520
 4402TIP3    H234622   3.303   6.762  15.785  0.2803  0.3636 -0.9508
 4403TIP3   OH234623   2.209   1.349  11.097  0.0402  0.5667  0.9362
 4403TIP3    H134624   2.262   1.375  11.172 -2.2988 -0.8043  3.2078
 4403TIP3    H234625   2.194   1.431  11.049  2.5386  1.2864  1.2261
 4404TIP3   OH234626   2.475   1.698   5.404 -0.2257 -0.6356 -0.0080
 4404TIP3    H134627   2.557   1.676   5.359 -0.6796 -0.3404 -1.0164
 4404TIP3    H234628   2.502   1.742   5.484  0.6088 -0.5892 -0.3085
 4405TIP3   OH234629   1.821   1.359  12.777  0.1175 -1.4740 -0.5635
 4405TIP3    H134630   1.907   1.380  12.814  0.6532 -1.1944 -1.9230
 4405TIP3    H234631   1.800   1.273  12.812  0.3330 -0.9817  0.8393
 4406TIP3   OH234632   5.307   6.490   2.982 -0.1440  0.2772 -0.2689
 4406TIP3    H134633   5.241   6.511   2.916 -0.2331  1.4845  0.1891
 4406TIP3    H234634   5.348   6.410   2.950 -1.9946 -0.6648 -0.4449
 4407TIP3   OH234635   3.067   5.148   5.421  0.8687 -0.0528 -0.1606
 4407TIP3    H134636   3.088   5.237   5.450 -1.1301  0.5018 -0.2725
 4407TIP3    H234637   3.019   5.110   5.494  1.4550 -0.9518 -0.2357
 4408TIP3   OH234638   2.520   2.562   1.893  0.3233  0.2460 -0.3839
 4408TIP3    H134639   2.471   2.480   1.894 -1.6450  1.3219 -1.7710
 4408TIP3    H234640   2.557   2.567   1.804  1.1597  0.4673 -0.0350
 4409TIP3   OH234641   3.668   2.775   3.776 -0.6081 -1.2558  0.2094
 4409TIP3    H134642   3.715   2.692   3.786  1.1497 -0.6522 -2.1307
 4409TIP3    H234643   3.581   2.749   3.745 -0.6797 -2.2858  1.2154
 4410TIP3   OH234644   3.960   5.378  13.280  0.1197  0.2163 -0.2680
 4410TIP3    H134645   4.048   5.403  13.308  0.4359 -0.4083 -0.6772
 4410TIP3    H234646   3.928   5.322  13.350 -0.6015  1.7397  0.6655
 4411TIP3   OH234647   6.038   1.708   2.371  0.4367  0.5847 -0.2075
 4411TIP3    H134648   6.119   1.757   2.364 -0.1858  1.7327  0.3796
 4411TIP3    H234649   5.969   1.769   2.345 -0.5915  0.8230  2.7070
 4412TIP3   OH234650   0.330   5.777   1.549 -0.5039 -0.2374  0.4747
 4412TIP3    H134651   0.305   5.707   1.609 -3.1999  1.0824  1.0704
 4412TIP3    H234652   0.294   5.750   1.464  1.0803 -0.9156 -0.0105
 4413TIP3   OH234653   4.363   2.172   4.060  0.2306  0.6404 -0.0978
 4413TIP3    H134654   4.359   2.170   3.964 -0.4545  2.6349 -0.1496
 4413TIP3    H234655   4.425   2.103   4.083  0.9358  0.5842 -2.0116
 4414TIP3   OH234656   4.082   6.736  14.722  0.1062  0.2643 -0.3730
 4414TIP3    H134657   4.017   6.676  14.759 -1.3063  1.0877 -1.4271
 4414TIP3    H234658   4.127   6.773  14.798 -0.2696 -0.7373  0.3531
 4415TIP3   OH234659   3.794   0.488   3.278 -0.3070  0.6632  0.6123
 4415TIP3    H134660   3.859   0.468   3.211  1.0821  0.6120  1.9090
 4415TIP3    H234661   3.827   0.445   3.357 -1.3350  1.5767  1.5842
 4416TIP3   OH234662   0.616   5.989  15.595  0.2139  0.6347 -0.5187
 4416TIP3    H134663   0.693   6.018  15.547  0.5347  2.8111  1.1480
 4416TIP3    H234664   0.560   6.066  15.601 -2.3084 -0.9284 -1.8889
 4417TIP3   OH234665   3.443   5.967   0.086  0.2891  0.8082  0.4462
 4417TIP3    H134666   3.485   5.881   0.089  0.6710  1.0013  0.8393
 4417TIP3    H234667   3.350   5.948   0.075  0.5047  0.3788 -0.8141
 4418TIP3   OH234668   1.018   5.652   4.621 -0.1611 -0.4485 -0.3455
 4418TIP3    H134669   0.950   5.655   4.553 -0.8683  3.2741  0.2909
 4418TIP3    H234670   0.969   5.655   4.704  0.7366 -0.5618  0.2050
 4419TIP3   OH234671   5.367   4.269   4.352 -0.8871 -0.0296 -0.5169
 4419TIP3    H134672   5.414   4.270   4.435 -1.3355  0.1344 -0.2642
 4419TIP3    H234673   5.275   4.270   4.376 -1.1212 -3.3074 -0.9265
 4420TIP3   OH234674   1.906   2.383   1.810 -0.1779 -0.2952  0.6372
 4420TIP3    H134675   1.831   2.410   1.862  0.3915  0.1196  1.2642
 4420TIP3    H234676   1.979   2.435   1.844  0.0784  0.5559 -1.0785
 4421TIP3   OH234677   0.364   3.896   1.900  0.1196 -0.1394  0.3845
 4421TIP3    H134678   0.445   3.934   1.934 -0.2936  1.2231 -0.0808
 4421TIP3    H234679   0.380   3.802   1.900  1.0736 -0.0260  1.9089
 4422TIP3   OH234680   1.062   3.160   1.225 -0.7779  0.2991  0.3154
 4422TIP3    H134681   1.003   3.197   1.159 -1.0307 -0.8945 -0.1527
 4422TIP3    H234682   1.043   3.066   1.223  0.2890  0.0616  1.0270
 4423TIP3   OH234683   5.061   3.139  13.685  0.0139  0.1784 -0.6597
 4423TIP3    H134684   5.054   3.224  13.643 -1.6888  0.2744 -0.2478
 4423TIP3    H234685   5.074   3.159  13.778  2.7174 -0.0402 -0.9094
 4424TIP3   OH234686   4.375   3.167  13.490 -0.2074 -0.0108 -0.0955
 4424TIP3    H134687   4.337   3.222  13.559  1.6678 -1.1001  1.9241
 4424TIP3    H234688   4.449   3.218  13.457  0.5764 -0.6351  0.6722
 4425TIP3   OH234689   4.796   0.648  13.297  0.1760 -0.2155  0.5217
 4425TIP3    H134690   4.713   0.640  13.346  0.4722 -1.2326  0.8894
 4425TIP3    H234691   4.832   0.732  13.324 -0.8699  0.3668  0.1498
 4426TIP3   OH234692   0.184   0.465   5.271 -0.8137  0.3421 -0.2157
 4426TIP3    H134693   0.218   0.506   5.191 -0.3607  0.6771  0.1416
 4426TIP3    H234694   0.171   0.373   5.247  0.4848  0.1640 -0.3385
 4427TIP3   OH234695   4.506   3.388   5.035  0.4242 -1.2263 -0.4293
 4427TIP3    H134696   4.444   3.340   5.089  2.0720 -3.0562 -0.0569
 4427TIP3    H234697   4.536   3.459   5.090 -3.7460  1.9879 -1.7244
 4428TIP3   OH234698   0.882   1.748  14.959  0.1531  0.0536  0.7555
 4428TIP3    H134699   0.856   1.831  14.919 -0.3199 -0.1742  0.5809
 4428TIP3    H234700   0.873   1.683  14.889  2.4784  0.1560  0.3005
 4429TIP3   OH234701   4.397   0.527   2.038 -0.0464  0.3850  0.0848
 4429TIP3    H134702   4.406   0.545   1.945  0.6937 -1.4643 -0.2313
 4429TIP3    H234703   4.325   0.464   2.044 -0.1324  0.5370  0.7695
 4430TIP3   OH234704   1.026   2.136   1.019 -0.0625 -0.3899  0.2979
 4430TIP3    H134705   1.061   2.166   0.935 -1.0875 -0.8128 -0.3029
 4430TIP3    H234706   1.103   2.114   1.071  0.6615  1.3721  0.0555
 4431TIP3   OH234707   5.011   4.918  16.347  0.3554  0.0950  0.4492
 4431TIP3    H134708   4.955   4.989  16.317 -0.3980 -0.5136  0.3697
 4431TIP3    H234709   4.952   4.861  16.397  0.5653 -1.2767 -0.7938
 4432TIP3   OH234710   2.332   5.193   0.125 -0.2062  0.0202 -0.1704
 4432TIP3    H134711   2.368   5.281   0.137  0.6636 -0.1606 -1.2579
 4432TIP3    H234712   2.237   5.207   0.115 -0.5182  0.5009  2.7508
 4433TIP3   OH234713   1.232   4.038  14.440 -0.1380  0.0772 -0.2691
 4433TIP3    H134714   1.316   4.034  14.485 -0.8544 -2.5412  1.0262
 4433TIP3    H234715   1.167   4.045  14.510 -1.0846  1.1033 -1.1983
 4434TIP3   OH234716   3.127   4.569  16.252  0.0084 -0.2857  0.2977
 4434TIP3    H134717   3.143   4.476  16.263  1.6025 -0.1126 -0.2998
 4434TIP3    H234718   3.202   4.612  16.293  0.5232  0.6389 -1.4990
 4435TIP3   OH234719   2.060   1.465  17.022  0.0441 -0.4163  0.0593
 4435TIP3    H134720   1.994   1.503  16.964 -0.8672  0.0716  1.3550
 4435TIP3    H234721   2.143   1.481  16.978 -0.6577 -0.6042 -1.3830
 4436TIP3   OH234722   0.305   1.457  11.950  0.2686  0.0767 -0.3941
 4436TIP3    H134723   0.382   1.401  11.955  0.0631 -0.0584  2.8241
 4436TIP3    H234724   0.340   1.544  11.928  1.4932  0.1564  1.6434
 4437TIP3   OH234725   1.023   0.708   1.696  0.3341  0.3098 -0.1132
 4437TIP3    H134726   1.005   0.802   1.699  0.1447  0.2907 -0.6206
 4437TIP3    H234727   1.118   0.703   1.684  0.1927  0.4557 -1.3653
 4438TIP3   OH234728   3.052   0.930  13.799 -0.0968 -0.3299  0.2065
 4438TIP3    H134729   3.062   1.014  13.844 -2.1257  0.5311 -0.8477
 4438TIP3    H234730   2.987   0.883  13.850 -0.0985 -0.6307 -0.0705
 4439TIP3   OH234731   4.001   4.671  16.788  0.1597  0.0685 -0.4576
 4439TIP3    H134732   4.002   4.689  16.694  0.7966  0.8372 -0.3177
 4439TIP3    H234733   4.055   4.740  16.826  0.5674 -0.6957  0.3896
 4440TIP3   OH234734   2.468   1.051  14.456  0.1617  0.1434 -0.1607
 4440TIP3    H134735   2.552   1.012  14.433 -0.0922 -1.9908  2.1039
 4440TIP3    H234736   2.403   0.992  14.418 -0.3963  1.5720 -1.5640
 4441TIP3   OH234737   6.652   0.553  14.303  0.2415 -0.0201 -0.4614
 4441TIP3    H134738   6.632   0.647  14.309  2.0724  0.4120 -0.5024
 4441TIP3    H234739   6.707   0.536  14.380  1.2812 -0.6734 -1.3350
 4442TIP3   OH234740   2.636   1.700   5.702  0.0622 -0.0448  0.2302
 4442TIP3    H134741   2.600   1.748   5.776 -0.1690  0.5708 -0.2675
 4442TIP3    H234742   2.587   1.618   5.701 -1.7648  0.9698 -0.7259
 4443TIP3   OH234743   1.640   1.242  11.483  0.4119  0.9482 -0.2262
 4443TIP3    H134744   1.582   1.208  11.415  2.2622 -3.1890 -0.0596
 4443TIP3    H234745   1.713   1.281  11.435 -0.5073  2.5020 -0.4460
 4444TIP3   OH234746   6.536   1.401  13.019  0.1294 -0.1082 -0.0617
 4444TIP3    H134747   6.503   1.490  13.008 -0.0356 -0.3567 -1.7421
 4444TIP3    H234748   6.621   1.401  12.977  0.2399 -0.6853  0.1545
 4445TIP3   OH234749   3.617   5.344   5.767 -0.1118  0.4609 -0.0069
 4445TIP3    H134750   3.653   5.398   5.697  2.5227  0.0084  0.9044
 4445TIP3    H234751   3.618   5.255   5.732  0.9633  0.2688  0.4853
 4446TIP3   OH234752   6.485   1.860   5.562 -0.6471  0.1200  0.0314
 4446TIP3    H134753   6.428   1.916   5.508 -3.0564  0.4673  2.7025
 4446TIP3    H234754   6.547   1.921   5.602 -0.5722  0.2364 -0.2556
 4447TIP3   OH234755   4.747   5.342   5.545 -0.2015  0.3163 -0.3308
 4447TIP3    H134756   4.666   5.368   5.502 -2.3626 -1.6170  2.2412
 4447TIP3    H234757   4.773   5.419   5.595 -0.1657  1.0955 -1.5174
 4448TIP3   OH234758   3.802   3.967  13.254  0.3353 -0.0260  0.6578
 4448TIP3    H134759   3.726   3.926  13.294  0.4671  0.1259  1.0662
 4448TIP3    H234760   3.877   3.919  13.289  0.4357 -0.0692  0.3856
 4449TIP3   OH234761   0.943   4.975  11.869  0.3338 -0.1232  0.0516
 4449TIP3    H134762   0.987   5.052  11.832 -0.2713 -0.0530 -0.5229
 4449TIP3    H234763   0.994   4.901  11.836 -0.1075 -0.0542 -0.8129
 4450TIP3   OH234764   2.577   6.526   2.416  0.0178 -0.5988 -0.9122
 4450TIP3    H134765   2.491   6.535   2.456 -0.0440 -0.0211 -1.1613
 4450TIP3    H234766   2.631   6.484   2.483 -0.7515 -2.0919 -1.1748
 4451TIP3   OH234767   5.177   6.031   0.159  0.2159  0.2250  0.0857
 4451TIP3    H134768   5.137   5.981   0.230  0.4350 -0.7097 -0.4363
 4451TIP3    H234769   5.135   6.117   0.165  0.8008  0.4335  1.8406
 4452TIP3   OH234770   5.654   6.786   2.141  0.3027  0.5997 -0.3984
 4452TIP3    H134771   5.639   6.866   2.090 -1.0174  0.7789  0.2173
 4452TIP3    H234772   5.734   6.748   2.105 -0.1956  1.1047 -2.1156
 4453TIP3   OH234773   0.574   2.390  10.826  0.2213 -0.0746  0.5201
 4453TIP3    H134774   0.653   2.359  10.781  0.1795 -0.7670  0.9209
 4453TIP3    H234775   0.529   2.443  10.760  0.4420 -0.6239 -0.0763
 4454TIP3   OH234776   2.034   6.527   6.621 -0.2466  0.1602  0.1853
 4454TIP3    H134777   2.059   6.554   6.533 -0.6163 -0.7247 -0.2066
 4454TIP3    H234778   1.960   6.583   6.644 -0.9772 -0.4510 -0.5960
 4455TIP3   OH234779   2.811   4.758   5.931  0.0797  0.0123  0.3545
 4455TIP3    H134780   2.820   4.666   5.955  0.2545 -0.1133 -0.1641
 4455TIP3    H234781   2.803   4.757   5.835  1.7919  0.6453  0.1687
 4456TIP3   OH234782   2.877   4.116   3.825  0.5381  0.0189  0.0317
 4456TIP3    H134783   2.900   4.024   3.815 -0.7328 -0.4315  1.0485
 4456TIP3    H234784   2.820   4.135   3.750  1.5017  0.2410 -0.6651
 4457TIP3   OH234785   4.743   6.172   5.427 -0.4674 -0.4165 -0.6039
 4457TIP3    H134786   4.752   6.265   5.450 -1.8616 -0.2180 -0.7610
 4457TIP3    H234787   4.691   6.172   5.347 -0.6202 -1.3408 -0.5141
 4458TIP3   OH234788   0.885   2.412  13.211  0.1761 -0.3915 -0.1427
 4458TIP3    H134789   0.861   2.354  13.139 -1.8170  0.4525 -0.2422
 4458TIP3    H234790   0.973   2.442  13.190  0.7097 -2.2578 -0.7882
 4459TIP3   OH234791   1.687   6.567  13.347 -0.3270  0.4025  0.5702
 4459TIP3    H134792   1.693   6.646  13.400  3.0800  1.0085 -0.4566
 4459TIP3    H234793   1.725   6.498  13.402  0.9846  0.5177 -0.1654
 4460TIP3   OH234794   5.836   1.241   5.698 -0.0357 -0.3548 -0.0509
 4460TIP3    H134795   5.832   1.167   5.759 -0.8094 -0.0578  0.2697
 4460TIP3    H234796   5.928   1.248   5.674  0.0603 -1.3989 -0.0496
 4461TIP3   OH234797   5.740   3.440  13.841  0.2344 -0.1618 -0.0592
 4461TIP3    H134798   5.731   3.527  13.879 -0.0721  0.1911 -0.9243
 4461TIP3    H234799   5.661   3.393  13.868  0.5140 -0.2518  0.6072
 4462TIP3   OH234800   4.237   4.027  13.261 -0.2043  0.2522  0.0379
 4462TIP3    H134801   4.318   3.986  13.229 -0.0111  0.8594 -0.2672
 4462TIP3    H234802   4.236   4.113  13.219  0.1722  1.1681  1.8436
 4463TIP3   OH234803   2.388   6.517  13.468 -0.3732 -0.5784 -0.1596
 4463TIP3    H134804   2.326   6.506  13.541  0.9803 -2.2494  0.8285
 4463TIP3    H234805   2.335   6.551  13.396 -2.1845 -0.8233  0.9955
 4464TIP3   OH234806   2.596   1.429  11.983 -0.0057  0.2092 -0.1766
 4464TIP3    H134807   2.592   1.509  11.930  0.1914  0.2926 -0.0648
 4464TIP3    H234808   2.536   1.445  12.056  3.1103  1.9987  2.2442
 4465TIP3   OH234809   0.723   5.365   3.838  0.2438 -0.2865 -0.2245
 4465TIP3    H134810   0.692   5.285   3.881  0.4465  0.2674  0.9909
 4465TIP3    H234811   0.819   5.360   3.845  0.2775 -0.1744 -0.5881
 4466TIP3   OH234812   5.862   6.410   0.345  0.2775 -0.7824  0.0567
 4466TIP3    H134813   5.876   6.318   0.369  1.4821 -0.3246  1.2406
 4466TIP3    H234814   5.812   6.446   0.418  0.2518 -0.3726 -0.1632
 4467TIP3   OH234815   3.459   1.471  12.411  0.1550  0.4135  0.0463
 4467TIP3    H134816   3.538   1.435  12.371  0.5314  0.5694  0.6362
 4467TIP3    H234817   3.389   1.410  12.385  0.7524 -0.6777  0.8987
 4468TIP3   OH234818   4.047   0.070   1.839 -0.4832  0.0619 -0.3824
 4468TIP3    H134819   4.071   0.062   1.932 -0.4517  0.4310 -0.3569
 4468TIP3    H234820   4.044  -0.021   1.807  0.4254 -0.0254 -0.2504
 4469TIP3   OH234821   3.405   3.200  12.051 -0.2440 -0.3177 -0.1093
 4469TIP3    H134822   3.447   3.147  12.118  0.4887 -0.3435 -0.5779
 4469TIP3    H234823   3.477   3.227  11.993 -0.8324 -0.1371 -0.7699
 4470TIP3   OH234824   1.621   3.217   3.297  0.1573  0.3189 -0.4247
 4470TIP3    H134825   1.667   3.301   3.305 -0.8537  0.8790 -0.2762
 4470TIP3    H234826   1.532   3.241   3.274 -0.6636 -0.6035  1.5113
 4471TIP3   OH234827   4.588   1.040   0.529 -0.2447 -0.2680  0.1476
 4471TIP3    H134828   4.597   1.127   0.492  3.1044 -0.4746  0.1284
 4471TIP3    H234829   4.633   1.046   0.614  0.1041 -1.9500  0.1150
 4472TIP3   OH234830   1.163   6.326   0.334 -0.3012 -0.1666  0.2452
 4472TIP3    H134831   1.183   6.286   0.250  0.6717 -0.6886  0.7042
 4472TIP3    H234832   1.136   6.252   0.389  0.1931 -0.0082  0.7113
 4473TIP3   OH234833   6.147   0.552   3.629 -0.2411  0.1954 -0.6585
 4473TIP3    H134834   6.214   0.616   3.654 -0.2168 -0.2265  0.4219
 4473TIP3    H234835   6.086   0.602   3.574  0.5984  0.7520 -1.1005
 4474TIP3   OH234836   1.313   6.543   0.377  0.6808 -0.2702 -0.1270
 4474TIP3    H134837   1.269   6.460   0.358 -1.0184  0.8215 -1.2848
 4474TIP3    H234838   1.241   6.603   0.399  1.8648  0.9235  0.6056
 4475TIP3   OH234839   0.272   4.669   1.803 -0.1821  0.1884  0.4808
 4475TIP3    H134840   0.354   4.703   1.838 -0.2641  0.9687 -0.0563
 4475TIP3    H234841   0.245   4.733   1.737 -0.3729 -0.8792 -0.5299
 4476TIP3   OH234842   5.104   3.792  13.278  0.1346 -0.1659 -0.5470
 4476TIP3    H134843   5.085   3.884  13.262 -2.6466  0.0838  2.8108
 4476TIP3    H234844   5.054   3.746  13.210  0.5130  0.7607 -1.4852
 4477TIP3   OH234845   5.115   2.343   0.482 -0.0722  0.5240  0.8750
 4477TIP3    H134846   5.135   2.250   0.490 -1.9159 -0.0226 -0.2292
 4477TIP3    H234847   5.125   2.377   0.571 -0.1307 -0.9086  1.4573
 4478TIP3   OH234848   1.081   3.983  11.886  0.4560  0.1993  0.3510
 4478TIP3    H134849   1.119   3.995  11.799  0.5013  0.6966  0.4325
 4478TIP3    H234850   1.137   3.919  11.929  1.1354  0.8351  0.4281
 4479TIP3   OH234851   6.066   6.673  13.287  0.2389  0.5758  0.0177
 4479TIP3    H134852   6.104   6.606  13.344  0.9375  1.1082  0.1865
 4479TIP3    H234853   5.972   6.663  13.298  0.3376 -0.2625  0.1793
 4480TIP3   OH234854   0.170   4.341   4.866 -0.6829  0.1942  0.4821
 4480TIP3    H134855   0.165   4.358   4.772  1.0213  0.1897  0.3586
 4480TIP3    H234856   0.184   4.427   4.906 -3.0630  0.4433  0.9436
 4481TIP3   OH234857   0.836   4.492   4.405  0.8338  0.1574 -0.0490
 4481TIP3    H134858   0.770   4.422   4.403  0.1366  0.8009 -0.3418
 4481TIP3    H234859   0.868   4.492   4.495  0.7488 -0.4479 -0.0097
 4482TIP3   OH234860   0.956   1.591  11.248 -0.1407  0.1362  0.6036
 4482TIP3    H134861   0.924   1.512  11.293  0.1153  0.0494  0.6326
 4482TIP3    H234862   0.941   1.572  11.155  0.8190 -0.3572  0.5366
 4483TIP3   OH234863   4.312   4.179   6.525  0.0182 -0.3538  0.1695
 4483TIP3    H134864   4.258   4.252   6.494  0.2690 -0.5446 -0.7293
 4483TIP3    H234865   4.352   4.144   6.446 -0.5613 -1.8612  0.5234
 4484TIP3   OH234866   1.373   5.015   2.158  0.0265 -0.1288  0.4669
 4484TIP3    H134867   1.458   4.998   2.118 -0.1294  0.3951 -0.1063
 4484TIP3    H234868   1.365   4.949   2.227  1.8679  1.1557  2.0087
 4485TIP3   OH234869   6.454   1.382  14.535  0.2693 -0.2418 -0.2655
 4485TIP3    H134870   6.362   1.358  14.547 -0.1701  1.2095 -0.5136
 4485TIP3    H234871   6.461   1.469  14.574  2.1514 -1.3064  2.0793
 4486TIP3   OH234872   0.310   5.134   3.663  0.8498  0.0380  0.0844
 4486TIP3    H134873   0.245   5.190   3.705  0.2916  0.4779 -1.3002
 4486TIP3    H234874   0.279   5.045   3.677 -0.5812  0.2755 -1.3403
 4487TIP3   OH234875   4.189   3.017   5.769  0.1017  0.3779 -0.4808
 4487TIP3    H134876   4.138   3.006   5.850  0.6664 -0.4829 -0.2324
 4487TIP3    H234877   4.252   2.945   5.771  0.5942  0.7824 -1.3375
 4488TIP3   OH234878   0.052   0.195   2.083 -0.1134 -0.4629 -0.1365
 4488TIP3    H134879   0.123   0.135   2.058  0.5064  0.3368 -0.3457
 4488TIP3    H234880   0.035   0.174   2.174 -0.9395 -1.9682 -0.6076
 4489TIP3   OH234881   3.494   2.735   4.227  0.3630  0.0073  0.2751
 4489TIP3    H134882   3.470   2.821   4.193  0.9206 -0.1305 -0.4975
 4489TIP3    H234883   3.552   2.698   4.160  0.2544 -0.9063  0.6672
 4490TIP3   OH234884   5.201   1.487  11.625 -0.4807 -0.0920 -0.7441
 4490TIP3    H134885   5.278   1.432  11.608 -0.5691 -0.7384  0.8302
 4490TIP3    H234886   5.126   1.428  11.612 -0.7345  0.4724 -2.0309
 4491TIP3   OH234887   6.330   2.477   2.239  0.3024  0.0022  0.1701
 4491TIP3    H134888   6.353   2.549   2.297 -0.0782  0.6697 -0.4964
 4491TIP3    H234889   6.238   2.459   2.258  0.1471  0.2921 -0.2875
 4492TIP3   OH234890   4.196   3.564  12.610  0.7096  0.1648 -0.2894
 4492TIP3    H134891   4.214   3.542  12.519  1.7894  0.7413 -0.2347
 4492TIP3    H234892   4.282   3.564  12.652  0.1990 -0.3768  0.8010
 4493TIP3   OH234893   3.868   1.431   4.241  0.0875 -1.0424 -0.6648
 4493TIP3    H134894   3.937   1.407   4.303 -1.0481  0.2567  1.2200
 4493TIP3    H234895   3.802   1.362   4.249 -0.2336 -0.6800 -0.0984
 4494TIP3   OH234896   3.517   0.619   3.536  0.4090  0.1101 -0.1811
 4494TIP3    H134897   3.551   0.704   3.566 -0.4218  0.2778  0.3127
 4494TIP3    H234898   3.468   0.585   3.610 -1.1220  0.2234 -1.1108
 4495TIP3   OH234899   2.074   0.162   3.818  0.4860  0.4871 -0.4755
 4495TIP3    H134900   2.136   0.111   3.871  2.0311  1.5297 -1.2111
 4495TIP3    H234901   2.000   0.103   3.804  0.3985 -0.1512  2.0590
 4496TIP3   OH234902   1.021   3.555   4.122  0.2230  0.5134  0.1567
 4496TIP3    H134903   1.109   3.589   4.133  0.7351 -0.7090  0.0665
 4496TIP3    H234904   1.000   3.515   4.206  0.4848 -0.7646 -0.3608
 4497TIP3   OH234905   6.382   2.414  11.490  0.1477 -0.2826 -0.2556
 4497TIP3    H134906   6.305   2.403  11.545 -0.8570 -0.6226 -1.6592
 4497TIP3    H234907   6.373   2.501  11.452 -1.6844 -1.6365 -3.3803
 4498TIP3   OH234908   5.414   0.729   4.864  0.4260 -0.3068 -0.1471
 4498TIP3    H134909   5.337   0.770   4.825  1.0974 -1.6260 -3.1862
 4498TIP3    H234910   5.486   0.787   4.840  0.8576 -1.1598 -0.9820
 4499TIP3   OH234911   0.282   1.095   0.218 -0.5279 -0.6369 -0.4862
 4499TIP3    H134912   0.329   1.110   0.135 -0.9336 -1.5038 -0.8858
 4499TIP3    H234913   0.342   1.043   0.270 -1.4408 -2.7760 -1.4530
 4500TIP3   OH234914   0.003   1.744   5.858  0.5428  0.2574 -0.5979
 4500TIP3    H134915  -0.076   1.718   5.810 -0.5089  1.0354  0.6328
 4500TIP3    H234916  -0.025   1.820   5.909  1.9188  0.1408  0.3680
 4501TIP3   OH234917   2.632   0.477  15.665 -0.5001  0.1891  0.7851
 4501TIP3    H134918   2.575   0.519  15.729  0.5126 -0.9562  2.5321
 4501TIP3    H234919   2.638   0.386  15.694  0.4086 -0.2509 -0.6637
 4502TIP3   OH234920   5.859   5.456   3.181  0.2451  0.1988 -0.2787
 4502TIP3    H134921   5.860   5.394   3.108  0.5429 -1.6661  1.2371
 4502TIP3    H234922   5.951   5.470   3.201  0.1833  1.2580 -0.6712
 4503TIP3   OH234923   1.363   6.589  11.305 -0.1887 -0.4435  0.3112
 4503TIP3    H134924   1.411   6.667  11.332 -2.0318  0.4581  1.1694
 4503TIP3    H234925   1.334   6.608  11.216 -1.7179  0.4362  0.9687
 4504TIP3   OH234926   3.421   2.848  12.043  0.2212  0.0239  0.1710
 4504TIP3    H134927   3.469   2.889  12.115  1.0710 -1.8253  0.7186
 4504TIP3    H234928   3.391   2.764  12.078 -1.5613  0.1598 -0.8676
 4505TIP3   OH234929   6.182   1.797  11.685 -0.2888  0.5083 -0.0613
 4505TIP3    H134930   6.106   1.739  11.680 -0.1922  0.3264  0.5234
 4505TIP3    H234931   6.234   1.776  11.607 -0.8672  0.6782 -0.4930
 4506TIP3   OH234932   6.495   5.155   1.952 -0.2553 -0.0402  0.3317
 4506TIP3    H134933   6.422   5.161   2.015  1.6835 -2.4828  3.0782
 4506TIP3    H234934   6.499   5.063   1.929  1.0509  0.3093 -0.9578
 4507TIP3   OH234935   0.404   6.705   0.286 -0.1799 -0.7511  0.7071
 4507TIP3    H134936   0.439   6.792   0.308  0.7261 -1.2306  1.1772
 4507TIP3    H234937   0.443   6.684   0.201 -1.8408  0.0719 -0.3308
 4508TIP3   OH234938   2.792   1.026  14.925 -0.3630 -0.7834  0.1475
 4508TIP3    H134939   2.782   1.104  14.870  0.9422 -0.3836  0.4413
 4508TIP3    H234940   2.870   0.982  14.890 -0.2288 -1.1670  0.9158
 4509TIP3   OH234941   2.937   6.475   3.548  0.5924 -0.4062 -0.1416
 4509TIP3    H134942   2.864   6.532   3.572  1.1543 -0.1567  1.0625
 4509TIP3    H234943   2.895   6.394   3.518 -0.1976  0.4644 -1.4458
 4510TIP3   OH234944   6.152   2.553  12.608  0.4538  0.0920 -0.7262
 4510TIP3    H134945   6.245   2.577  12.603  0.9061 -1.3143  0.1387
 4510TIP3    H234946   6.134   2.551  12.702 -0.4718  0.4181 -0.8969
 4511TIP3   OH234947   2.527   3.159   5.889  0.3576  0.6370 -0.6790
 4511TIP3    H134948   2.528   3.066   5.914 -1.4690  1.2442  2.2113
 4511TIP3    H234949   2.447   3.169   5.838 -0.3571  0.8683  0.4471
 4512TIP3   OH234950   4.876   3.001  15.437 -0.3925  0.2588  0.1126
 4512TIP3    H134951   4.810   3.037  15.497 -2.0315 -1.1467 -0.7547
 4512TIP3    H234952   4.828   2.981  15.357  1.3682  0.3228 -1.0153
 4513TIP3   OH234953   4.810   0.984  17.054  0.2455 -0.0702 -0.2064
 4513TIP3    H134954   4.883   0.997  16.993  0.3496  0.9750  0.1271
 4513TIP3    H234955   4.817   0.892  17.080  2.2072  0.2864  0.7619
 4514TIP3   OH234956   5.468   4.257   3.092  0.4396 -0.3117 -0.0110
 4514TIP3    H134957   5.400   4.309   3.049  1.0301  0.9607  0.5220
 4514TIP3    H234958   5.433   4.240   3.180  0.6300 -0.0041  0.1268
 4515TIP3   OH234959   4.759   0.069   5.909 -0.0164 -0.1087  0.3179
 4515TIP3    H134960   4.854   0.078   5.915  0.0530 -0.1991 -0.5358
 4515TIP3    H234961   4.732   0.039   5.996  0.8569 -1.1984  0.2304
 4516TIP3   OH234962   0.312   1.092   3.931 -0.3408  0.0500  0.1371
 4516TIP3    H134963   0.246   1.148   3.891 -0.5904 -0.0072  0.4636
 4516TIP3    H234964   0.301   1.007   3.888 -1.2284 -0.2681  0.9741
 4517TIP3   OH234965   6.383   2.830  12.120  0.0610  0.0677  0.4144
 4517TIP3    H134966   6.355   2.796  12.204 -1.3712  0.3595  0.0862
 4517TIP3    H234967   6.337   2.776  12.055  1.4533 -0.4235 -0.2133
 4518TIP3   OH234968   1.719   4.204  11.052  0.7872 -0.3493  0.1849
 4518TIP3    H134969   1.789   4.228  10.991 -0.5004 -0.5238 -1.4366
 4518TIP3    H234970   1.679   4.127  11.014 -1.1603  0.5409  0.3096
 4519TIP3   OH234971   5.859   1.457  14.401  0.7448 -0.7356 -0.3357
 4519TIP3    H134972   5.824   1.494  14.320 -0.9908  0.2773  0.8109
 4519TIP3    H234973   5.869   1.532  14.460 -1.0586 -1.7454  1.4153
 4520TIP3   OH234974   1.253   5.578  11.301  0.4626 -0.6208 -0.9625
 4520TIP3    H134975   1.272   5.668  11.276  0.7070 -0.3868  0.0210
 4520TIP3    H234976   1.182   5.551  11.243 -1.1708  0.9632  0.1972
 4521TIP3   OH234977   2.924   1.845   4.467 -0.1063  0.1643  0.1902
 4521TIP3    H134978   2.859   1.776   4.453  0.1263  0.1669 -1.0353
 4521TIP3    H234979   3.006   1.799   4.478  0.0709  0.2289 -0.7607
 4522TIP3   OH234980   1.197   5.772  13.276  0.3979  0.4657 -0.3389
 4522TIP3    H134981   1.113   5.762  13.229 -0.7482  0.2829  1.6450
 4522TIP3    H234982   1.263   5.763  13.208 -1.1843  0.2455 -1.9298
 4523TIP3   OH234983   4.803   1.318  12.743 -0.3613 -0.0877  0.4585
 4523TIP3    H134984   4.722   1.346  12.702  0.1406  1.0853  0.2210
 4523TIP3    H234985   4.868   1.320  12.672  0.2329  0.6918  1.0002
 4524TIP3   OH234986   2.353   4.833   3.885  0.0272 -0.1121  0.3736
 4524TIP3    H134987   2.285   4.841   3.952  0.7299 -0.9364  1.2069
 4524TIP3    H234988   2.398   4.918   3.888 -2.1125  1.2318 -1.5538
 4525TIP3   OH234989   5.474   0.016  15.995 -0.1677 -0.1414 -0.3569
 4525TIP3    H134990   5.465   0.111  15.985 -0.6926 -0.1504 -0.0540
 4525TIP3    H234991   5.391  -0.019  15.961 -0.7792 -0.3502  1.2671
 4526TIP3   OH234992   4.325   5.990  11.470 -0.2129  0.0064 -0.7596
 4526TIP3    H134993   4.362   6.057  11.413 -1.5981  0.9261 -0.6161
 4526TIP3    H234994   4.316   6.033  11.555  0.9314 -1.0588 -0.0513
 4527TIP3   OH234995   2.107   1.214  12.283 -0.4614  0.1477 -0.7452
 4527TIP3    H134996   2.202   1.219  12.293 -0.5709  2.6529 -0.3102
 4527TIP3    H234997   2.081   1.143  12.341  0.8914  1.5613  1.7910
 4528TIP3   OH234998   3.755   0.999  13.589 -0.6662 -0.4323  0.5104
 4528TIP3    H134999   3.762   1.091  13.563  0.4771 -0.7256 -0.2911
 4528TIP3    H235000   3.753   0.951  13.506 -2.1773 -1.1010  0.8913
 4529TIP3   OH235001   5.417   6.135  12.492  0.3381 -0.1998  0.4794
 4529TIP3    H135002   5.482   6.204  12.505 -1.1904  1.4966 -0.3786
 4529TIP3    H235003   5.388   6.111  12.581 -0.1672  1.3726  0.7663
 4530TIP3   OH235004   1.056   1.642  13.408 -0.4630 -0.1802  0.4668
 4530TIP3    H135005   0.971   1.646  13.364 -0.3606 -1.8692  0.0294
 4530TIP3    H235006   1.116   1.683  13.347 -0.7804  0.0084  0.2756
 4531TIP3   OH235007   1.516   0.742   5.205 -0.3353  0.0377  0.8681
 4531TIP3    H135008   1.473   0.658   5.212  1.9186 -1.2191  0.6913
 4531TIP3    H235009   1.554   0.758   5.292  0.5585  0.0892  0.4835
 4532TIP3   OH235010   1.095   4.174  16.190  0.0357 -0.0073  0.2981
 4532TIP3    H135011   1.116   4.133  16.274  0.1885 -0.1833  0.1722
 4532TIP3    H235012   1.172   4.160  16.136  0.3255  0.9415  0.4442
 4533TIP3   OH235013   1.909   4.619  13.135 -0.2187 -0.5268 -0.0271
 4533TIP3    H135014   1.858   4.540  13.115  0.9719 -0.7124 -2.7311
 4533TIP3    H235015   1.847   4.691  13.123 -0.4553 -0.8779 -1.0130
 4534TIP3   OH235016   5.710   6.075   0.598 -0.0373  0.0906  0.2618
 4534TIP3    H135017   5.777   6.109   0.538  0.4960 -0.1201  0.7273
 4534TIP3    H235018   5.732   6.114   0.682  0.0566 -0.7023  0.6142
 4535TIP3   OH235019   1.959   4.813   3.380 -0.0048  0.1754 -0.5064
 4535TIP3    H135020   1.937   4.878   3.313  1.3104 -0.6482 -1.7801
 4535TIP3    H235021   1.919   4.732   3.349 -0.3113  0.0035  0.2914
 4536TIP3   OH235022   1.542   0.492   3.475 -0.2220 -0.1720  0.0972
 4536TIP3    H135023   1.634   0.514   3.485  0.1546 -0.1732 -2.5366
 4536TIP3    H235024   1.495   0.572   3.499  0.4915  0.0506  0.7707
 4537TIP3   OH235025   4.460   4.127   0.199  0.0697 -0.9414 -0.6045
 4537TIP3    H135026   4.434   4.050   0.251  0.8149 -0.6638  0.2045
 4537TIP3    H235027   4.546   4.103   0.163  1.7745  0.5500  2.0707
 4538TIP3   OH235028   6.082   5.696   4.155 -0.9303  0.3691  0.0117
 4538TIP3    H135029   6.148   5.684   4.223 -0.6419 -1.7738 -0.5659
 4538TIP3    H235030   6.130   5.684   4.073 -1.9388 -0.8238 -0.4310
 4539TIP3   OH235031   0.954   3.433   0.607  0.4401 -0.4157 -0.3558
 4539TIP3    H135032   1.010   3.505   0.577 -0.5361  1.3931  1.8455
 4539TIP3    H235033   0.866   3.460   0.584  0.1486 -1.5764 -0.6807
 4540TIP3   OH235034   2.673   5.889   2.292  0.4162  0.4627 -0.4764
 4540TIP3    H135035   2.664   5.873   2.386  0.4089  0.5091 -0.4692
 4540TIP3    H235036   2.610   5.830   2.251  3.2432 -2.7497 -0.7110
 4541TIP3   OH235037   3.689   6.577  13.684 -0.5395  0.5045 -0.0528
 4541TIP3    H135038   3.619   6.512  13.686 -0.2224  0.1520 -0.2632
 4541TIP3    H235039   3.676   6.624  13.602 -0.0893 -0.0541 -0.4474
 4542TIP3   OH235040   1.167   5.527   0.309 -0.1319 -0.0597 -0.2467
 4542TIP3    H135041   1.249   5.478   0.307  0.4507  0.8970 -0.6453
 4542TIP3    H235042   1.115   5.485   0.377  1.6449  0.8238  1.7572
 4543TIP3   OH235043   6.265   2.521   4.926  0.3769 -0.6590  0.2065
 4543TIP3    H135044   6.262   2.554   5.016  1.3997  0.7921 -0.2536
 4543TIP3    H235045   6.235   2.595   4.873  0.4212 -1.2824 -0.6949
 4544TIP3   OH235046   0.032   5.955  15.529 -0.3254 -0.0919 -0.3469
 4544TIP3    H135047   0.059   6.035  15.574 -0.2038 -0.0887 -0.4254
 4544TIP3    H235048  -0.035   5.984  15.467 -1.2056 -0.2422  0.5115
 4545TIP3   OH235049   4.488   2.868   6.488 -0.0048 -0.2218  0.1797
 4545TIP3    H135050   4.406   2.917   6.479  0.5600  0.9077  0.8758
 4545TIP3    H235051   4.462   2.784   6.526 -1.2345 -1.2828 -2.6961
 4546TIP3   OH235052   0.662   6.368  12.115  1.3439 -0.4698  0.1213
 4546TIP3    H135053   0.659   6.388  12.022  0.1923 -1.2621 -0.0244
 4546TIP3    H235054   0.596   6.425  12.154 -0.1004 -2.0524  0.0606
 4547TIP3   OH235055   5.615   4.694  13.009  0.2558  0.1957 -0.2006
 4547TIP3    H135056   5.642   4.713  13.099  0.4378 -2.1411  0.2955
 4547TIP3    H235057   5.524   4.723  13.005 -0.7000 -2.2365  1.6996
 4548TIP3   OH235058   1.950   0.664   4.165  0.3615  0.0463 -0.6364
 4548TIP3    H135059   2.022   0.711   4.207  0.7887  0.1029 -1.4164
 4548TIP3    H235060   1.900   0.627   4.237 -1.1941  3.3901  0.2268
 4549TIP3   OH235061   2.445   2.968  12.382 -0.1290 -0.0291 -0.0048
 4549TIP3    H135062   2.493   2.892  12.413 -0.6948  0.2022  1.5367
 4549TIP3    H235063   2.512   3.034  12.365  0.1642  0.4523  2.5833
 4550TIP3   OH235064   6.297   1.067  10.858  0.5326 -0.2197 -0.1652
 4550TIP3    H135065   6.287   0.974  10.878 -0.1878 -0.4497 -1.4759
 4550TIP3    H235066   6.391   1.084  10.867  0.7116 -1.1489 -0.1934
 4551TIP3   OH235067   4.503   2.721  12.144 -0.1631 -0.0087 -0.6995
 4551TIP3    H135068   4.441   2.650  12.160 -0.6396  0.2328 -1.4021
 4551TIP3    H235069   4.588   2.679  12.135 -0.1591 -0.3159  0.6124
 4552TIP3   OH235070   4.769   5.424  15.194 -0.0555 -0.0777 -0.5488
 4552TIP3    H135071   4.818   5.357  15.242 -0.4761 -0.0193 -0.0187
 4552TIP3    H235072   4.812   5.506  15.216  1.0817 -0.2533 -1.9954
 4553TIP3   OH235073   4.982   2.711   1.047 -0.0391  0.5435  0.4198
 4553TIP3    H135074   5.061   2.763   1.034  0.5417 -0.7580 -1.5912
 4553TIP3    H235075   5.005   2.648   1.115  1.1122 -0.5855 -0.9431
 4554TIP3   OH235076   4.603   0.284   1.793  0.5095  0.1255 -0.3585
 4554TIP3    H135077   4.538   0.255   1.728  1.0359  0.7861 -1.1996
 4554TIP3    H235078   4.648   0.358   1.751 -0.2651  1.6866  1.4009
 4555TIP3   OH235079   2.429   0.355   2.320 -0.3707  0.1426 -0.0883
 4555TIP3    H135080   2.504   0.413   2.333  0.9260 -1.0226 -1.8672
 4555TIP3    H235081   2.443   0.282   2.380 -0.4880  0.2738  0.1012
 4556TIP3   OH235082   3.269   3.560  14.858 -0.2465 -0.6879  1.1982
 4556TIP3    H135083   3.323   3.545  14.936 -0.4724  1.2637  1.7781
 4556TIP3    H235084   3.216   3.637  14.880 -0.2065  0.0062 -0.9353
 4557TIP3   OH235085   6.403   4.322   1.662  0.5180 -0.1564 -0.2106
 4557TIP3    H135086   6.362   4.349   1.580  1.8831 -0.1040 -0.9090
 4557TIP3    H235087   6.497   4.322   1.642  0.9315  0.6460  1.5892
 4558TIP3   OH235088   3.801   0.532   0.393  0.1821  0.3481  0.3905
 4558TIP3    H135089   3.855   0.455   0.375  0.7222  0.4380  1.5304
 4558TIP3    H235090   3.762   0.515   0.479  0.3242  1.3383  0.6646
 4559TIP3   OH235091   1.907   0.182  14.130 -0.0740  0.0295 -0.7377
 4559TIP3    H135092   1.946   0.263  14.097  0.2276 -0.9171 -2.8962
 4559TIP3    H235093   1.977   0.138  14.177 -0.2698  1.0261  0.5484
 4560TIP3   OH235094   1.072   4.937   3.574 -0.2019 -0.3299  0.1294
 4560TIP3    H135095   1.141   4.916   3.637  0.0164  0.2177  0.0778
 4560TIP3    H235096   1.001   4.975   3.627 -0.4263 -0.7984  0.1696
 4561TIP3   OH235097   2.703   3.504  15.257  0.1714 -0.5686 -0.6068
 4561TIP3    H135098   2.744   3.431  15.301 -0.1308 -0.3529  0.0497
 4561TIP3    H235099   2.774   3.565  15.239  0.2589 -0.5519 -0.1997
 4562TIP3   OH235100   5.405   6.453  15.468  0.0966  0.1067 -0.0508
 4562TIP3    H135101   5.312   6.452  15.447 -0.0449 -0.6439  0.5705
 4562TIP3    H235102   5.409   6.455  15.563  0.6683 -2.0316  0.0250
 4563TIP3   OH235103   1.270   5.787  12.045  0.5439 -0.1880  0.2348
 4563TIP3    H135104   1.270   5.882  12.056  0.2061 -0.2122  0.4593
 4563TIP3    H235105   1.190   5.758  12.089  0.8694 -0.6207  0.5451
 4564TIP3   OH235106   4.525   6.343  15.078 -0.0329  0.2653  0.8594
 4564TIP3    H135107   4.506   6.349  15.172  0.0373 -0.5309  0.9299
 4564TIP3    H235108   4.496   6.256  15.053  2.5958 -0.6896  0.7861
 4565TIP3   OH235109   1.466   3.115  15.086 -0.5518 -0.3619  0.2887
 4565TIP3    H135110   1.557   3.142  15.097 -0.7621  0.2756  0.4749
 4565TIP3    H235111   1.434   3.169  15.014 -1.0437  0.0528  0.8205
 4566TIP3   OH235112   0.462   6.116   2.183  0.2450 -0.6197 -0.2345
 4566TIP3    H135113   0.376   6.146   2.212  0.0089 -1.5318  0.0440
 4566TIP3    H235114   0.475   6.159   2.098  0.3244  0.9622  0.5521
 4567TIP3   OH235115   5.199   5.461  15.258  0.3044  0.5111 -0.6881
 4567TIP3    H135116   5.161   5.454  15.170 -2.3173  0.7257  0.3493
 4567TIP3    H235117   5.222   5.553  15.267  1.8235  0.2703 -1.5447
 4568TIP3   OH235118   1.300   0.885  14.269 -0.2472  0.5859  0.3363
 4568TIP3    H135119   1.223   0.899  14.214 -1.7708 -1.9835  1.6048
 4568TIP3    H235120   1.321   0.971  14.305 -2.3788  1.3970 -0.2503
 4569TIP3   OH235121   5.109   1.846  11.946 -0.0391 -0.1821  0.1266
 4569TIP3    H135122   5.023   1.804  11.953  0.1564 -0.9606 -1.4697
 4569TIP3    H235123   5.094   1.936  11.972 -1.6720  0.0376 -1.3393
 4570TIP3   OH235124   1.709   2.438   6.516 -0.0033 -0.2106  0.2477
 4570TIP3    H135125   1.736   2.530   6.506  0.6653 -0.4970 -0.7537
 4570TIP3    H235126   1.744   2.395   6.438  0.0975 -1.4139  0.9440
 4571TIP3   OH235127   3.255   3.403  14.392  1.0310  0.5455  0.4496
 4571TIP3    H135128   3.185   3.409  14.326  1.2210 -0.2754  0.1560
 4571TIP3    H235129   3.209   3.381  14.473  0.8423  1.1100  0.5009
 4572TIP3   OH235130   4.980   0.436  15.798  0.1343 -0.0668 -0.0104
 4572TIP3    H135131   5.074   0.451  15.805 -0.0883  0.7471  1.5909
 4572TIP3    H235132   4.962   0.440  15.704  1.7902 -0.9502 -0.4080
 4573TIP3   OH235133   2.192   6.392   3.389 -0.0213 -0.0238  0.2166
 4573TIP3    H135134   2.225   6.481   3.403  1.1640  0.2107 -3.2112
 4573TIP3    H235135   2.262   6.348   3.340 -2.4433 -1.3186 -2.3442
 4574TIP3   OH235136   3.060   6.624  13.408 -0.2248  0.4810  0.0525
 4574TIP3    H135137   3.114   6.694  13.442 -0.3720  1.1177 -0.9780
 4574TIP3    H235138   2.974   6.664  13.394 -1.0049 -0.5122  1.6746
 4575TIP3   OH235139   4.905   0.109   4.303 -0.1255  0.1790 -0.0294
 4575TIP3    H135140   4.888   0.085   4.212 -0.1454 -0.9154  0.2500
 4575TIP3    H235141   4.998   0.091   4.316 -0.8651 -3.6368  1.2548
 4576TIP3   OH235142   2.647   0.174   4.776  0.0259 -0.4170 -0.5349
 4576TIP3    H135143   2.615   0.189   4.687 -1.7994  0.1203  0.1740
 4576TIP3    H235144   2.598   0.099   4.808  1.0413 -0.9313 -0.1411
 4577TIP3   OH235145   5.107   0.207  12.238  0.2547 -0.7137 -0.7961
 4577TIP3    H135146   5.106   0.285  12.293 -1.3461 -1.9855  1.0942
 4577TIP3    H235147   5.191   0.212  12.191  0.3701  1.8855 -0.4296
 4578TIP3   OH235148   3.297   1.993   0.690  0.2380  0.7851 -0.1866
 4578TIP3    H135149   3.377   2.003   0.638  2.6068 -2.4106  2.4152
 4578TIP3    H235150   3.242   1.934   0.638  0.7848  0.8037 -0.7998
 4579TIP3   OH235151   6.339   2.782  13.076  0.1854  0.5427  0.5678
 4579TIP3    H135152   6.364   2.836  13.001  0.9751  0.4974  0.7903
 4579TIP3    H235153   6.399   2.707  13.073  0.9993  1.0968  1.8730
 4580TIP3   OH235154   6.273   2.338   2.000 -0.4700 -0.1746  0.3327
 4580TIP3    H135155   6.214   2.330   1.925  0.0661  0.3026 -0.1482
 4580TIP3    H235156   6.261   2.429   2.029  0.4584  0.1051 -0.1374
 4581TIP3   OH235157   4.945   4.028  12.792 -0.2632  0.5217  0.3141
 4581TIP3    H135158   4.998   3.972  12.849 -1.5072 -0.5561  0.4619
 4581TIP3    H235159   4.968   4.117  12.817  0.5279  0.0650  1.2518
 4582TIP3   OH235160   0.741   1.099  15.070 -0.0315  0.4505  0.1367
 4582TIP3    H135161   0.669   1.161  15.059  1.2786  2.0114 -0.1338
 4582TIP3    H235162   0.716   1.022  15.020 -1.4796  0.9736  0.0315
 4583TIP3   OH235163   2.672   1.992   0.840 -0.8350 -0.0093  0.4087
 4583TIP3    H135164   2.753   1.963   0.881  0.0976  0.8191 -0.7897
 4583TIP3    H235165   2.675   1.953   0.752 -1.1065  1.0723 -0.0937
 4584TIP3   OH235166   4.154   5.763   5.868  0.2383  0.1830  0.9279
 4584TIP3    H135167   4.213   5.728   5.801 -1.5414 -0.3794 -0.4340
 4584TIP3    H235168   4.152   5.696   5.936  0.3720 -0.2574  0.5049
 4585TIP3   OH235169   4.756   3.056  15.022 -0.1730 -0.4555  0.4436
 4585TIP3    H135170   4.834   3.094  14.983 -0.6618 -0.6127 -0.7489
 4585TIP3    H235171   4.693   3.053  14.950 -0.6234 -2.1483  0.8637
 4586TIP3   OH235172   4.329   2.858  14.648 -0.0791 -0.2582  0.4079
 4586TIP3    H135173   4.331   2.929  14.584  1.3942 -0.4414  0.2017
 4586TIP3    H235174   4.315   2.779  14.596 -0.2169 -0.2739  0.4687
 4587TIP3   OH235175   4.996   3.721   1.645  0.4720  0.1826  0.4007
 4587TIP3    H135176   5.064   3.693   1.583  0.1690  0.2016  0.0598
 4587TIP3    H235177   4.998   3.817   1.640  0.4048  0.1822  0.3758
 4588TIP3   OH235178   1.836   6.006  16.007 -0.5547 -0.0247  0.6135
 4588TIP3    H135179   1.746   5.978  16.019 -0.8319  1.2324  1.7342
 4588TIP3    H235180   1.876   5.995  16.093  0.6272 -1.3682 -0.0606
 4589TIP3   OH235181   3.823   3.478  14.098  0.0736 -0.1695  0.4491
 4589TIP3    H135182   3.776   3.434  14.169  1.7396 -1.5721  0.7515
 4589TIP3    H235183   3.889   3.415  14.071  0.3358  0.8698 -1.4755
 4590TIP3   OH235184   3.238   3.631   4.491  0.2541 -0.5574  0.4128
 4590TIP3    H135185   3.151   3.592   4.480  0.6039 -1.0689 -0.6239
 4590TIP3    H235186   3.273   3.589   4.569 -0.6528  0.0977  1.2102
 4591TIP3   OH235187   3.135   1.475  12.936  0.4061 -0.1244 -0.3118
 4591TIP3    H135188   3.134   1.469  12.840 -0.9793 -0.5823 -0.2902
 4591TIP3    H235189   3.060   1.531  12.956  0.7886  0.1020  0.5148
 4592TIP3   OH235190   1.407   0.578  12.408 -0.2489 -0.1771 -0.1430
 4592TIP3    H135191   1.396   0.599  12.501 -0.7789  0.1699 -0.2795
 4592TIP3    H235192   1.451   0.655  12.372 -0.7717  0.0354 -0.3349
 4593TIP3   OH235193   2.508   5.700  14.992 -0.3101  0.0707 -0.1980
 4593TIP3    H135194   2.583   5.727  15.045  0.2617 -0.6594 -0.6202
 4593TIP3    H235195   2.471   5.782  14.960  0.2765  0.4419  0.0507
 4594TIP3   OH235196   2.026   2.750   0.254 -0.2241  0.1754 -0.5301
 4594TIP3    H135197   1.961   2.743   0.185 -1.2687 -3.0929  0.6124
 4594TIP3    H235198   2.072   2.666   0.254  0.4267  0.4149  2.0598
 4595TIP3   OH235199   2.335   0.510   5.897 -0.0061  0.1305 -0.6035
 4595TIP3    H135200   2.251   0.468   5.913 -0.3754  1.4803  1.2733
 4595TIP3    H235201   2.390   0.484   5.971  0.7081  0.5764 -0.9610
 4596TIP3   OH235202   2.394   2.638  12.488 -0.1627 -0.2619  0.3594
 4596TIP3    H135203   2.321   2.693  12.515 -1.0909  0.6788 -3.4867
 4596TIP3    H235204   2.354   2.558  12.454  0.7586 -0.6360  0.1185
 4597TIP3   OH235205   6.178   5.586   3.667  0.4912  0.1435 -0.0296
 4597TIP3    H135206   6.181   5.497   3.631  1.3239  0.2161 -0.1587
 4597TIP3    H235207   6.255   5.629   3.630  1.3897  0.2140  1.8457
 4598TIP3   OH235208   3.249   2.341   0.798 -0.1679 -0.4063  0.1260
 4598TIP3    H135209   3.177   2.404   0.801 -0.7328 -1.0458  0.1550
 4598TIP3    H235210   3.238   2.288   0.877  2.0085  1.2669  1.7182
 4599TIP3   OH235211   4.154   2.260   1.733 -0.5257  0.1709  0.1961
 4599TIP3    H135212   4.136   2.205   1.809 -0.4307 -3.3237 -2.0872
 4599TIP3    H235213   4.070   2.301   1.712 -1.5416 -1.8555  0.0389
 4600TIP3   OH235214   6.467   3.281   4.456  0.6531  0.6134 -0.1843
 4600TIP3    H135215   6.517   3.235   4.389 -0.6771 -0.0660 -0.7474
 4600TIP3    H235216   6.392   3.224   4.474  0.4954  1.2186  1.2166
 4601TIP3   OH235217   0.087   6.758   5.419 -0.2952  0.2870  0.0838
 4601TIP3    H135218   0.135   6.797   5.492 -0.3089  1.3968 -0.4919
 4601TIP3    H235219   0.049   6.832   5.373 -1.0288 -0.4640 -0.5452
 4602TIP3   OH235220   4.146   1.883   1.343 -0.4419 -0.4594 -0.2030
 4602TIP3    H135221   4.199   1.813   1.307  0.9309  0.8309 -0.7854
 4602TIP3    H235222   4.060   1.872   1.303 -0.9588 -3.0740  1.3680
 4603TIP3   OH235223   2.398   1.638  13.192  0.0473  0.4567 -0.6065
 4603TIP3    H135224   2.354   1.576  13.250  0.2459  1.4487  0.6548
 4603TIP3    H235225   2.482   1.597  13.172 -0.9768 -0.9723 -2.1727
 4604TIP3   OH235226   1.963   5.883  14.730 -0.0836 -0.1089 -0.0222
 4604TIP3    H135227   1.961   5.860  14.823 -1.2457  1.3275  0.3450
 4604TIP3    H235228   2.051   5.919  14.716  0.8508 -2.2274 -0.0198
 4605TIP3   OH235229   4.459   4.954  13.919  0.3284  0.1293  0.1907
 4605TIP3    H135230   4.536   4.899  13.903 -0.0277  0.1635 -1.9759
 4605TIP3    H235231   4.495   5.041  13.935  0.9130 -0.6234  3.8890
 4606TIP3   OH235232   1.215   1.470   3.179 -0.5298 -0.1188 -0.3913
 4606TIP3    H135233   1.224   1.429   3.093  0.9496  0.1694 -0.4121
 4606TIP3    H235234   1.256   1.556   3.168 -0.9622  0.1986  0.4266
 4607TIP3   OH235235   0.190   5.449  15.548 -0.8373 -0.0438 -0.1388
 4607TIP3    H135236   0.232   5.370  15.512 -0.5436  0.8922 -1.9995
 4607TIP3    H235237   0.167   5.425  15.637 -0.4908 -2.1433 -0.5471
 4608TIP3   OH235238   0.078   3.666   2.973  0.3898 -0.3700 -0.2351
 4608TIP3    H135239   0.123   3.595   3.019 -0.0855 -0.5602 -0.0583
 4608TIP3    H235240   0.068   3.735   3.039  0.5745 -0.2598 -0.3217
 4609TIP3   OH235241   1.544   1.554  16.365  0.0582 -0.0588  0.2235
 4609TIP3    H135242   1.589   1.501  16.430 -0.8268  0.0776  0.9610
 4609TIP3    H235243   1.607   1.622  16.341  0.9888 -1.0825 -0.3028
 4610TIP3   OH235244   1.779   3.401  14.411  0.2267  0.0803 -0.4986
 4610TIP3    H135245   1.863   3.439  14.383  0.4717 -0.2056 -0.1572
 4610TIP3    H235246   1.792   3.380  14.504 -0.7730  1.6042  0.0300
 4611TIP3   OH235247   0.548   5.530  11.124  0.2121  0.4221 -0.2153
 4611TIP3    H135248   0.473   5.564  11.076 -0.8674 -1.0547  0.3692
 4611TIP3    H235249   0.543   5.572  11.210 -0.5926 -0.4603  0.1902
 4612TIP3   OH235250   2.260   1.078  14.156  0.0658  0.2128  0.3112
 4612TIP3    H135251   2.256   1.050  14.065  1.4314  0.3363  0.1870
 4612TIP3    H235252   2.309   1.008  14.200 -3.8675 -1.8875  1.8452
 4613TIP3   OH235253   0.851   0.312   5.428  0.5750 -0.1455 -0.2408
 4613TIP3    H135254   0.836   0.217   5.431  0.2998 -0.2420 -2.4688
 4613TIP3    H235255   0.946   0.321   5.429  0.6123 -0.2875  1.7874
 4614TIP3   OH235256   6.667   1.920  15.082 -0.1045 -0.0064  0.3558
 4614TIP3    H135257   6.736   1.959  15.135  0.6264 -0.8260  0.0205
 4614TIP3    H235258   6.708   1.844  15.040 -1.0230 -0.1308 -0.3569
 4615TIP3   OH235259   1.056   6.166  13.609  0.5325  0.2041  0.3191
 4615TIP3    H135260   1.101   6.144  13.691 -0.5645 -0.4930  0.7514
 4615TIP3    H235261   1.122   6.151  13.541  1.2676  0.1912  1.0126
 4616TIP3   OH235262   2.601   0.692  12.325  0.2401  0.4340 -0.1441
 4616TIP3    H135263   2.563   0.697  12.237  0.0725 -0.5879 -0.1419
 4616TIP3    H235264   2.534   0.729  12.382 -0.0667  0.1775 -0.3335
 4617TIP3   OH235265   5.304   4.982  14.293 -0.1404  0.2012  0.0524
 4617TIP3    H135266   5.361   4.933  14.234  0.0616 -0.1645  0.5419
 4617TIP3    H235267   5.341   4.967  14.380 -1.4659 -0.7455  0.4914
 4618TIP3   OH235268   6.779   6.341  10.527  0.5060 -0.1163  0.1855
 4618TIP3    H135269   6.796   6.325  10.434 -1.0961  2.5193 -0.6612
 4618TIP3    H235270   6.802   6.433  10.540 -2.5299  0.5695  1.4958
 4619TIP3   OH235271   4.222   2.810   3.607  0.1445  0.5058 -0.0478
 4619TIP3    H135272   4.141   2.797   3.558 -0.1324  0.3389  0.4574
 4619TIP3    H235273   4.213   2.754   3.684  1.0727 -0.1472 -0.3853
 4620TIP3   OH235274   1.560   4.834  13.078  0.1774 -0.1401  0.4612
 4620TIP3    H135275   1.487   4.815  13.019 -1.0176 -0.4828  1.9824
 4620TIP3    H235276   1.634   4.854  13.020 -0.4553 -2.1780 -1.1523
 4621TIP3   OH235277   4.548   1.172   4.628  0.0583 -0.3757  0.0029
 4621TIP3    H135278   4.563   1.242   4.564 -2.7833 -0.2922 -0.6830
 4621TIP3    H235279   4.591   1.203   4.708  2.0315  0.4028 -1.2808
 4622TIP3   OH235280   0.018   0.990   3.419  0.0621 -0.1534 -0.0983
 4622TIP3    H135281   0.062   0.914   3.457  0.2125 -0.5131 -0.9540
 4622TIP3    H235282  -0.017   0.957   3.336 -0.7872  0.4431  0.0180
 4623TIP3   OH235283   1.037   3.183   0.193 -0.7028  0.3094 -0.8473
 4623TIP3    H135284   1.073   3.217   0.275 -0.9484  1.0536 -1.0398
 4623TIP3    H235285   1.016   3.092   0.212 -2.8645  1.0368  0.6243
 4624TIP3   OH235286   4.829   3.648   0.173 -0.4139 -0.3838  0.2283
 4624TIP3    H135287   4.866   3.700   0.244 -1.0369 -0.0715  0.3227
 4624TIP3    H235288   4.737   3.637   0.196 -1.0047  1.0328 -1.2940
 4625TIP3   OH235289   2.670   3.486   1.418  0.0004  0.2272 -0.3549
 4625TIP3    H135290   2.748   3.491   1.472  0.2477  1.6386 -0.8051
 4625TIP3    H235291   2.597   3.494   1.480  0.2087 -0.6781  0.0178
 4626TIP3   OH235292   2.490   3.770  10.972  0.0883  0.0606  0.1678
 4626TIP3    H135293   2.499   3.689  10.923 -0.2165 -0.3935  0.8568
 4626TIP3    H235294   2.398   3.794  10.962  0.0486  0.0188  0.4376
 4627TIP3   OH235295   1.529   5.506   3.683 -0.4730 -0.4400 -0.0093
 4627TIP3    H135296   1.489   5.478   3.601 -0.8541 -0.6762  0.2565
 4627TIP3    H235297   1.480   5.584   3.709  0.2470  0.1820 -0.4770
 4628TIP3   OH235298   4.531   4.658   1.775 -0.0235 -0.7903 -0.0696
 4628TIP3    H135299   4.580   4.700   1.704  0.2204  0.3498  0.7387
 4628TIP3    H235300   4.597   4.612   1.826 -0.0884 -0.9831 -0.1602
 4629TIP3   OH235301   3.505   4.450  10.366 -0.1814 -0.2411  0.4404
 4629TIP3    H135302   3.428   4.412  10.407 -0.8073  0.1320 -0.3645
 4629TIP3    H235303   3.492   4.545  10.374  1.1209 -0.1381  1.9940
 4630TIP3   OH235304   3.286   4.739  15.136 -0.4939 -0.0786  0.1290
 4630TIP3    H135305   3.307   4.832  15.138  1.4428 -0.4779  2.2407
 4630TIP3    H235306   3.327   4.706  15.056 -2.5022  1.0715 -1.4674
 4631TIP3   OH235307   6.167   2.765   5.622  0.0643 -0.3362 -0.0556
 4631TIP3    H135308   6.161   2.681   5.668  0.3588 -1.3636 -1.7947
 4631TIP3    H235309   6.078   2.784   5.594  0.0364 -0.1922  0.1307
 4632TIP3   OH235310   3.077   0.980  11.869  0.9255  0.0057  0.2480
 4632TIP3    H135311   3.054   1.065  11.905  1.8559  0.4683 -0.2122
 4632TIP3    H235312   2.993   0.936  11.855  0.5052  0.3015  1.7648
 4633TIP3   OH235313   3.748   2.079  14.456 -0.3037 -0.0989  0.6043
 4633TIP3    H135314   3.786   2.033  14.531  3.5210  0.1285 -0.9346
 4633TIP3    H235315   3.793   2.041  14.380  0.2363  3.4714 -1.0526
 4634TIP3   OH235316   2.576   2.927  16.958 -0.2948  0.4033 -0.8624
 4634TIP3    H135317   2.488   2.898  16.932  0.0159  0.1520 -1.6376
 4634TIP3    H235318   2.560   3.002  17.015 -1.0246  0.1627 -0.7397
 4635TIP3   OH235319   6.112   0.787  15.241  0.1846 -0.1657 -0.6482
 4635TIP3    H135320   6.176   0.771  15.172 -1.3909  0.7452 -2.4182
 4635TIP3    H235321   6.147   0.862  15.289 -0.0469  1.1035 -2.3467
 4636TIP3   OH235322   2.013   1.879   5.710 -0.0164  0.0744  0.2091
 4636TIP3    H135323   1.956   1.857   5.784 -0.6186  0.6654 -0.0640
 4636TIP3    H235324   2.093   1.913   5.750  0.0213 -0.4704  0.5960
 4637TIP3   OH235325   3.176   2.553   0.195  0.4165  0.3041  0.3588
 4637TIP3    H135326   3.251   2.514   0.149 -0.9024 -1.6710 -0.2367
 4637TIP3    H235327   3.134   2.610   0.131  0.4909  0.1567  0.1791
 4638TIP3   OH235328   0.820   6.620   2.177 -0.2380 -0.2842 -0.1460
 4638TIP3    H135329   0.892   6.558   2.189 -0.6332 -0.8443 -0.5930
 4638TIP3    H235330   0.777   6.591   2.096  0.0496  1.0679 -0.7938
 4639TIP3   OH235331   6.129   1.580  10.826  0.0696  0.1585  0.8608
 4639TIP3    H135332   6.183   1.502  10.840 -0.2534 -0.2218  0.0120
 4639TIP3    H235333   6.164   1.620  10.747  1.7297  2.1803  2.4803
 4640TIP3   OH235334   5.087   6.465  12.212  0.3488 -0.3915  0.1358
 4640TIP3    H135335   5.103   6.539  12.154  1.0645 -0.2462  0.5085
 4640TIP3    H235336   5.023   6.411  12.166 -0.1129  0.4127 -0.1782
 4641TIP3   OH235337   5.192   6.520   1.624 -0.2427 -0.6721 -0.2466
 4641TIP3    H135338   5.168   6.505   1.532  0.4757 -1.4976 -0.3140
 4641TIP3    H235339   5.255   6.592   1.621 -1.5159  0.4861 -0.2125
 4642TIP3   OH235340   0.351   2.993  12.909  0.0178  0.2924  0.0431
 4642TIP3    H135341   0.260   3.010  12.932  0.0267 -0.3515  0.5944
 4642TIP3    H235342   0.397   3.072  12.937 -0.4396  0.8373 -0.7200
 4643TIP3   OH235343   2.421   3.848  16.876 -0.0039  0.3352 -0.2758
 4643TIP3    H135344   2.390   3.758  16.871  0.8890  0.0073 -0.1166
 4643TIP3    H235345   2.343   3.899  16.898 -0.1104 -0.7049  2.0397
 4644TIP3   OH235346   4.336   6.345   2.571 -0.1524  0.0558  0.3573
 4644TIP3    H135347   4.362   6.435   2.551  0.4420 -0.4503 -1.3488
 4644TIP3    H235348   4.335   6.301   2.486 -1.9442 -1.1861  0.9665
 4645TIP3   OH235349   5.055   3.489   5.678 -0.0683  0.1481 -0.6616
 4645TIP3    H135350   5.005   3.484   5.596 -1.9618 -0.3681  0.4582
 4645TIP3    H235351   5.135   3.439   5.659 -1.2189 -1.4173 -1.7113
 4646TIP3   OH235352   4.706   4.797  10.875 -0.0555  0.1866  0.0164
 4646TIP3    H135353   4.634   4.836  10.826  0.3944  1.0374 -0.0000
 4646TIP3    H235354   4.752   4.743  10.811  0.3110  0.9966 -0.4184
 4647TIP3   OH235355   3.548   5.712   0.020  0.1205  0.0217  0.3009
 4647TIP3    H135356   3.542   5.634  -0.035 -0.1070 -0.1117  0.5191
 4647TIP3    H235357   3.626   5.697   0.074  0.8576  0.5317 -0.5722
 4648TIP3   OH235358   1.899   4.851  14.439  0.3190 -0.2695  0.0427
 4648TIP3    H135359   1.920   4.811  14.524  2.9307  1.1482  0.1874
 4648TIP3    H235360   1.984   4.860  14.396 -0.9346 -0.9250 -2.7672
 4649TIP3   OH235361   2.874   3.490   1.601 -0.1581  0.6284  0.4315
 4649TIP3    H135362   2.931   3.565   1.619 -0.4594  0.5385  1.8897
 4649TIP3    H235363   2.831   3.473   1.685 -0.3240 -0.9863  0.0372
 4650TIP3   OH235364   3.883   1.137   0.129  0.0388 -0.0440  0.4036
 4650TIP3    H135365   3.939   1.150   0.052  0.6291  0.8605  0.9692
 4650TIP3    H235366   3.937   1.089   0.191  0.2081  0.8346  0.9546
 4651TIP3   OH235367   0.066   2.137  14.406  0.2443 -0.0831  0.3078
 4651TIP3    H135368   0.099   2.178  14.327  1.9266 -0.6933  0.6481
 4651TIP3    H235369  -0.014   2.185  14.427 -0.3278 -0.0174 -1.8223
 4652TIP3   OH235370   5.531   5.576   6.119  0.2768  0.2236  0.0240
 4652TIP3    H135371   5.602   5.629   6.082 -0.1557  0.7338 -0.0818
 4652TIP3    H235372   5.511   5.512   6.051  1.2453 -0.5092  0.4069
 4653TIP3   OH235373   0.684   4.154  12.851  0.2976 -0.2974  0.4107
 4653TIP3    H135374   0.622   4.181  12.919  0.3115  1.1166 -0.0880
 4653TIP3    H235375   0.720   4.237  12.818  0.6943 -0.9824 -0.9366
 4654TIP3   OH235376   1.622   5.098   5.152 -0.4102  0.1585  0.1720
 4654TIP3    H135377   1.612   5.052   5.236  4.6415 -1.0948  0.4518
 4654TIP3    H235378   1.634   5.190   5.177 -2.9320  0.5216  0.3059
 4655TIP3   OH235379   3.313   6.748  12.518  0.4138  0.6076 -0.2011
 4655TIP3    H135380   3.286   6.780  12.604 -1.3810 -0.2382 -0.4065
 4655TIP3    H235381   3.256   6.793  12.456 -0.9627 -1.5410 -0.6206
 4656TIP3   OH235382   6.748   2.528   1.883  0.3149 -0.2611 -0.2258
 4656TIP3    H135383   6.781   2.613   1.911  0.3102 -0.1047 -0.6872
 4656TIP3    H235384   6.699   2.495   1.959 -0.4031  0.5238 -0.3370
 4657TIP3   OH235385   1.585   6.425  14.982 -0.1244 -0.7560 -0.1949
 4657TIP3    H135386   1.539   6.345  15.006 -1.3301 -0.4882 -1.4558
 4657TIP3    H235387   1.674   6.398  14.964 -0.0688 -1.5088  1.0747
 4658TIP3   OH235388   0.051   0.092   3.086  0.5064 -0.9068  0.5330
 4658TIP3    H135389   0.086   0.144   3.158 -0.1436  1.3111 -0.6430
 4658TIP3    H235390  -0.043   0.087   3.103  0.2409  0.2204 -0.4401
 4659TIP3   OH235391   4.348   3.737   1.309  0.0843 -0.2463  0.7789
 4659TIP3    H135392   4.319   3.647   1.299  0.0821 -0.1102 -0.7176
 4659TIP3    H235393   4.269   3.785   1.336 -0.0182 -0.6101  1.1354
 4660TIP3   OH235394   2.757   6.267  15.412  0.7279 -0.7477 -0.2781
 4660TIP3    H135395   2.770   6.175  15.432  1.5376 -0.8595 -1.2747
 4660TIP3    H235396   2.719   6.268  15.324 -0.1297 -0.1526  0.0731
 4661TIP3   OH235397   3.844   2.485   3.521  0.1165 -0.0771  0.1604
 4661TIP3    H135398   3.757   2.446   3.518 -0.8122  1.8749 -2.2424
 4661TIP3    H235399   3.846   2.536   3.602 -1.6247  1.0575 -0.4515
 4662TIP3   OH235400   2.398   4.985   6.401  0.0317 -0.1709  0.2042
 4662TIP3    H135401   2.486   4.949   6.391 -0.3444 -0.7907 -1.1733
 4662TIP3    H235402   2.374   5.015   6.313 -0.6427  1.1984  0.8175
 4663TIP3   OH235403   5.623   3.327   1.963  0.2388 -0.1777 -0.0718
 4663TIP3    H135404   5.700   3.333   1.906 -0.2871  1.1081 -0.6914
 4663TIP3    H235405   5.550   3.344   1.904 -0.7587 -3.3132  0.0796
 4664TIP3   OH235406   3.019   5.694   4.072 -0.9093 -0.2977  0.1539
 4664TIP3    H135407   2.990   5.617   4.120  0.3533 -0.2428  1.0628
 4664TIP3    H235408   2.952   5.760   4.090 -0.2050 -0.1081  2.3624
 4665TIP3   OH235409   4.423   0.494   5.459 -0.1781 -0.2309  0.2513
 4665TIP3    H135410   4.420   0.544   5.378  1.2063  0.7168  0.7383
 4665TIP3    H235411   4.468   0.413   5.435 -0.9503 -0.5432 -0.1858
 4666TIP3   OH235412   0.405   3.955   3.662 -0.2057 -0.6669 -0.0944
 4666TIP3    H135413   0.325   4.008   3.663  0.5980  0.6857 -1.7170
 4666TIP3    H235414   0.384   3.879   3.715 -2.2274  0.1424  0.3637
 4667TIP3   OH235415   3.498   0.001  11.461 -0.4828  0.1756 -0.4022
 4667TIP3    H135416   3.412   0.040  11.444 -1.1001 -0.6084  0.7380
 4667TIP3    H235417   3.520  -0.045  11.380 -1.6473 -0.4891 -0.3688
 4668TIP3   OH235418   1.802   1.511  13.051  0.3925 -0.5921  0.0978
 4668TIP3    H135419   1.774   1.464  12.972  0.0169  0.0903 -0.1814
 4668TIP3    H235420   1.760   1.597  13.044 -1.0322 -1.1116  1.9105
 4669TIP3   OH235421   2.100   2.620   5.478  0.7967  0.0281  0.1077
 4669TIP3    H135422   2.068   2.706   5.449 -0.2313  0.0506  1.2455
 4669TIP3    H235423   2.059   2.558   5.417  1.5143  0.3215 -0.6977
 4670TIP3   OH235424   6.522   5.517   5.200  0.3582 -0.5537  0.5629
 4670TIP3    H135425   6.494   5.472   5.280  0.1985 -1.0206  0.2493
 4670TIP3    H235426   6.538   5.607   5.228  0.6081 -0.7853  1.1861
 4671TIP3   OH235427   0.223   3.712   3.322  0.1964  0.5829 -0.1819
 4671TIP3    H135428   0.248   3.642   3.382  2.4846  2.1821  0.8846
 4671TIP3    H235429   0.164   3.767   3.374  0.9945  1.1614  0.1366
 4672TIP3   OH235430   5.915   5.988   3.592  0.0751  0.0336 -0.0777
 4672TIP3    H135431   5.888   5.899   3.613 -0.3994 -0.1502 -1.3628
 4672TIP3    H235432   5.839   6.042   3.615 -1.0981 -0.3511 -2.5986
 4673TIP3   OH235433   3.299   0.057  13.417 -0.2814  0.3608 -0.1256
 4673TIP3    H135434   3.246   0.076  13.494 -0.4764  0.4733 -0.2857
 4673TIP3    H235435   3.314   0.143  13.377  0.6631  0.4222  0.3311
 4674TIP3   OH235436   3.462   0.695   5.785 -0.0865  0.6521  0.4245
 4674TIP3    H135437   3.510   0.613   5.797 -0.8456  0.3549  1.5737
 4674TIP3    H235438   3.528   0.764   5.799  0.1821  0.2460  1.2051
 4675TIP3   OH235439   2.468   2.173  14.096 -0.0414  0.5439  0.6463
 4675TIP3    H135440   2.557   2.183  14.129 -0.0774  1.4725  0.5063
 4675TIP3    H235441   2.412   2.185  14.173 -0.0362 -1.7986  1.0896
 4676TIP3   OH235442   4.935   4.011   3.421  0.4093 -0.0991  0.3997
 4676TIP3    H135443   4.934   3.924   3.381  3.1856  0.1560 -0.4317
 4676TIP3    H235444   4.938   4.072   3.347 -1.9121  0.7966  0.9584
 4677TIP3   OH235445   4.947   4.027   1.988  0.2075 -0.2418  0.6663
 4677TIP3    H135446   4.966   4.094   2.054  0.9416 -1.8078  2.1379
 4677TIP3    H235447   5.028   3.977   1.981 -0.5014 -1.3451  0.0720
 4678TIP3   OH235448   6.034   2.744   2.255 -0.0998 -0.6801  0.6822
 4678TIP3    H135449   5.971   2.801   2.298  0.0917 -0.4067  0.6004
 4678TIP3    H235450   6.116   2.793   2.255 -0.4445  0.0131 -1.3709
 4679TIP3   OH235451   1.254   0.513  13.500  0.0117 -0.4298  0.2284
 4679TIP3    H135452   1.216   0.461  13.571 -0.0495 -1.9491 -0.8888
 4679TIP3    H235453   1.281   0.449  13.434  1.1153  0.8716 -0.6387
 4680TIP3   OH235454   2.016   3.174   3.997 -0.5091  0.3988 -0.1285
 4680TIP3    H135455   1.974   3.257   3.973 -1.8191  0.3001  1.5632
 4680TIP3    H235456   1.944   3.120   4.030  0.8272  0.1023  2.6706
 4681TIP3   OH235457   6.140   1.669  16.934  0.0804 -0.3796 -0.1375
 4681TIP3    H135458   6.078   1.626  16.992 -0.0521  0.4371  0.3413
 4681TIP3    H235459   6.220   1.679  16.987  0.8855 -2.0348 -0.9570
 4682TIP3   OH235460   4.536   5.654  15.000  0.0914 -0.1285 -0.0098
 4682TIP3    H135461   4.575   5.610  14.924  0.7410 -1.2653  0.9306
 4682TIP3    H235462   4.469   5.593  15.031 -0.9773  0.8532 -0.3431
 4683TIP3   OH235463   4.623   5.560  11.858  0.0510  0.1442 -0.1671
 4683TIP3    H135464   4.567   5.637  11.848 -0.1283  0.1701  0.8708
 4683TIP3    H235465   4.582   5.494  11.803  0.0441  0.7020 -0.8431
 4684TIP3   OH235466   6.191   0.611  12.723  0.3365 -0.3262  0.0220
 4684TIP3    H135467   6.225   0.662  12.650  1.0449 -0.0049  0.5713
 4684TIP3    H235468   6.183   0.522  12.688 -0.7340  0.0959 -0.8810
 4685TIP3   OH235469   6.665   6.633  16.010 -0.3990  0.1600  0.0239
 4685TIP3    H135470   6.715   6.591  16.080 -1.8648 -2.3648 -0.3512
 4685TIP3    H235471   6.729   6.645  15.940  0.3643 -0.2177  0.6396
 4686TIP3   OH235472   1.128   2.005  14.771 -0.0777  0.4187  0.3271
 4686TIP3    H135473   1.171   1.954  14.839  0.9482  0.1804 -0.4799
 4686TIP3    H235474   1.199   2.032  14.712 -0.9420  0.5698 -0.6840
 4687TIP3   OH235475   5.311   0.619  16.518  0.0289 -0.0660  0.3654
 4687TIP3    H135476   5.383   0.634  16.579  1.5660 -1.7805 -0.9038
 4687TIP3    H235477   5.275   0.534  16.544  0.5212 -0.6858 -0.8748
 4688TIP3   OH235478   6.688   6.664   2.227  0.1198 -0.2930 -0.5022
 4688TIP3    H135479   6.605   6.707   2.248 -1.1625 -2.7516 -0.1514
 4688TIP3    H235480   6.750   6.696   2.293 -0.9435  0.4854  0.1362
 4689TIP3   OH235481   0.596   3.125  12.252  0.2156 -0.4053 -0.1334
 4689TIP3    H135482   0.671   3.159  12.302  0.0633 -2.2619  1.4869
 4689TIP3    H235483   0.628   3.118  12.162  1.3909  0.5331  0.1781
 4690TIP3   OH235484   0.561   3.792  15.053 -0.8404 -0.0003  0.2834
 4690TIP3    H135485   0.656   3.794  15.049 -0.7620  0.7134  1.7374
 4690TIP3    H235486   0.533   3.811  14.963  0.4032  1.4016  0.1463
 4691TIP3   OH235487   6.433   1.840   3.410  0.1294 -0.2925 -0.4396
 4691TIP3    H135488   6.411   1.780   3.339  1.1152  0.2836 -1.2749
 4691TIP3    H235489   6.522   1.815   3.437 -0.2761 -0.5840  0.6891
 4692TIP3   OH235490   3.703   1.860  13.048  0.2846 -0.4413 -0.0392
 4692TIP3    H135491   3.639   1.921  13.012  1.3689  0.4139 -0.5787
 4692TIP3    H235492   3.712   1.793  12.981  1.2329  0.3825 -0.7713
 4693TIP3   OH235493   3.049   0.384  16.960  0.6396  0.1545  0.4881
 4693TIP3    H135494   3.066   0.360  17.052 -0.4475  1.4107  1.0402
 4693TIP3    H235495   3.135   0.411  16.927  1.8237 -3.4913  0.0328
 4694TIP3   OH235496   5.228   2.781  16.772 -0.1419 -0.1464  0.1279
 4694TIP3    H135497   5.176   2.748  16.846  1.3518  0.3911  1.4706
 4694TIP3    H235498   5.280   2.852  16.809  0.0282  0.7105 -1.6661
 4695TIP3   OH235499   6.610   2.462   2.167 -0.7011 -0.3085  0.6713
 4695TIP3    H135500   6.521   2.427   2.179 -0.5692 -1.6691 -1.6784
 4695TIP3    H235501   6.666   2.384   2.166  0.4595  0.4816  1.3517
 4696TIP3   OH235502   0.940   6.554  11.455 -0.0081 -0.0601 -0.2440
 4696TIP3    H135503   0.863   6.596  11.415 -0.2191  1.3180  1.4429
 4696TIP3    H235504   1.014   6.605  11.422 -0.2302  1.4907  1.4613
 4697TIP3   OH235505   3.106   1.112   0.205 -0.3131  0.0665  0.1369
 4697TIP3    H135506   3.040   1.119   0.137 -0.2194 -1.1928 -0.0989
 4697TIP3    H235507   3.066   1.153   0.282 -0.1312  2.1923 -0.8415
 4698TIP3   OH235508   1.890   2.125   2.372  0.2426 -0.1317  0.0724
 4698TIP3    H135509   1.949   2.051   2.390  0.1930 -0.4526 -1.0297
 4698TIP3    H235510   1.841   2.098   2.294 -1.6805 -0.0507  1.1808
 4699TIP3   OH235511   2.904   6.005  15.205 -0.0706  0.1771 -0.4169
 4699TIP3    H135512   2.961   6.076  15.235  1.2874 -0.1946 -1.9381
 4699TIP3    H235513   2.816   6.041  15.209  0.3875  1.2199  0.8039
 4700TIP3   OH235514   6.150   6.713   5.265  0.0201  0.0786 -0.1343
 4700TIP3    H135515   6.214   6.782   5.282 -0.6121  0.5518  0.3704
 4700TIP3    H235516   6.108   6.697   5.349  0.0868 -0.8589 -0.2642
 4701TIP3   OH235517   3.876   6.061   3.495 -0.0618  0.1776 -0.4399
 4701TIP3    H135518   3.799   6.116   3.512 -1.6187 -2.1900  0.6840
 4701TIP3    H235519   3.893   6.017   3.578  0.3887 -1.8963 -1.5575
 4702TIP3   OH235520   2.044   1.792  15.588 -0.4596 -0.1580  0.1853
 4702TIP3    H135521   2.048   1.883  15.558  1.6586 -0.0745  0.5246
 4702TIP3    H235522   2.055   1.740  15.509 -1.2872 -0.1160  0.0393
 4703TIP3   OH235523   1.880   4.909   4.075 -0.4106  0.2858 -0.3278
 4703TIP3    H135524   1.874   4.910   4.170  0.4814 -0.8216 -0.2354
 4703TIP3    H235525   1.794   4.881   4.045 -0.0135 -1.7726  0.2905
 4704TIP3   OH235526   1.665   6.095  15.668 -0.4566  0.3734 -1.0939
 4704TIP3    H135527   1.757   6.121  15.666 -0.4103  0.4404  0.6711
 4704TIP3    H235528   1.618   6.176  15.686 -0.6650 -0.0090  0.1606
 4705TIP3   OH235529   3.154   0.545  13.884 -0.1943 -0.1797 -0.5258
 4705TIP3    H135530   3.233   0.500  13.912  0.0404 -0.1693 -1.1554
 4705TIP3    H235531   3.108   0.481  13.829  0.1972  0.3727 -1.5227
 4706TIP3   OH235532   1.804   2.927  11.938 -0.0201 -0.5003 -0.0977
 4706TIP3    H135533   1.713   2.949  11.918 -0.2239 -0.1713  1.1308
 4706TIP3    H235534   1.800   2.885  12.024  0.4071 -4.9031 -1.9663
 4707TIP3   OH235535   1.779   6.660  11.678 -0.0661 -0.1858  0.2615
 4707TIP3    H135536   1.849   6.707  11.632  0.0371  2.2113  2.6368
 4707TIP3    H235537   1.809   6.654  11.769 -3.2491  1.8580  1.6153
 4708TIP3   OH235538   4.683   5.551   4.331  0.1448 -0.0409  0.0545
 4708TIP3    H135539   4.735   5.625   4.300 -1.2328  0.5557 -0.9268
 4708TIP3    H235540   4.641   5.516   4.253 -0.8049 -0.5882  0.7873
 4709TIP3   OH235541   0.400   2.950  10.979  0.0823 -0.5138 -0.6284
 4709TIP3    H135542   0.464   2.958  10.909 -0.3766 -1.4482 -1.1823
 4709TIP3    H235543   0.323   2.997  10.946 -0.2611 -1.2672 -0.9315
 4710TIP3   OH235544   5.616   3.987   4.769 -0.0956  0.0991  0.0627
 4710TIP3    H135545   5.598   3.939   4.850  0.0748 -0.8604 -0.4543
 4710TIP3    H235546   5.695   3.947   4.734  1.2138  2.0780  0.6019
 4711TIP3   OH235547   3.308   6.501   5.497  0.1309  0.4044  0.1886
 4711TIP3    H135548   3.293   6.552   5.417  0.4760 -0.5139 -0.4889
 4711TIP3    H235549   3.401   6.513   5.516  0.4149 -0.6356 -0.4706
 4712TIP3   OH235550   1.985   3.385   4.506 -0.1219 -0.6139 -0.2875
 4712TIP3    H135551   2.020   3.377   4.595 -1.0406  1.6424  0.3365
 4712TIP3    H235552   1.989   3.296   4.471  2.5553 -1.1349  1.0992
 4713TIP3   OH235553   6.414   6.451  17.047  0.3432  0.8296 -0.5979
 4713TIP3    H135554   6.472   6.381  17.017 -0.6020  0.6862 -2.2290
 4713TIP3    H235555   6.449   6.477  17.132  0.8950 -1.4350 -0.0592
 4714TIP3   OH235556   5.231   4.472   1.314  0.1467 -0.1995  0.1140
 4714TIP3    H135557   5.240   4.387   1.359  1.2304 -0.4415 -0.5251
 4714TIP3    H235558   5.307   4.522   1.344  0.3527 -0.0197 -0.6900
 4715TIP3   OH235559   6.029   5.501  12.655 -0.0608 -0.2267  0.0133
 4715TIP3    H135560   6.051   5.549  12.575  2.6747 -1.4602 -0.0610
 4715TIP3    H235561   5.984   5.422  12.625  1.3560 -0.9069 -0.4069
 4716TIP3   OH235562   2.536   1.102   0.996 -0.1373  0.0611  0.0004
 4716TIP3    H135563   2.458   1.083   0.944  0.0798  0.0425 -0.3248
 4716TIP3    H235564   2.504   1.112   1.085 -0.9421  2.7532 -0.5043
 4717TIP3   OH235565   1.742   4.600  12.171  0.1587  0.3217 -0.3567
 4717TIP3    H135566   1.752   4.530  12.107  0.3317  0.8542 -0.9175
 4717TIP3    H235567   1.781   4.677  12.129 -0.7355  0.9422 -0.0756
 4718TIP3   OH235568   0.938   1.148  10.228  0.6002  0.2037  0.4223
 4718TIP3    H135569   1.016   1.129  10.176  0.4611 -0.7415  0.5413
 4718TIP3    H235570   0.892   1.064  10.233 -1.6346  1.2099 -1.5880
 4719TIP3   OH235571   0.224   0.651  16.072 -0.4909 -0.3189  0.3319
 4719TIP3    H135572   0.139   0.622  16.040 -1.2295  0.6478  1.3717
 4719TIP3    H235573   0.205   0.717  16.138  1.0405 -0.7376  1.2547
 4720TIP3   OH235574   4.723   5.269  11.360 -0.3852  0.4054 -0.2615
 4720TIP3    H135575   4.728   5.354  11.316  0.6110  0.4886 -0.0008
 4720TIP3    H235576   4.674   5.214  11.299  1.2174  0.4359 -1.6519
 4721TIP3   OH235577   4.812   1.510  10.201  0.0974  0.6292 -0.3254
 4721TIP3    H135578   4.727   1.467  10.197  0.4588 -0.6118  2.4512
 4721TIP3    H235579   4.856   1.467  10.275  2.9916  1.4756 -1.4212
 4722TIP3   OH235580   1.723   4.752  15.328 -0.3682  0.4553  0.5730
 4722TIP3    H135581   1.740   4.663  15.356 -1.9609  0.1301  0.6296
 4722TIP3    H235582   1.680   4.794  15.403  0.3545  1.2692  0.5490
 4723TIP3   OH235583   0.596   1.380  12.560 -0.2436  0.3220 -0.1593
 4723TIP3    H135584   0.683   1.369  12.600  0.1339  2.6482 -0.2063
 4723TIP3    H235585   0.586   1.303  12.505  1.4255 -0.4389  0.5118
 4724TIP3   OH235586   5.204   6.106   4.076  0.6933  0.2410  0.1475
 4724TIP3    H135587   5.244   6.185   4.113  2.1335 -0.1003 -0.6078
 4724TIP3    H235588   5.245   6.034   4.124 -0.0229 -0.0769  0.2845
 4725TIP3   OH235589   0.218   3.652  13.748 -0.3799 -0.7965  0.4998
 4725TIP3    H135590   0.236   3.610  13.832 -1.2175 -1.2114  0.4848
 4725TIP3    H235591   0.133   3.617  13.722 -0.2481 -0.4712 -0.3958
 4726TIP3   OH235592   5.124   4.529  16.524 -0.5240 -0.1681 -0.6495
 4726TIP3    H135593   5.198   4.588  16.534  1.8901 -3.3210  2.6318
 4726TIP3    H235594   5.100   4.535  16.431  1.4258  3.6084 -1.0762
 4727TIP3   OH235595   3.824   2.275   1.009  0.1986  0.6526  0.0527
 4727TIP3    H135596   3.734   2.272   1.042  0.0063  1.1842 -0.4175
 4727TIP3    H235597   3.814   2.290   0.915  0.7681  0.1468 -0.0900
 4728TIP3   OH235598   6.273   6.523  14.852 -0.0248  0.1065  0.3173
 4728TIP3    H135599   6.315   6.575  14.919 -0.0708  0.2124  0.2652
 4728TIP3    H235600   6.342   6.506  14.787 -0.6459  2.5914 -1.1640
 4729TIP3   OH235601   4.484   6.654   6.224  0.0507  0.5682 -0.2781
 4729TIP3    H135602   4.514   6.688   6.308  1.0294  0.7156 -0.6701
 4729TIP3    H235603   4.558   6.669   6.165 -0.2947 -0.3341 -0.9540
 4730TIP3   OH235604   0.695   2.054  10.814 -0.3088  0.1981 -0.3668
 4730TIP3    H135605   0.648   1.971  10.801 -1.3757  0.5818  0.7984
 4730TIP3    H235606   0.695   2.095  10.728  0.7126 -1.2296 -1.0907
 4731TIP3   OH235607   3.116   5.655  14.636 -0.3441  0.4184  0.4591
 4731TIP3    H135608   3.132   5.733  14.583 -0.3568  0.8835  1.1303
 4731TIP3    H235609   3.141   5.582  14.579  1.4383  0.9818  0.4434
 4732TIP3   OH235610   0.151   0.715   0.840 -0.0688 -0.1940 -0.1555
 4732TIP3    H135611   0.062   0.735   0.868  0.6374 -0.0469  2.2076
 4732TIP3    H235612   0.195   0.800   0.838  0.1542 -0.3151 -0.9056
 4733TIP3   OH235613   0.958   5.170  16.319  0.0319 -0.3781 -0.6788
 4733TIP3    H135614   1.011   5.247  16.297  0.8396 -0.8237 -0.3223
 4733TIP3    H235615   0.929   5.187  16.409  1.4171 -1.1417 -0.0666
 4734TIP3   OH235616   4.198   2.861   1.226 -0.0026  0.7839  0.1115
 4734TIP3    H135617   4.123   2.897   1.179 -1.2189  1.4016  2.3717
 4734TIP3    H235618   4.160   2.799   1.287  1.5363 -0.1379  0.1861
 4735TIP3   OH235619   6.250   5.061  11.748 -0.0805 -0.3942  0.2345
 4735TIP3    H135620   6.294   5.134  11.793  3.2032 -0.5311 -2.4093
 4735TIP3    H235621   6.296   4.983  11.778 -1.5105 -1.1067  0.6676
 4736TIP3   OH235622   1.826   6.082  15.141 -0.0504  0.4384 -0.2996
 4736TIP3    H135623   1.756   6.109  15.201 -1.4421 -0.5409 -1.4249
 4736TIP3    H235624   1.785   6.018  15.083  2.1449 -1.1902 -0.1552
 4737TIP3   OH235625   4.175   2.806  16.312 -0.1455  0.0387 -0.0206
 4737TIP3    H135626   4.149   2.892  16.278  0.6750 -0.2650 -1.4637
 4737TIP3    H235627   4.251   2.825  16.366 -1.1309  0.4500  1.2895
 4738TIP3   OH235628   5.781   4.448  13.823  0.6593 -0.3198 -0.1299
 4738TIP3    H135629   5.790   4.521  13.762  2.1346 -1.1137 -0.9209
 4738TIP3    H235630   5.707   4.472  13.879 -0.3131  0.7418 -1.7967
 4739TIP3   OH235631   1.490   3.341   6.033  0.1073  0.3073  0.6039
 4739TIP3    H135632   1.469   3.435   6.034  0.1951  0.4113 -1.5442
 4739TIP3    H235633   1.581   3.337   6.060  0.4340  0.9925 -0.3193
 4740TIP3   OH235634   2.481   2.220  16.375  0.2598 -0.2887  0.2112
 4740TIP3    H135635   2.530   2.273  16.311 -1.3576  0.0541 -0.8291
 4740TIP3    H235636   2.491   2.130  16.344  1.4946 -0.4069  0.9121
 4741TIP3   OH235637   2.006   5.666  12.529  0.1669  0.0019  0.4581
 4741TIP3    H135638   2.071   5.596  12.536  0.4950  0.1377 -0.9070
 4741TIP3    H235639   1.953   5.641  12.453 -0.9575  0.2401  1.1537
 4742TIP3   OH235640   0.925   4.323  13.208 -0.2978  0.1880  0.3048
 4742TIP3    H135641   0.958   4.319  13.118  0.2838 -0.4442  0.5387
 4742TIP3    H235642   1.002   4.306  13.262 -0.9579 -1.1448  0.8667
 4743TIP3   OH235643   4.525   5.538  12.893 -0.6389  0.2303  0.3744
 4743TIP3    H135644   4.482   5.622  12.902 -1.7304 -0.4227  1.5848
 4743TIP3    H235645   4.479   5.480  12.954  1.3727 -0.7406  1.0776
 4744TIP3   OH235646   1.464   5.293   2.822  0.6382 -0.5187  0.0835
 4744TIP3    H135647   1.547   5.302   2.869  0.4475 -1.3160  0.5841
 4744TIP3    H235648   1.449   5.199   2.817 -1.4852 -0.3869  2.2212
 4745TIP3   OH235649   4.763   4.687  16.209 -0.3790 -0.3842  0.3293
 4745TIP3    H135650   4.790   4.691  16.118 -0.7925  0.7283  0.2364
 4745TIP3    H235651   4.768   4.778  16.240  1.4092 -0.9490  1.9165
 4746TIP3   OH235652   4.979   6.296  11.150  0.3979 -0.0790 -0.3398
 4746TIP3    H135653   5.032   6.235  11.098  0.0769  0.7831 -1.7298
 4746TIP3    H235654   5.008   6.383  11.121 -0.6830  0.4136  0.0132
 4747TIP3   OH235655   3.468   6.138   2.588  0.0813 -0.9291 -0.1496
 4747TIP3    H135656   3.408   6.199   2.631  2.2799  0.2217  1.4893
 4747TIP3    H235657   3.490   6.181   2.505 -0.2468 -0.7062 -0.1261
 4748TIP3   OH235658   3.221   5.607   4.924  0.0946  0.0945  0.1721
 4748TIP3    H135659   3.253   5.569   4.842 -0.3223 -4.4844  1.8330
 4748TIP3    H235660   3.269   5.561   4.992 -1.0936  2.1968  2.5974
 4749TIP3   OH235661   2.398   0.367   6.795 -0.5683 -0.4578 -0.2348
 4749TIP3    H135662   2.415   0.443   6.852 -2.2492  0.1439 -0.4789
 4749TIP3    H235663   2.421   0.291   6.849 -1.1457  0.1335  0.8870
 4750TIP3   OH235664   2.481   3.179  11.770  0.6205  0.0363  0.1344
 4750TIP3    H135665   2.386   3.179  11.761  0.6226 -0.4418  0.0743
 4750TIP3    H235666   2.503   3.267  11.800  0.2726  0.5744 -1.1258
 4751TIP3   OH235667   4.621   5.967   3.738  0.8012 -0.2154 -0.4317
 4751TIP3    H135668   4.633   6.051   3.781 -1.2301  0.7977 -1.7008
 4751TIP3    H235669   4.619   5.987   3.645 -2.7882 -1.0997 -0.6890
 4752TIP3   OH235670   1.516   6.476  14.542  0.0202  0.1799 -0.0488
 4752TIP3    H135671   1.538   6.413  14.473  1.5161  0.0111  0.5487
 4752TIP3    H235672   1.597   6.524  14.557  0.0694 -0.5238  2.3298
 4753TIP3   OH235673   4.581   2.329   0.342 -0.3084 -0.0174 -0.9062
 4753TIP3    H135674   4.505   2.361   0.390 -0.5452 -1.9556  0.0824
 4753TIP3    H235675   4.594   2.394   0.273 -1.5321  1.4812  0.1995
 4754TIP3   OH235676   4.464   4.452  12.199  0.3594  0.1070 -0.2591
 4754TIP3    H135677   4.449   4.542  12.171  1.2820  0.1497 -0.6684
 4754TIP3    H235678   4.438   4.399  12.123  0.0146  0.0405 -0.0947
 4755TIP3   OH235679   2.178   5.705  12.733 -0.1460 -0.3981  0.6138
 4755TIP3    H135680   2.137   5.746  12.657 -0.4656  0.7833  1.4047
 4755TIP3    H235681   2.105   5.682  12.791  0.2342  2.1612  2.2513
 4756TIP3   OH235682   4.051   5.695  14.171  0.8201 -0.0909  0.1143
 4756TIP3    H135683   4.044   5.647  14.088 -1.6104  2.1236 -1.1246
 4756TIP3    H235684   4.004   5.639  14.234  0.9839 -0.8957 -0.4545
 4757TIP3   OH235685   2.255   6.528   0.303 -0.2116  0.1010 -0.0507
 4757TIP3    H135686   2.215   6.484   0.378  1.4708  0.2417  0.9855
 4757TIP3    H235687   2.185   6.582   0.267 -1.1826 -0.3144  1.1360
 4758TIP3   OH235688   4.266   1.493  10.903 -0.5757 -0.1092 -0.0805
 4758TIP3    H135689   4.189   1.437  10.892 -0.8294 -0.2340  1.9157
 4758TIP3    H235690   4.329   1.461  10.839 -1.4982 -1.2560 -0.4524
 4759TIP3   OH235691   5.724   5.952  16.959  0.3189 -0.6126 -0.1315
 4759TIP3    H135692   5.799   5.961  17.017 -0.6574  0.6156  0.9977
 4759TIP3    H235693   5.664   6.022  16.985 -0.8839 -1.0572 -1.5283
 4760TIP3   OH235694   3.044   1.767  10.861 -0.8817 -0.6922 -0.1478
 4760TIP3    H135695   3.082   1.685  10.830 -1.4046 -1.0986  0.2665
 4760TIP3    H235696   2.982   1.792  10.793  0.2020  0.0542 -0.9017
 4761TIP3   OH235697   3.758   1.794  12.011 -0.1574  0.4741 -0.6031
 4761TIP3    H135698   3.742   1.888  12.004  2.3931  0.9762 -0.6281
 4761TIP3    H235699   3.828   1.786  12.075 -1.8346 -1.6489  1.1027
 4762TIP3   OH235700   1.713   4.879  11.175 -0.4248  0.5076  0.4640
 4762TIP3    H135701   1.738   4.972  11.179  1.7502  0.0254 -0.2957
 4762TIP3    H235702   1.668   4.863  11.258  1.5868  1.6462  1.8956
 4763TIP3   OH235703   6.097   3.537  15.125 -0.3572  0.3879 -0.1102
 4763TIP3    H135704   6.018   3.543  15.179 -0.7972 -2.0853 -0.3295
 4763TIP3    H235705   6.091   3.450  15.085  2.3920  0.2067 -0.2951
 4764TIP3   OH235706   3.452   5.307   6.466 -0.2135 -0.0393  0.0856
 4764TIP3    H135707   3.379   5.251   6.492  1.0142 -1.7897 -0.0447
 4764TIP3    H235708   3.530   5.257   6.490  0.9500  1.3473 -0.6398
 4765TIP3   OH235709   2.531   3.978  13.654  0.0508 -0.2772  0.2698
 4765TIP3    H135710   2.526   3.934  13.739 -0.5316 -0.1467  0.3071
 4765TIP3    H235711   2.601   4.042  13.664 -1.9157  1.8062  1.6503
 4766TIP3   OH235712   2.825   0.760  13.868 -0.4002 -0.0561 -0.2442
 4766TIP3    H135713   2.757   0.720  13.813  0.8505 -1.0175 -1.1622
 4766TIP3    H235714   2.872   0.686  13.906  0.5711  0.5667 -0.1865
 4767TIP3   OH235715   2.779   5.276  12.106 -0.7725  0.3114  0.5891
 4767TIP3    H135716   2.731   5.198  12.079  1.5001 -1.1570  0.6364
 4767TIP3    H235717   2.815   5.311  12.024 -0.8992  0.7219  0.7062
 4768TIP3   OH235718   4.803   1.551  14.658 -0.0098 -0.1924 -0.2782
 4768TIP3    H135719   4.835   1.476  14.607 -0.3461 -0.9954  0.6427
 4768TIP3    H235720   4.872   1.567  14.722  0.0659  0.3014 -0.4825
 4769TIP3   OH235721   4.046   1.054   3.803  0.4823  0.0017 -0.0319
 4769TIP3    H135722   4.017   1.035   3.892  0.7596  0.5958  0.1940
 4769TIP3    H235723   4.055   1.150   3.801 -3.5139  0.5843 -1.8853
 4770TIP3   OH235724   1.789   4.985  12.494  0.0471  0.0038 -0.3246
 4770TIP3    H135725   1.864   5.037  12.522  0.3204 -1.3166  1.6636
 4770TIP3    H235726   1.825   4.924  12.429  0.6434 -0.3569  0.3242
 4771TIP3   OH235727   3.617   2.225   1.270 -0.0651 -0.1118  0.4995
 4771TIP3    H135728   3.551   2.193   1.209 -1.3080 -0.5074  1.9878
 4771TIP3    H235729   3.668   2.147   1.293  0.9536  0.1930 -0.6467
 4772TIP3   OH235730   6.519   2.188   3.679 -0.2964  0.4792  0.4903
 4772TIP3    H135731   6.585   2.152   3.621  1.4930  1.0835  2.0610
 4772TIP3    H235732   6.503   2.119   3.743  0.3023  1.0312  1.2591
 4773TIP3   OH235733   2.361   6.771  16.183 -0.1746  0.0211 -0.3573
 4773TIP3    H135734   2.382   6.698  16.126 -2.5797  0.7598 -2.4114
 4773TIP3    H235735   2.280   6.745  16.226 -0.4884  1.0101 -0.3114
 4774TIP3   OH235736   4.569   1.836  12.382 -0.0981  0.4747  0.1374
 4774TIP3    H135737   4.546   1.744  12.394  0.8744  0.3247  0.9700
 4774TIP3    H235738   4.494   1.884  12.417 -0.4806  0.0037 -0.0265
 4775TIP3   OH235739   4.427   3.171   0.603  0.0512  0.0484 -0.1983
 4775TIP3    H135740   4.507   3.213   0.634 -0.6302  1.3116 -0.0749
 4775TIP3    H235741   4.386   3.135   0.682  0.4945 -0.6213 -0.2653
 4776TIP3   OH235742   3.999   3.144   6.460 -0.1243 -0.2034  0.4855
 4776TIP3    H135743   3.933   3.155   6.391 -0.4334 -2.8270  0.2540
 4776TIP3    H235744   3.970   3.203   6.530 -0.2080  1.9856 -1.2808
 4777TIP3   OH235745   1.850   5.724   1.983  0.5680  0.1031  0.0708
 4777TIP3    H135746   1.914   5.754   2.048 -0.7195  1.5239  0.7595
 4777TIP3    H235747   1.809   5.805   1.952 -0.9625 -0.7678 -0.2710
 4778TIP3   OH235748   2.877   3.677  11.605  0.0356 -0.3300  0.4969
 4778TIP3    H135749   2.785   3.652  11.599  0.0737 -0.3678  0.0434
 4778TIP3    H235750   2.878   3.748  11.669 -0.5920  1.0236 -0.9433
 4779TIP3   OH235751   6.784   3.540   2.562 -0.1276  0.6088  0.3268
 4779TIP3    H135752   6.689   3.528   2.554 -0.2523  1.4953  0.3332
 4779TIP3    H235753   6.811   3.577   2.478  0.4522 -0.9112 -0.1952
 4780TIP3   OH235754   3.181   1.717   4.458 -0.0539 -0.4755 -0.5599
 4780TIP3    H135755   3.244   1.673   4.515  0.3614 -0.6813 -1.1665
 4780TIP3    H235756   3.234   1.765   4.396 -0.4987 -0.5032 -0.9683
 4781TIP3   OH235757   3.968   1.415  12.951 -0.0859  0.0578 -0.2645
 4781TIP3    H135758   3.991   1.375  12.867  0.2754 -2.4884  0.9516
 4781TIP3    H235759   4.050   1.417  13.000 -0.6533 -0.3123  0.7212
 4782TIP3   OH235760   4.241   1.364   0.971 -0.2176  0.3520  0.6814
 4782TIP3    H135761   4.312   1.360   0.906 -1.9698 -0.6814 -1.2829
 4782TIP3    H235762   4.199   1.449   0.956 -1.2259 -0.2871 -0.2706
 4783TIP3   OH235763   2.084   0.540  13.100 -0.2645  0.1190 -0.8028
 4783TIP3    H135764   2.015   0.486  13.060 -2.1906  0.6492  1.5802
 4783TIP3    H235765   2.117   0.486  13.172  0.0803  0.8272 -0.4263
 4784TIP3   OH235766   4.800   0.360  17.026  0.3539 -0.3088  0.8481
 4784TIP3    H135767   4.879   0.306  17.029  0.9879  0.5413  0.0415
 4784TIP3    H235768   4.761   0.350  17.113  0.3933 -2.1150  0.6994
 4785TIP3   OH235769   5.796   5.857  10.648  0.0049 -0.4092 -0.1032
 4785TIP3    H135770   5.779   5.771  10.608 -0.5593 -0.5831  0.5031
 4785TIP3    H235771   5.784   5.919  10.576  2.5540 -0.9749 -1.1017
 4786TIP3   OH235772   2.629   1.778   3.331 -0.1400  0.3141  0.3063
 4786TIP3    H135773   2.552   1.821   3.294  0.6372  2.8509  1.3709
 4786TIP3    H235774   2.664   1.725   3.260 -2.8671 -1.0278 -0.1784
 4787TIP3   OH235775   0.789   0.444  14.289  0.4092 -0.8568 -0.2409
 4787TIP3    H135776   0.852   0.437  14.361  0.4284 -0.9316 -0.2658
 4787TIP3    H235777   0.728   0.512  14.317 -1.2388 -2.7940  1.0768
 4788TIP3   OH235778   2.228   2.166  13.239  0.1880 -0.0813  0.1534
 4788TIP3    H135779   2.162   2.161  13.171 -0.3165 -1.5647  0.7091
 4788TIP3    H235780   2.289   2.094  13.219 -0.0468 -0.6287  1.3228
 4789TIP3   OH235781   5.977   3.285  17.073  0.4868  0.2626 -0.6048
 4789TIP3    H135782   6.020   3.243  16.998  0.5772 -0.2364 -0.2746
 4789TIP3    H235783   6.019   3.370  17.080 -0.2162  0.7383 -1.7534
 4790TIP3   OH235784   2.429   2.995   4.345  0.0312  0.3841  0.1794
 4790TIP3    H135785   2.515   2.980   4.383 -0.3669 -0.2131  0.8680
 4790TIP3    H235786   2.400   2.908   4.315 -1.0520  0.2366  1.5356
 4791TIP3   OH235787   0.267   2.757  14.876 -0.4150 -0.0674  0.0686
 4791TIP3    H135788   0.296   2.768  14.786  0.2813 -0.7819  0.1893
 4791TIP3    H235789   0.192   2.815  14.885 -0.5367 -0.0477 -0.9882
 4792TIP3   OH235790   2.559   4.039   4.261 -0.6849 -0.3131 -0.6158
 4792TIP3    H135791   2.646   4.056   4.297 -0.9385 -1.7759  0.8543
 4792TIP3    H235792   2.572   4.033   4.167  1.1198 -1.9058 -0.3331
 4793TIP3   OH235793   2.113   1.197  16.208  0.0058  0.4353 -0.0052
 4793TIP3    H135794   2.156   1.279  16.229 -0.1729  0.6237 -0.3696
 4793TIP3    H235795   2.121   1.144  16.288 -0.1337  0.9132  0.3298
 4794TIP3   OH235796   6.195   3.623  12.640  0.4621  0.4830 -0.5256
 4794TIP3    H135797   6.242   3.583  12.713 -1.3976  0.2991  0.6184
 4794TIP3    H235798   6.219   3.716  12.644  1.6998  0.1991 -0.7815
 4795TIP3   OH235799   6.056   1.378  11.257 -0.3938 -0.3768  0.7838
 4795TIP3    H135800   6.148   1.355  11.272  0.1614  0.8996 -0.4539
 4795TIP3    H235801   6.041   1.357  11.165 -0.9586  0.6061  0.6423
 4796TIP3   OH235802   6.395   6.025   2.400 -0.3892 -0.5485 -0.3428
 4796TIP3    H135803   6.323   6.043   2.341  0.6683 -0.8944 -1.7845
 4796TIP3    H235804   6.468   6.078   2.367 -0.2587  0.6742  1.7445
 4797TIP3   OH235805   4.596   0.948  10.615  0.3009 -0.4211 -0.2919
 4797TIP3    H135806   4.632   0.915  10.533  2.0487 -0.3426  0.4044
 4797TIP3    H235807   4.672   0.959  10.672 -0.8070  0.0852  1.1496
 4798TIP3   OH235808   3.590   0.440  14.629  0.3038 -0.4377  0.6936
 4798TIP3    H135809   3.676   0.457  14.667  1.5509 -3.5521 -0.3851
 4798TIP3    H235810   3.586   0.497  14.552  3.1532 -2.6873 -1.3721
 4799TIP3   OH235811   4.854   0.759  12.986  0.1320 -0.1199  0.1058
 4799TIP3    H135812   4.928   0.702  12.964  1.1441  1.5140 -0.9946
 4799TIP3    H235813   4.894   0.832  13.033 -0.6039  1.2276 -1.2541
 4800TIP3   OH235814   6.327   2.169   3.045  0.3062  0.3032  0.0752
 4800TIP3    H135815   6.276   2.159   3.125  1.0480  2.1689  0.8440
 4800TIP3    H235816   6.287   2.244   3.000 -0.6406 -1.2213 -1.7974
 4801TIP3   OH235817   4.766   3.879  12.651 -0.5643  0.2662  0.0400
 4801TIP3    H135818   4.826   3.936  12.699 -0.1051  0.4626 -0.7491
 4801TIP3    H235819   4.689   3.933  12.635 -0.9170  0.0450  0.9750
 4802TIP3   OH235820   0.230   1.128  13.339  0.1456 -0.1284 -0.2083
 4802TIP3    H135821   0.229   1.053  13.279 -1.1246  0.6937 -1.2704
 4802TIP3    H235822   0.319   1.163  13.332  0.6699 -1.3467  0.0837
 4803TIP3   OH235823   5.365   3.528  14.808 -0.3055  0.3740 -0.2833
 4803TIP3    H135824   5.416   3.450  14.828 -1.5769 -0.6862 -1.0094
 4803TIP3    H235825   5.392   3.592  14.874 -0.1283 -1.0899  1.1390
 4804TIP3   OH235826   5.004   4.702   5.192  0.3809  0.4559 -0.1597
 4804TIP3    H135827   5.084   4.664   5.227 -0.5722 -0.1238  1.4951
 4804TIP3    H235828   4.976   4.765   5.258 -1.3498 -0.4800  0.0680
 4805TIP3   OH235829   3.981   4.489   2.452 -0.1507 -0.4492 -0.3830
 4805TIP3    H135830   3.973   4.584   2.451 -1.6550 -0.5350  0.5927
 4805TIP3    H235831   4.062   4.471   2.403  0.8219  1.3756  0.4656
 4806TIP3   OH235832   3.977   6.626   0.315 -0.2170 -0.0440 -0.2497
 4806TIP3    H135833   4.023   6.551   0.276  0.7032  0.3823 -0.0216
 4806TIP3    H235834   3.886   6.598   0.321  0.1913 -1.3409  0.2860
 4807TIP3   OH235835   6.671   4.271  17.039 -0.3271 -0.0843 -0.4199
 4807TIP3    H135836   6.598   4.236  16.988  0.0478  0.0698 -1.0734
 4807TIP3    H235837   6.749   4.239  16.994  0.0673  2.3345 -1.6292
 4808TIP3   OH235838   5.307   5.803   0.779  0.6338 -0.4933  1.5681
 4808TIP3    H135839   5.238   5.863   0.805  0.0524  0.1062 -1.0355
 4808TIP3    H235840   5.369   5.857   0.731  1.3508 -1.5361  1.2871
 4809TIP3   OH235841   0.288   2.059  12.035 -0.0593  0.0901 -0.5728
 4809TIP3    H135842   0.361   2.000  12.049  2.1882  2.5906 -0.9812
 4809TIP3    H235843   0.304   2.132  12.094 -3.2274  0.0113  0.6171
 4810TIP3   OH235844   5.400   1.866  15.282 -0.0322  0.3336  0.0935
 4810TIP3    H135845   5.336   1.937  15.281 -1.3996 -0.8281 -1.8000
 4810TIP3    H235846   5.448   1.877  15.199 -0.6051 -1.2109 -0.4673
 4811TIP3   OH235847   3.341   1.215   4.150 -0.5393 -0.2471 -0.1625
 4811TIP3    H135848   3.334   1.295   4.097  0.0790 -0.2449 -0.2402
 4811TIP3    H235849   3.413   1.166   4.110  0.4513  0.1048  1.1269
 4812TIP3   OH235850   1.744   3.362   6.159 -0.0604  0.5523 -0.2235
 4812TIP3    H135851   1.802   3.291   6.186 -2.1848 -0.6894  1.3530
 4812TIP3    H235852   1.799   3.416   6.102  2.0995 -1.4672 -0.2465
 4813TIP3   OH235853   3.762   3.937   0.700  0.4858 -0.4598  0.4965
 4813TIP3    H135854   3.804   3.892   0.773 -0.5868 -0.6486  1.0256
 4813TIP3    H235855   3.718   4.012   0.742 -1.5139 -1.4692  0.3440
 4814TIP3   OH235856   4.949   5.223  16.345  0.3767  0.3572  0.0271
 4814TIP3    H135857   4.857   5.207  16.369  0.8668 -0.9149  1.2187
 4814TIP3    H235858   4.952   5.206  16.251 -0.6331  0.5300 -0.0509
 4815TIP3   OH235859   2.393   1.213   1.665  0.0643 -0.0709 -0.1856
 4815TIP3    H135860   2.435   1.298   1.681  1.2110 -0.4712 -1.0155
 4815TIP3    H235861   2.334   1.202   1.740  2.3816 -0.0825  1.7702
 4816TIP3   OH235862   5.321   4.773  13.405  0.1248 -0.4171 -0.4880
 4816TIP3    H135863   5.362   4.845  13.357  0.7944 -1.3714 -1.3757
 4816TIP3    H235864   5.330   4.697  13.348 -0.7000 -1.1918  0.3685
 4817TIP3   OH235865   4.790   2.979   0.550 -0.0231  0.6808 -0.0930
 4817TIP3    H135866   4.749   3.049   0.499 -0.3799  0.2469 -0.4037
 4817TIP3    H235867   4.800   3.016   0.637 -0.7642  0.9142 -0.1007
 4818TIP3   OH235868   1.843   2.506  15.883  0.3591  0.7327 -0.0033
 4818TIP3    H135869   1.863   2.508  15.977 -0.2860 -1.7538  0.2672
 4818TIP3    H235870   1.908   2.565  15.844  0.8378  1.5963  1.9597
 4819TIP3   OH235871   0.165   1.527   5.912  0.6409 -0.4540  0.2725
 4819TIP3    H135872   0.230   1.590   5.942  0.4466 -0.4829  0.7744
 4819TIP3    H235873   0.091   1.580   5.884 -0.2371 -0.4675  2.3735
 4820TIP3   OH235874   3.017   3.217   4.922 -0.0260 -0.1453 -0.4160
 4820TIP3    H135875   3.057   3.284   4.978 -0.9282  0.0227  0.0392
 4820TIP3    H235876   3.088   3.155   4.906  0.5537  0.3986 -0.0216
 4821TIP3   OH235877   3.674   1.510   1.957 -0.4395  0.1909 -0.3227
 4821TIP3    H135878   3.628   1.426   1.947  1.1614 -0.8190  0.3587
 4821TIP3    H235879   3.668   1.529   2.051  0.5790 -0.0060 -0.2082
 4822TIP3   OH235880   1.865   5.393   1.533 -0.0797 -0.4909  0.5240
 4822TIP3    H135881   1.857   5.439   1.617 -1.8732  1.1988 -0.5125
 4822TIP3    H235882   1.947   5.344   1.541 -0.0406 -0.1471  3.1396
 4823TIP3   OH235883   2.665   6.568   1.593  0.6851 -0.4172 -0.8708
 4823TIP3    H135884   2.678   6.661   1.577 -0.6081 -0.1638 -0.5775
 4823TIP3    H235885   2.740   6.542   1.646  1.7835  0.1300 -2.1005
 4824TIP3   OH235886   5.738   6.491   1.152  0.0641  0.4264 -0.2330
 4824TIP3    H135887   5.799   6.458   1.218  0.4003  0.4499 -0.5319
 4824TIP3    H235888   5.663   6.432   1.158 -0.6625  1.4381  1.3611
 4825TIP3   OH235889   3.002   1.661  16.870  0.6229 -0.1544  0.2677
 4825TIP3    H135890   3.045   1.699  16.946  2.5494  2.0577 -1.7677
 4825TIP3    H235891   3.029   1.716  16.797  0.1038 -3.0103 -2.2923
 4826TIP3   OH235892   0.657   1.023  13.176  0.4081 -0.9303  0.6660
 4826TIP3    H135893   0.736   1.011  13.229  0.5803 -1.3377  0.3286
 4826TIP3    H235894   0.619   0.935  13.169 -0.2519 -0.6888  1.0927
 4827TIP3   OH235895   3.202   5.421   1.987  0.4215 -0.4734  0.1955
 4827TIP3    H135896   3.131   5.484   1.979  0.3185 -0.4336  1.2716
 4827TIP3    H235897   3.159   5.338   2.010  0.5651 -0.9248 -1.0743
 4828TIP3   OH235898   6.453   3.818  14.881  0.2067  0.1633  0.0876
 4828TIP3    H135899   6.403   3.739  14.863  1.3412 -0.6054  0.1983
 4828TIP3    H235900   6.492   3.842  14.796 -0.5283  0.9031 -0.0544
 4829TIP3   OH235901   6.360   1.622   5.993  0.8193  0.2028  0.0845
 4829TIP3    H135902   6.337   1.710   5.963  1.7094  0.5256  0.2993
 4829TIP3    H235903   6.415   1.636   6.070  1.5632 -0.5069 -0.2874
 4830TIP3   OH235904   3.705   5.533   5.600 -0.4976 -0.0903 -0.4168
 4830TIP3    H135905   3.709   5.586   5.521  0.1507  0.2484 -0.1654
 4830TIP3    H235906   3.791   5.492   5.606  0.6164  2.3017  1.7388
 4831TIP3   OH235907   5.253   6.769  15.008 -0.1888 -0.0094  0.2830
 4831TIP3    H135908   5.271   6.771  15.102 -0.9467 -0.0855  0.4413
 4831TIP3    H235909   5.282   6.683  14.979  0.7233  0.2872  0.2972
 4832TIP3   OH235910   4.835   4.569  14.425  0.1500  0.1699  0.0162
 4832TIP3    H135911   4.877   4.490  14.392  0.8947  0.3937  0.4039
 4832TIP3    H235912   4.815   4.620  14.347 -0.1443 -0.2951 -0.2220
 4833TIP3   OH235913   2.367   5.238   2.719 -0.0058  0.4498 -0.4442
 4833TIP3    H135914   2.435   5.272   2.777  1.0218 -0.0873 -1.3012
 4833TIP3    H235915   2.329   5.316   2.679  1.1593  0.7180 -1.0895
 4834TIP3   OH235916   5.094   6.161   0.623 -0.2421 -0.2773  0.0030
 4834TIP3    H135917   5.019   6.200   0.578 -0.2280 -0.9202 -0.5797
 4834TIP3    H235918   5.166   6.221   0.605 -0.0459 -0.9469 -1.5299
 4835TIP3   OH235919   0.747   6.126  11.512  0.1747 -0.0181  0.3495
 4835TIP3    H135920   0.837   6.102  11.493 -0.5340 -1.3489 -1.6266
 4835TIP3    H235921   0.694   6.070  11.455 -1.8779  1.2481  0.8885
 4836TIP3   OH235922   1.826   3.699   0.946 -0.2478 -0.3237 -0.1209
 4836TIP3    H135923   1.909   3.721   0.902 -0.2057  1.0867  0.6185
 4836TIP3    H235924   1.851   3.685   1.037 -0.7328 -0.6432 -0.0362
 4837TIP3   OH235925   4.299   1.604  13.653 -0.1914 -0.3287  0.1495
 4837TIP3    H135926   4.299   1.523  13.704 -1.4227  0.1266  0.9291
 4837TIP3    H235927   4.338   1.670  13.711  1.3172 -0.4467 -0.6795
 4838TIP3   OH235928   2.837   2.168  10.517  0.5658 -0.4149  0.7360
 4838TIP3    H135929   2.874   2.232  10.457 -2.6996  3.1251  2.0295
 4838TIP3    H235930   2.777   2.116  10.463  0.4704  0.2006  0.2378
 4839TIP3   OH235931   3.806   4.384  11.496 -0.0103 -0.2023 -0.1710
 4839TIP3    H135932   3.853   4.393  11.413  1.0451 -0.9121  0.3233
 4839TIP3    H235933   3.820   4.292  11.521 -0.7116 -0.1188  0.5625
 4840TIP3   OH235934   4.606   3.820  15.711  0.1696 -0.0906  0.0891
 4840TIP3    H135935   4.683   3.873  15.731  1.4147 -1.4908 -0.7849
 4840TIP3    H235936   4.630   3.731  15.738 -1.2090 -0.5418 -0.0598
 4841TIP3   OH235937   2.228   0.854  12.364  0.4092 -0.0898 -0.6758
 4841TIP3    H135938   2.165   0.802  12.313 -0.0326  1.1702 -1.4511
 4841TIP3    H235939   2.271   0.790  12.421 -2.7866 -0.8447  1.1843
 4842TIP3   OH235940   4.330   4.039   6.288  0.0871 -0.5019 -0.6312
 4842TIP3    H135941   4.400   4.007   6.231 -0.0679  1.1527 -1.8195
 4842TIP3    H235942   4.275   4.092   6.230 -1.2945 -0.5100  0.6159
 4843TIP3   OH235943   4.459   0.691  16.575 -0.5019  0.6868 -0.3016
 4843TIP3    H135944   4.423   0.716  16.490  2.3629 -1.3861 -2.3361
 4843TIP3    H235945   4.477   0.597  16.567 -0.0184  0.4370  2.5916
 4844TIP3   OH235946   3.117   1.633  16.298 -0.2372 -0.0142 -0.2577
 4844TIP3    H135947   3.187   1.583  16.257  1.2765  0.1271  1.9744
 4844TIP3    H235948   3.138   1.725  16.278  0.0192  0.0048  0.0836
 4845TIP3   OH235949   3.511   6.662  17.067  0.3839  0.3407 -0.2025
 4845TIP3    H135950   3.449   6.652  16.995 -0.3960  3.3612 -0.1062
 4845TIP3    H235951   3.579   6.719  17.032  0.6273  0.8626  1.0365
 4846TIP3   OH235952   3.882   5.514   1.297  0.1171 -0.2052  0.8865
 4846TIP3    H135953   3.976   5.513   1.319  0.3796 -1.6023 -0.1720
 4846TIP3    H235954   3.870   5.438   1.240 -1.8046 -0.4659  1.5554
 4847TIP3   OH235955   3.079   2.544  14.520  0.0240 -0.3174  0.7931
 4847TIP3    H135956   3.069   2.569  14.612  0.0185 -0.0306  0.7142
 4847TIP3    H235957   3.142   2.471  14.522  1.4981  0.8899  0.8622
 4848TIP3   OH235958   5.907   4.225  16.317 -1.0762  0.7495  0.5848
 4848TIP3    H135959   5.812   4.224  16.303 -1.0560 -0.0599  0.4228
 4848TIP3    H235960   5.919   4.177  16.399 -0.6619 -1.2028 -0.5600
 4849TIP3   OH235961   5.661   6.649   1.680 -0.0887 -0.2674 -0.3391
 4849TIP3    H135962   5.699   6.737   1.671 -1.6206  0.5095  0.4480
 4849TIP3    H235963   5.732   6.596   1.717 -0.0154  1.3794  2.0957
 4850TIP3   OH235964   2.784   4.168   1.883 -0.4623  0.3369  0.5144
 4850TIP3    H135965   2.730   4.247   1.891 -1.0152 -0.0708  0.8704
 4850TIP3    H235966   2.723   4.095   1.894 -0.6629 -0.2931 -3.4155
 4851TIP3   OH235967   1.715   4.480  14.032 -0.0735 -0.6340 -0.3794
 4851TIP3    H135968   1.790   4.446  13.983 -0.1833 -1.8346  0.2600
 4851TIP3    H235969   1.731   4.575  14.037  1.4670 -0.8708 -0.1714
 4852TIP3   OH235970   4.068   6.602  13.326  0.3691 -0.2373  0.2907
 4852TIP3    H135971   4.164   6.596  13.332  0.3236 -1.1329  0.2530
 4852TIP3    H235972   4.037   6.555  13.404 -0.0288  2.3637  1.8308
 4853TIP3   OH235973   4.264   3.630  14.795  0.2799  0.3643  0.2155
 4853TIP3    H135974   4.223   3.687  14.730 -1.0040 -0.1974  0.5138
 4853TIP3    H235975   4.291   3.553  14.747  3.0333  1.5955 -0.4193
 4854TIP3   OH235976   3.885   4.218  14.003  0.1846 -0.3745  0.0536
 4854TIP3    H135977   3.911   4.126  13.990 -0.6217 -0.2799 -3.0529
 4854TIP3    H235978   3.965   4.268  13.989  0.2391 -0.5311 -0.2037
 4855TIP3   OH235979   2.364   4.586   1.678  1.0961 -0.2858  0.9834
 4855TIP3    H135980   2.348   4.679   1.661  1.5805 -0.5418 -1.0668
 4855TIP3    H235981   2.303   4.564   1.749  1.0960  1.6139  1.6269
 4856TIP3   OH235982   5.626   1.178   2.060 -0.0571 -0.5143 -0.6766
 4856TIP3    H135983   5.616   1.186   2.155  1.1769  0.0180 -0.5704
 4856TIP3    H235984   5.600   1.088   2.040 -0.8243 -0.4755  0.0805
 4857TIP3   OH235985   6.240   4.747  12.700 -0.3622 -0.0702  0.2658
 4857TIP3    H135986   6.273   4.658  12.713 -0.7664 -0.5237 -1.4371
 4857TIP3    H235987   6.250   4.790  12.785  1.5816 -1.1535  0.6436
 4858TIP3   OH235988   3.626   6.221  12.319  0.0063 -0.1668  0.4712
 4858TIP3    H135989   3.547   6.269  12.297  0.4612  0.2536 -0.2792
 4858TIP3    H235990   3.693   6.254  12.259  0.2402 -2.0247 -0.3933
 4859TIP3   OH235991   3.491   1.097   2.520 -0.7929 -0.1998  0.6408
 4859TIP3    H135992   3.580   1.074   2.493 -0.6394 -0.2178  1.1402
 4859TIP3    H235993   3.472   1.179   2.473 -0.6445 -0.3792  0.2696
 4860TIP3   OH235994   6.288   6.291  16.536  0.4409 -0.0595 -0.4332
 4860TIP3    H135995   6.308   6.270  16.628  2.0634  0.5597 -0.6153
 4860TIP3    H235996   6.371   6.279  16.490 -0.1964  0.2866 -1.7082
 4861TIP3   OH235997   3.593   5.686  11.242 -0.1101  0.0634  0.2279
 4861TIP3    H135998   3.527   5.688  11.172 -1.5183  1.3104  1.5203
 4861TIP3    H235999   3.549   5.644  11.315  0.7741  0.2884  0.9001
 4862TIP3   OH236000   2.650   0.524  14.104  0.3174 -0.3112  0.5140
 4862TIP3    H136001   2.617   0.614  14.111 -0.5708 -0.7383  2.7535
 4862TIP3    H236002   2.744   0.534  14.089  0.3123  1.0120  1.2151
 4863TIP3   OH236003   0.927   2.495  15.775 -0.3904 -0.8504 -0.4739
 4863TIP3    H136004   0.913   2.589  15.788  0.8243 -0.6333 -0.5816
 4863TIP3    H236005   0.858   2.453  15.826 -0.8362  0.1029 -0.2740
 4864TIP3   OH236006   4.917   1.403   0.453 -0.1588  0.3696 -0.0547
 4864TIP3    H136007   4.936   1.483   0.404  0.5965  1.1686  1.4607
 4864TIP3    H236008   4.822   1.395   0.450 -0.2319  1.2405 -0.3623
 4865TIP3   OH236009   1.260   2.343  11.842 -0.0964  0.0776  0.5776
 4865TIP3    H136010   1.202   2.352  11.766 -0.1411 -0.2948  0.5685
 4865TIP3    H236011   1.202   2.314  11.913  0.1809 -0.8941  0.4198
 4866TIP3   OH236012   0.254   0.666   5.671 -0.3424  0.3469  0.3921
 4866TIP3    H136013   0.207   0.625   5.598  2.1635  0.6525 -1.5280
 4866TIP3    H236014   0.322   0.603   5.695  0.8827  1.5712  0.2682
 4867TIP3   OH236015   3.726   0.101   3.912  0.6597  0.5196 -0.0414
 4867TIP3    H136016   3.815   0.081   3.883  0.7010  2.3999 -1.3778
 4867TIP3    H236017   3.738   0.156   3.990  0.7045  1.1912 -0.5120
 4868TIP3   OH236018   5.890   2.697  14.676  0.1031  0.5895  0.3085
 4868TIP3    H136019   5.957   2.752  14.718 -0.9081  1.8395  0.3665
 4868TIP3    H236020   5.837   2.665  14.748 -0.6076  1.3377  0.1340
 4869TIP3   OH236021   2.639   0.453  16.973  0.8149  0.0959  0.7752
 4869TIP3    H136022   2.554   0.465  16.931  0.5911  0.7034  1.3746
 4869TIP3    H236023   2.671   0.370  16.939  1.5193  1.3880 -2.0869
 4870TIP3   OH236024   3.489   2.918  16.423  0.4963  0.0365  0.5418
 4870TIP3    H136025   3.527   2.884  16.342  1.0973  0.3698  0.6796
 4870TIP3    H236026   3.531   3.003  16.435 -0.9976  0.8661  0.1885
 4871TIP3   OH236027   5.397   5.055   0.650 -0.2797  0.1240 -0.0433
 4871TIP3    H136028   5.451   5.053   0.729 -0.7990 -0.5848  0.3142
 4871TIP3    H236029   5.328   5.119   0.669  0.7598  1.5047 -0.7457
 4872TIP3   OH236030   4.344   1.577   4.431 -0.7072  0.6780  0.1605
 4872TIP3    H136031   4.334   1.568   4.337  1.6877  1.1248 -0.1839
 4872TIP3    H236032   4.369   1.668   4.444 -0.3335  0.4480  1.1510
 4873TIP3   OH236033   3.391   4.673   0.649 -0.2879  0.1888  0.4625
 4873TIP3    H136034   3.404   4.603   0.586 -0.6288  0.4672  0.0731
 4873TIP3    H236035   3.351   4.630   0.725 -1.5666  0.1252 -0.2131
 4874TIP3   OH236036   0.503   2.693   2.301 -0.0814 -0.1370 -0.6560
 4874TIP3    H136037   0.574   2.756   2.288  0.3500 -0.5103 -0.1389
 4874TIP3    H236038   0.533   2.613   2.256 -0.3018 -0.2101 -0.6775
 4875TIP3   OH236039   6.499   3.605  10.869  0.3973 -0.4022  0.2731
 4875TIP3    H136040   6.443   3.539  10.828  0.4507 -1.1440  1.3687
 4875TIP3    H236041   6.585   3.591  10.830 -0.2133  1.1166 -1.8583
 4876TIP3   OH236042   4.071   5.192   5.129  0.3960 -0.3484  0.5014
 4876TIP3    H136043   4.148   5.246   5.142 -0.4315  0.7374  1.0923
 4876TIP3    H236044   4.082   5.152   5.043  1.2765  0.3370  0.2964
 4877TIP3   OH236045   6.114   5.948  13.839  0.1167 -0.4694  0.0351
 4877TIP3    H136046   6.193   5.900  13.866 -0.6811 -0.9783  1.5787
 4877TIP3    H236047   6.147   6.033  13.810  1.2694 -0.7547  0.4371
 4878TIP3   OH236048   0.220   4.384   0.684  0.4680 -0.5527 -0.7446
 4878TIP3    H136049   0.193   4.437   0.609 -0.0583 -1.8269 -1.5108
 4878TIP3    H236050   0.315   4.396   0.689  0.2318  1.3483 -0.1437
 4879TIP3   OH236051   0.721   1.834   3.453  0.7887  0.1063  0.4987
 4879TIP3    H136052   0.629   1.834   3.482  0.3077  0.9460 -0.9591
 4879TIP3    H236053   0.771   1.825   3.534 -0.5408  0.9926  1.4570
 4880TIP3   OH236054   1.030   3.307   4.844 -0.1637  0.7576 -0.2189
 4880TIP3    H136055   1.089   3.232   4.855 -1.0390 -0.2039 -1.8298
 4880TIP3    H236056   1.022   3.343   4.932  1.4797 -0.1073  0.3326
 4881TIP3   OH236057   1.760   4.745   2.669 -0.8544 -0.2569 -0.3669
 4881TIP3    H136058   1.679   4.764   2.621 -0.2679  2.4225 -0.4668
 4881TIP3    H236059   1.773   4.821   2.726  1.5362 -0.6345 -0.2941
 4882TIP3   OH236060   5.221   1.419   3.941 -0.5857 -0.3935  0.2924
 4882TIP3    H136061   5.292   1.465   3.898 -1.4731  0.3772 -0.3945
 4882TIP3    H236062   5.249   1.411   4.032 -0.6357  2.1191  0.6098
 4883TIP3   OH236063   0.336   0.462  12.805 -0.1588 -0.9025  0.4060
 4883TIP3    H136064   0.305   0.453  12.715  1.1099  0.1931 -0.1729
 4883TIP3    H236065   0.280   0.531  12.842 -0.1427 -0.7729  0.1938
 4884TIP3   OH236066   4.490   1.158   3.865 -0.0267 -0.0185  0.3195
 4884TIP3    H136067   4.418   1.142   3.926 -0.6698 -0.0401 -0.4189
 4884TIP3    H236068   4.565   1.179   3.920 -1.1524  2.3328  1.0797
 4885TIP3   OH236069   6.392   3.991  12.833  0.8022 -0.1942 -0.2882
 4885TIP3    H136070   6.463   4.041  12.793  2.2098 -1.9304 -0.0553
 4885TIP3    H236071   6.423   3.972  12.922 -0.6901  0.4183  0.4134
 4886TIP3   OH236072   2.769   0.481  13.434  0.0930  0.4417  0.3726
 4886TIP3    H136073   2.709   0.517  13.368 -0.7554  1.0522  1.4511
 4886TIP3    H236074   2.809   0.558  13.474 -1.2814  0.2164  2.2917
 4887TIP3   OH236075   5.668   3.591   1.737 -0.0510  0.0686  0.1583
 4887TIP3    H136076   5.720   3.523   1.781 -3.4341 -1.3808  2.4313
 4887TIP3    H236077   5.655   3.558   1.648  1.0955 -0.5746  0.2133
 4888TIP3   OH236078   0.854   0.096  14.709  0.1733 -0.4635 -1.0001
 4888TIP3    H136079   0.876   0.041  14.633  0.4889 -0.5311 -0.8637
 4888TIP3    H236080   0.904   0.058  14.781  0.6917  0.2298 -0.9824
 4889TIP3   OH236081   3.550   1.653   4.973 -0.6619 -0.3584  0.0284
 4889TIP3    H136082   3.514   1.665   5.061  0.2194  1.6389  0.1807
 4889TIP3    H236083   3.642   1.631   4.988 -1.0525 -2.5036 -0.4044
 4890TIP3   OH236084   2.242   5.015   6.162 -0.8355  0.3377  0.3463
 4890TIP3    H136085   2.155   4.983   6.138 -0.6941  2.0897 -3.2555
 4890TIP3    H236086   2.230   5.108   6.180  0.2800  0.6206 -0.2464
 4891TIP3   OH236087   0.742   5.785   0.411 -0.0642 -0.0439 -0.6345
 4891TIP3    H136088   0.650   5.807   0.397 -0.7273 -1.7470  0.7006
 4891TIP3    H236089   0.758   5.713   0.350  0.4588  0.3487 -0.9727
 4892TIP3   OH236090   4.176   6.224   1.468  0.3399 -0.2647 -0.3581
 4892TIP3    H136091   4.163   6.165   1.542 -1.1832 -0.3266 -0.6302
 4892TIP3    H236092   4.271   6.229   1.457  0.7002  0.7975  2.4225
 4893TIP3   OH236093   0.842   3.518  13.796  0.0960  0.3628 -0.5036
 4893TIP3    H136094   0.925   3.565  13.795  0.5439 -0.4131 -0.2241
 4893TIP3    H236095   0.839   3.476  13.882 -0.7000  0.5916 -0.4151
 4894TIP3   OH236096   6.542   6.328   3.544 -0.8401  0.0202 -0.7716
 4894TIP3    H136097   6.500   6.358   3.463  0.5120 -1.4475 -2.0857
 4894TIP3    H236098   6.547   6.233   3.535 -1.1161 -0.2425  1.3075
 4895TIP3   OH236099   6.050   1.272  11.881  0.3367 -0.2900  0.1612
 4895TIP3    H136100   6.075   1.341  11.942  0.6638 -0.6158  0.4016
 4895TIP3    H236101   5.955   1.264  11.891  0.4657 -0.7892  1.1208
 4896TIP3   OH236102   4.094   0.334   4.324 -0.2658 -0.4528 -0.4352
 4896TIP3    H136103   4.116   0.413   4.374 -0.2111 -1.4798  1.2274
 4896TIP3    H236104   4.163   0.272   4.345 -0.4857 -1.0810 -1.4692
 4897TIP3   OH236105   4.827   2.795  10.892 -0.0793  0.5235 -0.0793
 4897TIP3    H136106   4.774   2.874  10.881 -1.2447 -0.1665  0.4451
 4897TIP3    H236107   4.778   2.741  10.954  0.0677 -1.1689 -1.3608
 4898TIP3   OH236108   2.116   0.183   0.671 -0.1724  0.1755  0.1273
 4898TIP3    H136109   2.166   0.255   0.633  0.3830 -0.2844 -0.0160
 4898TIP3    H236110   2.025   0.213   0.668  0.1605  1.3896  1.1943
 4899TIP3   OH236111   0.029   2.280   3.612  0.1016 -0.2779  0.5808
 4899TIP3    H136112   0.019   2.298   3.519  0.2379  0.2412  0.6646
 4899TIP3    H236113   0.029   2.185   3.618 -2.2178 -0.3586  0.2859
 4900TIP3   OH236114   6.366   6.800   2.593  0.2007 -0.3121  0.1647
 4900TIP3    H136115   6.287   6.801   2.647  0.2886 -1.5881  0.3364
 4900TIP3    H236116   6.407   6.716   2.611  0.5639 -0.5068 -1.4033
 4901TIP3   OH236117   1.994   0.397   4.305  0.0095  0.0299  0.1986
 4901TIP3    H136118   1.925   0.381   4.370  0.0961 -0.3981  0.1848
 4901TIP3    H236119   2.055   0.456   4.350 -0.3232  0.3475  0.2387
 4902TIP3   OH236120   3.925   3.521   3.740  0.3026  0.1298  0.6442
 4902TIP3    H136121   3.942   3.433   3.773  1.3543 -0.4824 -1.3967
 4902TIP3    H236122   3.966   3.579   3.805  0.4508 -0.8931  1.4959
 4903TIP3   OH236123   6.647   1.492  12.676 -0.1140  0.2195 -0.2305
 4903TIP3    H136124   6.722   1.514  12.622  0.1148 -1.5509 -0.6806
 4903TIP3    H236125   6.684   1.466  12.760 -0.1631 -1.1101 -0.6017
 4904TIP3   OH236126   5.347   4.902   5.107  0.2178  0.3012 -1.1167
 4904TIP3    H136127   5.324   4.865   5.022  0.5324 -1.1078 -0.6241
 4904TIP3    H236128   5.404   4.977   5.086  0.8244 -0.4170 -2.1364
 4905TIP3   OH236129   6.468   2.602   2.448  0.1386  0.0317  0.2517
 4905TIP3    H136130   6.504   2.671   2.504  1.7117  0.9395 -1.7726
 4905TIP3    H236131   6.505   2.521   2.484 -0.2696  0.3850  1.5358
 4906TIP3   OH236132   1.058   6.298   5.834  0.2827 -0.0175  0.8576
 4906TIP3    H136133   1.096   6.376   5.793 -0.3529 -0.3927 -0.5326
 4906TIP3    H236134   1.119   6.227   5.812 -0.1316 -0.2457  0.4081
 4907TIP3   OH236135   3.987   5.365  11.502  0.1204 -0.0407 -0.2784
 4907TIP3    H136136   3.967   5.458  11.488 -2.6176 -0.4667  0.3652
 4907TIP3    H236137   3.928   5.337  11.572  1.6150 -2.0497  0.2771
 4908TIP3   OH236138   4.660   0.446   4.752  0.3509  0.1387  0.1142
 4908TIP3    H136139   4.600   0.477   4.683  0.2381 -0.0159  0.1434
 4908TIP3    H236140   4.658   0.516   4.817  2.0972  1.3108 -0.9875
 4909TIP3   OH236141   0.998   5.532   3.467  0.3024  0.3305  0.0591
 4909TIP3    H136142   0.948   5.450   3.469  0.6930  0.0995  0.5841
 4909TIP3    H236143   1.082   5.510   3.507  1.0019  0.6114 -1.1833
 4910TIP3   OH236144   1.937   3.349   3.266  0.4423  0.5840  0.2852
 4910TIP3    H136145   1.918   3.417   3.331 -1.2630  0.5708 -0.1538
 4910TIP3    H236146   1.999   3.390   3.206  0.2490  1.3856  0.6181
 4911TIP3   OH236147   0.757   0.129   2.275 -0.4399 -0.2096  0.1215
 4911TIP3    H136148   0.662   0.118   2.268 -0.4501  0.5310 -1.1340
 4911TIP3    H236149   0.779   0.088   2.359 -2.0883  1.1217  1.2649
 4912TIP3   OH236150   4.324   2.197  11.331 -0.0138 -0.3565 -0.2614
 4912TIP3    H136151   4.251   2.148  11.293 -1.4977  2.6788 -1.5902
 4912TIP3    H236152   4.289   2.234  11.412  0.7049 -0.4899  0.1251
 4913TIP3   OH236153   5.760   6.114   5.753  0.7067  0.0625 -0.2420
 4913TIP3    H136154   5.764   6.176   5.825  1.5233  0.1952 -0.3984
 4913TIP3    H236155   5.806   6.157   5.681  1.2822 -0.7226 -0.3505
 4914TIP3   OH236156   1.539   0.952   0.005 -0.3322  0.3458  0.0375
 4914TIP3    H136157   1.600   0.917   0.070 -0.2999  0.2102 -0.0661
 4914TIP3    H236158   1.569   1.041  -0.010 -0.6097  0.5264  0.5463
 4915TIP3   OH236159   6.627   3.505  15.369 -0.5646  0.2433 -0.6600
 4915TIP3    H136160   6.722   3.513  15.371 -0.4862 -0.3482 -1.4300
 4915TIP3    H236161   6.596   3.594  15.352 -0.1852  0.5326  0.1037
 4916TIP3   OH236162   1.823   6.628   4.541 -0.0859 -0.0650  0.0977
 4916TIP3    H136163   1.874   6.692   4.491  0.3351  0.5130  1.2265
 4916TIP3    H236164   1.885   6.559   4.562 -0.6167 -1.0297 -1.3863
 4917TIP3   OH236165   5.342   1.439   3.231 -0.4400 -0.2238  0.6917
 4917TIP3    H136166   5.399   1.460   3.157 -0.5745 -1.3234  0.2537
 4917TIP3    H236167   5.285   1.370   3.198  0.1488 -1.4371  2.1151
 4918TIP3   OH236168   6.501   6.543   2.631  0.1667  0.4607 -0.0538
 4918TIP3    H136169   6.494   6.494   2.549 -0.7215  0.7706 -0.1811
 4918TIP3    H236170   6.445   6.494   2.692 -1.3171  1.6659 -0.3761
 4919TIP3   OH236171   1.891   0.535  16.207  0.3548  0.2940 -0.4127
 4919TIP3    H136172   1.841   0.513  16.287  0.1786  0.1014 -0.5757
 4919TIP3    H236173   1.906   0.629  16.214  0.6724  0.2141  0.0376
 4920TIP3   OH236174   5.010   5.287  12.633  0.2430 -0.1246 -0.5676
 4920TIP3    H136175   5.094   5.332  12.631  0.1806  0.0052 -0.2577
 4920TIP3    H236176   5.017   5.227  12.707  0.6406 -1.2390 -1.4750
 4921TIP3   OH236177   6.727   3.107  13.586  0.3772  0.8492 -1.1029
 4921TIP3    H136178   6.788   3.083  13.517  1.0544 -0.0151 -0.2397
 4921TIP3    H236179   6.648   3.058  13.566  1.4547 -1.5976  0.1601
 4922TIP3   OH236180   4.622   0.973  16.193  0.0238  0.0434 -0.1939
 4922TIP3    H136181   4.594   1.055  16.233 -3.0843 -0.3563 -1.2345
 4922TIP3    H236182   4.659   0.998  16.108  1.4865  0.4938  0.5518
 4923TIP3   OH236183   0.166   0.515   2.998 -0.2662 -0.2284  0.3167
 4923TIP3    H136184   0.102   0.448   3.020 -0.0456 -1.3425 -2.1823
 4923TIP3    H236185   0.117   0.597   3.004 -1.5418 -0.9304 -0.1360
 4924TIP3   OH236186   0.267   5.392  13.389  0.4020  0.1555 -0.6639
 4924TIP3    H136187   0.280   5.300  13.368 -0.8554  0.0475 -1.0300
 4924TIP3    H236188   0.181   5.396  13.431  1.0081  0.9852  0.5638
 4925TIP3   OH236189   2.707   1.975   3.041 -0.4566 -0.9315  0.1359
 4925TIP3    H136190   2.688   1.954   2.949  1.6458  2.5077 -1.2720
 4925TIP3    H236191   2.646   2.046   3.062 -0.5104 -1.2890  1.2161
 4926TIP3   OH236192   6.552   0.871  11.865 -0.0655  0.0554 -0.2085
 4926TIP3    H136193   6.615   0.939  11.888 -1.5493  1.2580  0.4684
 4926TIP3    H236194   6.565   0.857  11.771  0.9653  0.5194 -0.1455
 4927TIP3   OH236195   4.611   5.618   0.202  0.3256 -0.1962 -0.2438
 4927TIP3    H136196   4.595   5.604   0.109  1.2432 -0.3303 -0.3893
 4927TIP3    H236197   4.624   5.530   0.238  1.6989 -0.0607 -0.3318
 4928TIP3   OH236198   5.777   4.668   1.112  0.1931 -0.0654  1.2669
 4928TIP3    H136199   5.757   4.683   1.019  0.4624 -1.5778  0.9386
 4928TIP3    H236200   5.871   4.682   1.118  0.6239 -2.3651  0.7499
 4929TIP3   OH236201   5.070   2.588  13.349  0.2117 -0.5604  0.2642
 4929TIP3    H136202   5.007   2.659  13.355  0.0004 -0.5760 -1.3797
 4929TIP3    H236203   5.153   2.628  13.375  0.4995  0.9000 -2.5006
 4930TIP3   OH236204   5.352   5.196  14.568 -0.8409  0.5448  0.2354
 4930TIP3    H136205   5.448   5.199  14.563 -0.8575 -0.7381 -2.4646
 4930TIP3    H236206   5.332   5.111  14.606 -0.8283 -0.5874 -2.0810
 4931TIP3   OH236207   6.687   6.807  14.435 -0.1603  0.1287 -1.0279
 4931TIP3    H136208   6.669   6.831  14.526 -0.2559  0.7980 -1.2173
 4931TIP3    H236209   6.748   6.875  14.404  0.2768 -0.3842 -1.3116
 4932TIP3   OH236210   5.344   2.312  14.971  0.4465 -0.1828 -0.1966
 4932TIP3    H136211   5.349   2.223  14.937 -1.7771 -0.6023  0.3746
 4932TIP3    H236212   5.382   2.367  14.902  0.7337 -1.4494 -1.0794
 4933TIP3   OH236213   2.763   3.562  14.787 -0.5472 -0.0219  0.2197
 4933TIP3    H136214   2.727   3.560  14.699 -1.1481  0.1763  0.4527
 4933TIP3    H236215   2.781   3.655  14.804 -0.2584 -0.0799  0.2363
 4934TIP3   OH236216   4.706   1.471  10.889  0.9786 -0.0777 -0.1074
 4934TIP3    H136217   4.784   1.434  10.848  0.6975 -2.0436  1.0178
 4934TIP3    H236218   4.634   1.415  10.859  0.5151 -0.4013  1.5375
 4935TIP3   OH236219   6.647   2.670  10.218 -0.3447 -0.2596  0.3045
 4935TIP3    H136220   6.686   2.746  10.263 -2.3955  0.2755  1.2994
 4935TIP3    H236221   6.602   2.622  10.288 -2.4633 -0.1693 -0.9157
 4936TIP3   OH236222   3.935   2.613   2.133  0.0981  0.8686 -0.2309
 4936TIP3    H136223   4.023   2.644   2.112  1.4011 -2.3455 -0.1048
 4936TIP3    H236224   3.938   2.597   2.228  0.0242 -0.9256 -0.5016
 4937TIP3   OH236225   2.118   6.240  15.706  0.6664  0.8320 -0.0122
 4937TIP3    H136226   2.067   6.214  15.782  1.3655  0.8611  0.4757
 4937TIP3    H236227   2.107   6.168  15.644  0.9949  0.2723  0.5625
 4938TIP3   OH236228   6.498   1.769   0.202 -0.0833  0.2095 -0.1303
 4938TIP3    H136229   6.443   1.782   0.279 -0.5328 -1.2371 -0.1805
 4938TIP3    H236230   6.587   1.781   0.234 -0.2785 -0.1233  0.5615
 4939TIP3   OH236231   6.461   1.335   0.812  0.2430 -0.2147 -0.2134
 4939TIP3    H136232   6.433   1.380   0.891  0.4903 -1.3173  0.5299
 4939TIP3    H236233   6.515   1.399   0.765  0.1191  0.4414  0.5222
 4940TIP3   OH236234   4.395   2.247  14.996  0.2560 -0.0457  0.9433
 4940TIP3    H136235   4.437   2.234  14.911 -1.1563  0.4240  0.1444
 4940TIP3    H236236   4.467   2.270  15.055  1.0823  1.1349 -0.4572
 4941TIP3   OH236237   5.848   3.339  15.728 -0.0619  0.5685  0.0579
 4941TIP3    H136238   5.783   3.409  15.725  1.7317  2.3488 -2.1722
 4941TIP3    H236239   5.844   3.299  15.641  0.7523 -0.3207  0.4084
 4942TIP3   OH236240   4.935   0.330   3.121 -0.2110  0.3918  0.2274
 4942TIP3    H136241   4.859   0.346   3.176 -1.0927 -0.3387 -0.7401
 4942TIP3    H236242   4.942   0.235   3.116 -0.1951  0.4341 -0.9535
 4943TIP3   OH236243   5.083   2.238   3.058 -0.9035  0.6379 -0.5635
 4943TIP3    H136244   5.039   2.324   3.064 -0.8650  0.5769  0.9347
 4943TIP3    H236245   5.035   2.183   3.120 -1.4055 -0.6653 -2.0587
 4944TIP3   OH236246   3.954   3.210  15.623  0.0433  0.6915 -0.1163
 4944TIP3    H136247   3.971   3.303  15.637 -0.6507  1.0051 -1.2704
 4944TIP3    H236248   3.941   3.201  15.529 -1.0207 -0.3766  0.0985
 4945TIP3   OH236249   0.126   6.338   1.270 -0.0816  0.0508 -0.1057
 4945TIP3    H136250   0.209   6.289   1.267  0.1098  0.4232 -1.2132
 4945TIP3    H236251   0.078   6.297   1.342  0.6190 -0.8992 -0.1450
 4946TIP3   OH236252   0.776   3.391   2.979 -0.3549 -0.0525 -0.3747
 4946TIP3    H136253   0.761   3.466   3.037  0.3665 -1.0876  1.2218
 4946TIP3    H236254   0.830   3.426   2.908 -0.1226  0.9628  0.2770
 4947TIP3   OH236255   4.369   1.267   0.520 -0.3408  0.2303 -0.0501
 4947TIP3    H136256   4.275   1.249   0.519 -0.1765 -0.8275  1.2830
 4947TIP3    H236257   4.381   1.331   0.450 -2.1845  1.1018  0.3532
 4948TIP3   OH236258   4.024   3.998   0.230  0.3903  0.0505 -0.6468
 4948TIP3    H136259   4.100   3.941   0.222  1.2424  1.3387 -2.4889
 4948TIP3    H236260   4.053   4.070   0.286 -0.6570 -1.1788  1.6124
 4949TIP3   OH236261   0.541   4.215  12.592 -0.0145 -0.0997 -0.6854
 4949TIP3    H136262   0.586   4.212  12.676  1.1856 -0.2872 -1.3147
 4949TIP3    H236263   0.597   4.270  12.537 -1.0402  0.4361 -1.2283
 4950TIP3   OH236264   5.670   3.938   2.568 -0.9841 -0.8016  0.4035
 4950TIP3    H136265   5.637   3.884   2.640 -2.1016  0.0240  0.5482
 4950TIP3    H236266   5.598   4.000   2.550 -0.2364 -0.1895 -0.5890
 4951TIP3   OH236267   1.688   4.495  13.005  0.0381  0.2340  0.4657
 4951TIP3    H136268   1.685   4.498  12.910  0.1769  1.8147  0.4921
 4951TIP3    H236269   1.596   4.490  13.032 -0.0489  0.7426  0.2683
 4952TIP3   OH236270   6.256   3.985   2.728 -0.1178  0.0145 -0.0456
 4952TIP3    H136271   6.303   4.068   2.739  0.6333 -0.5701  1.6264
 4952TIP3    H236272   6.171   3.999   2.770  1.4443 -1.1272  4.0417
 4953TIP3   OH236273   3.412   6.067  15.692 -0.0763 -0.3832  0.3581
 4953TIP3    H136274   3.490   6.048  15.743 -0.4365 -0.1389  1.0112
 4953TIP3    H236275   3.401   5.990  15.636 -0.0811 -0.9758  1.1541
 4954TIP3   OH236276   3.344   1.743   6.089  0.2713  0.0415 -0.4224
 4954TIP3    H136277   3.400   1.819   6.077  0.7023 -0.2529 -0.2846
 4954TIP3    H236278   3.268   1.776   6.138  2.0739 -0.2940  2.8432
 4955TIP3   OH236279   5.790   4.544  10.609 -0.7777 -0.5729  0.4124
 4955TIP3    H136280   5.708   4.528  10.564 -0.7578 -1.3695  0.6382
 4955TIP3    H236281   5.858   4.523  10.544 -0.7403  0.1416  0.2063
 4956TIP3   OH236282   0.204   4.163   3.654 -0.0757 -0.1140  0.4058
 4956TIP3    H136283   0.115   4.190   3.632  0.2411  2.6091  2.0762
 4956TIP3    H236284   0.222   4.203   3.738  2.1233 -2.1683  1.0443
 4957TIP3   OH236285   2.600   1.371  16.314  0.7490  0.4809  0.0680
 4957TIP3    H136286   2.574   1.301  16.373  0.3312  0.3390 -0.2789
 4957TIP3    H236287   2.674   1.335  16.265  0.7777  0.4224  0.1538
 4958TIP3   OH236288   6.535   4.339   0.504  0.3455  0.0451 -0.2594
 4958TIP3    H136289   6.492   4.315   0.586 -0.5599 -1.1570 -1.0526
 4958TIP3    H236290   6.621   4.296   0.508 -0.2934 -1.3259 -0.5774
 4959TIP3   OH236291   2.481   5.090  15.251 -0.0915 -0.4872 -0.3202
 4959TIP3    H136292   2.554   5.091  15.189 -1.3585 -1.8352 -1.9255
 4959TIP3    H236293   2.455   4.998  15.257 -2.1775  0.0340 -0.4498
 4960TIP3   OH236294   2.590   2.363  11.101 -0.2710  0.1158  0.1560
 4960TIP3    H136295   2.669   2.416  11.090 -0.5652  0.5811  0.2552
 4960TIP3    H236296   2.536   2.384  11.025 -0.5047  0.1667  0.3334
 4961TIP3   OH236297   0.212   5.081   1.759  0.1626  0.1993  0.0037
 4961TIP3    H136298   0.217   5.170   1.793  0.3510  0.0033  0.4939
 4961TIP3    H236299   0.267   5.030   1.818  0.3294 -0.1799 -0.4782
 4962TIP3   OH236300   5.132   5.993   0.850  0.5116  0.0634  0.1761
 4962TIP3    H136301   5.041   5.992   0.881  0.3094  0.1345 -0.4064
 4962TIP3    H236302   5.126   6.012   0.757  1.0776 -0.7445 -0.0390
 4963TIP3   OH236303   6.313   6.281  11.832  0.0863 -0.8363 -0.1404
 4963TIP3    H136304   6.232   6.241  11.801  0.8912 -0.7664 -2.4683
 4963TIP3    H236305   6.380   6.213  11.820  0.6670 -0.3365  0.1887
 4964TIP3   OH236306   0.434   5.151   2.675  0.5829 -0.3076 -0.0432
 4964TIP3    H136307   0.490   5.118   2.605  0.9458  0.7841 -0.2788
 4964TIP3    H236308   0.494   5.168   2.748  0.3108 -0.7088  0.2833
 4965TIP3   OH236309   4.910   4.877   5.401 -0.2663  0.2541  0.1776
 4965TIP3    H136310   4.939   4.962   5.368  1.5932 -0.8297 -1.2130
 4965TIP3    H236311   4.920   4.883   5.496 -1.1079  1.8884  0.1858
 4966TIP3   OH236312   0.925   4.522   0.502  0.1327  0.1936 -0.5341
 4966TIP3    H136313   0.948   4.476   0.583 -2.0745 -0.8653 -0.4170
 4966TIP3    H236314   0.981   4.599   0.501  1.5218 -0.7276  1.0512
 4967TIP3   OH236315   6.747   6.021  10.559  0.2812 -0.1043  0.0239
 4967TIP3    H136316   6.779   6.039  10.648 -0.4505 -0.4641  0.3703
 4967TIP3    H236317   6.800   5.947  10.529 -1.5363 -2.0754  1.3914
 4968TIP3   OH236318   5.275   5.179   1.701  0.6077  0.1849 -0.1185
 4968TIP3    H136319   5.328   5.197   1.624 -0.6977 -0.3206 -1.1681
 4968TIP3    H236320   5.232   5.096   1.681  0.3778 -0.0388  1.2317
 4969TIP3   OH236321   2.360   4.173  16.754 -0.2195  0.2908  0.4186
 4969TIP3    H136322   2.311   4.121  16.817 -0.7566  0.8106  0.4383
 4969TIP3    H236323   2.397   4.108  16.694 -1.9598 -0.0658 -0.3323
 4970TIP3   OH236324   1.338   2.428   1.865  0.5594 -0.4232  0.7911
 4970TIP3    H136325   1.433   2.428   1.853  0.2547 -0.5615 -2.6600
 4970TIP3    H236326   1.320   2.349   1.914  2.1020 -1.7199 -0.5884
 4971TIP3   OH236327   2.908   0.168   5.696  0.5261  0.3194  0.4761
 4971TIP3    H136328   2.971   0.137   5.761  1.2756  1.2013  0.1975
 4971TIP3    H236329   2.927   0.117   5.618  0.6378  0.3164  0.5052
 4972TIP3   OH236330   6.798   3.843  13.275  0.0896 -0.0045  0.2774
 4972TIP3    H136331   6.737   3.831  13.348 -0.7991  1.2595 -0.2180
 4972TIP3    H236332   6.878   3.876  13.317 -0.6438  1.3861  0.6475
 4973TIP3   OH236333   6.210   3.073   3.231  0.3835  0.3788 -0.4176
 4973TIP3    H136334   6.127   3.039   3.263 -1.0991  1.2062 -3.1082
 4973TIP3    H236335   6.246   3.123   3.305 -1.7882  0.4716  0.6386
 4974TIP3   OH236336   5.997   6.217   0.721 -0.2704  0.3420  0.9057
 4974TIP3    H136337   5.914   6.264   0.726 -0.3883  0.2464  0.0152
 4974TIP3    H236338   5.996   6.158   0.796 -0.2303  1.5669  1.8953
 4975TIP3   OH236339   3.971   1.278   1.099  0.3414 -0.6173  0.1084
 4975TIP3    H136340   4.044   1.261   1.040 -0.3835 -1.8202 -0.4789
 4975TIP3    H236341   3.894   1.253   1.048 -0.4588  0.3015  0.8395
 4976TIP3   OH236342   0.759   0.308   3.088 -0.5408 -0.2822 -0.7447
 4976TIP3    H136343   0.723   0.393   3.063  0.0657  1.2040  2.7539
 4976TIP3    H236344   0.802   0.275   3.009  1.2722  3.8105 -1.7296
 4977TIP3   OH236345   3.672   2.232   3.401 -0.3849 -0.2561  0.3405
 4977TIP3    H136346   3.734   2.193   3.462 -2.2415 -1.3895  1.5973
 4977TIP3    H236347   3.614   2.161   3.375 -0.5219  0.5151 -1.6841
 4978TIP3   OH236348   3.667   1.602   4.563 -0.0027 -0.1266  0.1054
 4978TIP3    H136349   3.727   1.532   4.589  0.5238  0.2753 -0.0116
 4978TIP3    H236350   3.724   1.673   4.534 -0.5597 -0.1761 -1.1516
 4979TIP3   OH236351   3.231   3.062   3.067 -0.3585  0.0109 -0.5020
 4979TIP3    H136352   3.198   3.152   3.076 -0.8040 -0.3624  2.5257
 4979TIP3    H236353   3.318   3.065   3.107  0.3887 -0.5808 -2.0030
 4980TIP3   OH236354   2.487   0.753  12.097  0.5207  0.6047  0.5672
 4980TIP3    H136355   2.442   0.837  12.085  0.0513  0.1562 -1.0321
 4980TIP3    H236356   2.507   0.723  12.008  1.2637 -0.6722  1.1356
 4981TIP3   OH236357   0.428   2.199   6.000  0.5201 -0.2855  0.0464
 4981TIP3    H136358   0.346   2.167   6.037  0.5004 -1.0407 -0.6453
 4981TIP3    H236359   0.413   2.293   5.987 -0.0886 -0.3451  0.2855
 4982TIP3   OH236360   1.520   0.838   3.494 -0.2614 -0.0546 -0.5242
 4982TIP3    H136361   1.487   0.921   3.529  0.9258  1.0616 -1.9558
 4982TIP3    H236362   1.614   0.839   3.513 -0.0620 -0.6149 -1.4085
 4983TIP3   OH236363   3.505   4.371   4.223 -0.0350 -0.1015  0.1623
 4983TIP3    H136364   3.499   4.277   4.207  1.0215 -0.1551  0.0483
 4983TIP3    H236365   3.414   4.400   4.225 -0.3339 -0.7881 -1.7500
 4984TIP3   OH236366   4.868   0.453   2.786 -0.3634  0.5486 -0.5514
 4984TIP3    H136367   4.924   0.381   2.757  0.5438  0.5443  1.0761
 4984TIP3    H236368   4.817   0.415   2.858 -0.1990  1.4072  0.0290
 4985TIP3   OH236369   3.348   2.497   2.525 -0.0555 -0.1521 -0.3448
 4985TIP3    H136370   3.276   2.489   2.588 -1.5353  0.8859 -1.8339
 4985TIP3    H236371   3.306   2.502   2.440  1.7227  1.6025 -1.2066
 4986TIP3   OH236372   0.287   5.567  13.875  0.8036 -0.0940  0.4940
 4986TIP3    H136373   0.242   5.552  13.958 -2.3564  0.8476 -0.9039
 4986TIP3    H236374   0.281   5.483  13.829  0.6499 -0.0100  0.3627
 4987TIP3   OH236375   6.443   2.744  15.443 -0.2810  0.2817  0.4176
 4987TIP3    H136376   6.430   2.676  15.510 -0.8649  0.8392  0.8845
 4987TIP3    H236377   6.519   2.714  15.393 -0.8576 -0.9968  0.2647
 4988TIP3   OH236378   1.983   1.642  14.072 -0.3012 -0.4040 -0.5978
 4988TIP3    H136379   1.964   1.591  13.993  1.4395  0.0642 -1.3610
 4988TIP3    H236380   1.983   1.733  14.042 -3.6515  0.2039  0.7985
 4989TIP3   OH236381   6.228   3.519  15.808  0.3657 -0.2836 -0.2699
 4989TIP3    H136382   6.250   3.612  15.807  2.9430 -0.7932  0.8812
 4989TIP3    H236383   6.217   3.496  15.715 -2.5699  1.5538 -0.4776
 4990TIP3   OH236384   5.094   3.867  15.221  0.3328  0.1406 -0.3303
 4990TIP3    H136385   5.052   3.907  15.296 -1.5259 -2.2300  0.0327
 4990TIP3    H236386   5.173   3.919  15.206 -0.1577  1.7359  2.1272
 4991TIP3   OH236387   1.667   2.078  14.158  0.9375 -0.4968 -0.2366
 4991TIP3    H136388   1.631   2.040  14.078 -1.2699  0.2763  0.3127
 4991TIP3    H236389   1.677   2.171  14.137 -0.8758 -0.0380  0.7096
 4992TIP3   OH236390   1.525   3.471  15.966 -0.3788 -0.1320 -0.0880
 4992TIP3    H136391   1.461   3.508  15.905  0.4094  0.9496 -0.2837
 4992TIP3    H236392   1.573   3.546  15.999  1.5882 -1.0021 -0.8296
 4993TIP3   OH236393   4.393   4.539  14.156  0.4611 -0.1951  0.8511
 4993TIP3    H136394   4.364   4.455  14.121  1.9749 -0.7347  0.8125
 4993TIP3    H236395   4.312   4.584  14.180 -0.5285 -0.6277 -1.4175
 4994TIP3   OH236396   1.946   4.102   2.087 -0.4123  0.1448  0.1241
 4994TIP3    H136397   1.939   4.010   2.113  1.5360 -0.0752  0.0762
 4994TIP3    H236398   1.936   4.101   1.992 -0.2813 -0.0387  0.1119
 4995TIP3   OH236399   5.700   2.075  15.204  0.7014  0.2379  0.4389
 4995TIP3    H136400   5.640   2.052  15.134 -1.2828 -0.6810  2.3385
 4995TIP3    H236401   5.787   2.064  15.165 -0.3020  0.3040 -2.0026
 4996TIP3   OH236402   1.975   6.056   3.399  0.0092 -0.1098  0.5055
 4996TIP3    H136403   1.934   6.095   3.322  0.1626  1.1283  1.0286
 4996TIP3    H236404   1.902   6.031   3.456 -0.0919  1.8695  1.3285
 4997TIP3   OH236405   5.081   4.536  15.720 -0.4982 -0.0695 -0.2909
 4997TIP3    H136406   4.996   4.578  15.705  0.1633  1.3542 -0.2839
 4997TIP3    H236407   5.116   4.580  15.798  0.3886 -0.3726 -0.5018
 4998TIP3   OH236408   6.122   4.656  15.994 -0.7340 -0.0573  0.5796
 4998TIP3    H136409   6.042   4.661  15.943 -1.0054  1.2891  1.0982
 4998TIP3    H236410   6.193   4.654  15.929 -1.1552 -1.1010  0.1278
 4999TIP3   OH236411   3.826   2.355  16.904  0.5803  0.3543  0.5941
 4999TIP3    H136412   3.875   2.424  16.858  1.2569  0.5604  1.5950
 4999TIP3    H236413   3.844   2.275  16.854 -0.6168  0.9516 -0.8780
 5000TIP3   OH236414   0.573   2.087   0.380  0.2961  0.1858 -0.0139
 5000TIP3    H136415   0.585   2.140   0.459  1.3501 -0.6763  0.4352
 5000TIP3    H236416   0.617   2.137   0.311  0.9779  0.0841  0.3357
 5001TIP3   OH236417   0.481   1.175   1.328  0.7207  0.2763  0.3051
 5001TIP3    H136418   0.457   1.135   1.244  0.4577  0.0086  0.5041
 5001TIP3    H236419   0.512   1.263   1.305 -1.2472  0.9615  0.0993
 5002TIP3   OH236420   4.135   3.400  12.069  0.2265 -0.0634 -0.5117
 5002TIP3    H136421   4.202   3.335  12.090  1.2215  1.1734  0.3141
 5002TIP3    H236422   4.067   3.351  12.023 -0.3688 -2.2547  2.4391
 5003TIP3   OH236423   2.375   4.542  13.163  0.5677  0.9291  0.4956
 5003TIP3    H136424   2.440   4.585  13.218  4.5428 -2.8378 -0.7118
 5003TIP3    H236425   2.337   4.474  13.218  1.1195  0.1587 -0.0533
 5004TIP3   OH236426   5.520   5.440   0.045 -0.5235 -0.0388 -0.6907
 5004TIP3    H136427   5.433   5.481   0.043  0.0269  1.1821 -0.8253
 5004TIP3    H236428   5.571   5.492  -0.017  0.1043 -1.2331 -1.1960
 5005TIP3   OH236429   5.242   2.364  15.803  0.2410  0.3873  0.6525
 5005TIP3    H136430   5.149   2.346  15.790  0.1638  1.0523  0.2333
 5005TIP3    H236431   5.265   2.423  15.731  1.6131 -1.8149 -0.7921
 5006TIP3   OH236432   2.788   4.297  12.927  0.0374  0.0921 -0.7205
 5006TIP3    H136433   2.817   4.209  12.903 -0.4008 -0.2227 -0.1255
 5006TIP3    H236434   2.769   4.291  13.021  0.2200  0.8818 -0.6272
 5007TIP3   OH236435   4.438   1.886  13.584 -0.1097  0.4566 -0.5010
 5007TIP3    H136436   4.369   1.843  13.634  0.1158 -0.4263 -0.9208
 5007TIP3    H236437   4.461   1.963  13.635 -1.2781  0.6666 -0.2672
 5008TIP3   OH236438   2.339   1.512   3.408  0.2816  0.1478 -0.5277
 5008TIP3    H136439   2.291   1.480   3.332 -0.7852 -0.5848  0.4175
 5008TIP3    H236440   2.279   1.573   3.451  1.7371  2.4134 -1.5014
 5009TIP3   OH236441   0.144   2.250   4.009 -0.3553 -0.0323  0.2323
 5009TIP3    H136442   0.071   2.305   4.038  0.9575  1.1303  1.5336
 5009TIP3    H236443   0.137   2.170   4.060 -1.2656 -0.3603 -0.3807
 5010TIP3   OH236444   3.127   5.972  12.630  0.4256  0.3562 -0.3296
 5010TIP3    H136445   3.165   6.060  12.626 -0.3235  0.7879  1.1120
 5010TIP3    H236446   3.186   5.923  12.687 -0.4441  0.6651  0.8822
 5011TIP3   OH236447   2.678   2.934  14.328  0.0469  0.7330  0.3239
 5011TIP3    H136448   2.612   2.891  14.381 -0.6614  3.0822  1.4922
 5011TIP3    H236449   2.757   2.882  14.340 -1.2943 -1.5900 -0.3543
 5012TIP3   OH236450   4.529   1.704  11.585  0.1255 -0.0047  0.0945
 5012TIP3    H136451   4.590   1.713  11.658 -0.6597 -0.5903  0.8475
 5012TIP3    H236452   4.470   1.779  11.594 -0.6731 -0.6928  0.7667
 5013TIP3   OH236453   1.609   5.047   3.403  0.4132 -0.3315  0.9597
 5013TIP3    H136454   1.527   5.034   3.450  0.5860 -1.6491  0.9497
 5013TIP3    H236455   1.632   5.138   3.418 -2.6572  1.0819 -1.6193
 5014TIP3   OH236456   1.677   5.342  16.409  0.2569 -0.2360 -0.2460
 5014TIP3    H136457   1.680   5.328  16.315  1.4408  3.6315 -0.9549
 5014TIP3    H236458   1.754   5.295  16.442 -0.5182 -2.1635 -1.0020
 5015TIP3   OH236459   4.220   2.842   0.163 -0.8682 -0.2454 -0.1768
 5015TIP3    H136460   4.169   2.922   0.150 -1.1990 -0.4236  0.0101
 5015TIP3    H236461   4.244   2.843   0.255  0.4225  0.3934 -0.5075
 5016TIP3   OH236462   4.082   3.050  15.103 -0.3157 -0.2049 -0.2989
 5016TIP3    H136463   4.157   3.040  15.044  1.3124 -0.6918  1.7022
 5016TIP3    H236464   4.066   2.961  15.135 -0.2467  0.2232  0.9898
 5017TIP3   OH236465   6.048   4.657   1.140 -0.2316 -0.3962  0.0081
 5017TIP3    H136466   6.041   4.566   1.168 -0.7760 -0.1417  0.7332
 5017TIP3    H236467   6.050   4.707   1.222  1.5004  0.1615 -0.3201
 5018TIP3   OH236468   2.160   2.487   4.380  0.3118  0.5854 -0.5305
 5018TIP3    H136469   2.133   2.418   4.440  2.0525  0.3489  0.0251
 5018TIP3    H236470   2.144   2.450   4.293  0.2910 -0.1208 -0.2352
 5019TIP3   OH236471   3.382   4.964   2.051  0.5176 -0.3476 -0.0075
 5019TIP3    H136472   3.299   4.998   2.018  0.1159 -1.3044 -0.0231
 5019TIP3    H236473   3.447   5.030   2.028 -0.1849  0.2391 -0.3181
 5020TIP3   OH236474   0.723   3.224  13.857 -0.1853  0.1484 -0.5040
 5020TIP3    H136475   0.638   3.267  13.863 -0.9536 -1.3959  0.8319
 5020TIP3    H236476   0.773   3.260  13.930  0.2854  0.9656 -1.2151
 5021TIP3   OH236477   2.415   5.158   0.792  0.0869  0.2432  0.3639
 5021TIP3    H136478   2.393   5.250   0.807  0.3687  0.1050  1.7558
 5021TIP3    H236479   2.457   5.158   0.706  1.5924  1.6997  1.0339
 5022TIP3   OH236480   6.107   4.949  13.176  0.6247 -0.0738  0.8508
 5022TIP3    H136481   6.067   5.034  13.195  1.7966  0.1977  2.2485
 5022TIP3    H236482   6.086   4.933  13.083 -0.8654  1.0196  0.9618
 5023TIP3   OH236483   4.335   4.613  11.822 -0.9000 -0.2799  0.0648
 5023TIP3    H136484   4.365   4.588  11.735  0.1249  0.3282  0.2142
 5023TIP3    H236485   4.398   4.680  11.850 -0.9305 -0.7852  1.4452
 5024TIP3   OH236486   5.253   2.008  16.283 -0.2060  0.4293  0.1263
 5024TIP3    H136487   5.206   2.030  16.202 -1.5640 -1.3552  0.3844
 5024TIP3    H236488   5.222   1.921  16.306  2.7561 -0.5840  0.7230
 5025TIP3   OH236489   4.487   1.483  15.029  0.1820 -0.2667 -0.1800
 5025TIP3    H136490   4.395   1.464  15.042  0.6122 -2.7839 -0.3497
 5025TIP3    H236491   4.521   1.407  14.981  2.1089  1.1163 -1.1665
 5026TIP3   OH236492   2.161   5.730   5.406  0.1772 -0.2550 -0.9560
 5026TIP3    H136493   2.066   5.737   5.414  0.2775 -0.1642  0.2937
 5026TIP3    H236494   2.179   5.750   5.314 -1.2296 -2.6381 -1.8653
 5027TIP3   OH236495   1.635   6.041  11.823  0.2644 -0.1319  0.0983
 5027TIP3    H136496   1.707   6.090  11.863 -1.0218  1.0507  1.0603
 5027TIP3    H236497   1.613   5.974  11.888 -0.2283  0.2340  0.3161
 5028TIP3   OH236498   4.757   5.904  16.520 -0.5238 -0.4978 -0.4329
 5028TIP3    H136499   4.711   5.849  16.456 -1.1969 -1.1314  0.5721
 5028TIP3    H236500   4.828   5.848  16.554 -0.9967 -0.6391  0.3421
 5029TIP3   OH236501   2.857   2.941  15.890 -0.6468  0.0519  0.4677
 5029TIP3    H136502   2.790   3.007  15.877 -0.6418  0.1710  1.0292
 5029TIP3    H236503   2.811   2.868  15.932 -0.4809  0.0362  0.6249
 5030TIP3   OH236504   0.697   2.944   0.726 -0.1609 -0.0895 -0.1635
 5030TIP3    H136505   0.642   2.972   0.800  1.1234  0.5765  0.5815
 5030TIP3    H236506   0.724   3.026   0.684 -0.9902 -0.4652 -1.4970
 5031TIP3   OH236507   5.509   4.871  12.447 -0.2168 -0.2601  0.2548
 5031TIP3    H136508   5.518   4.778  12.466 -1.9329 -0.8448 -1.3910
 5031TIP3    H236509   5.572   4.887  12.376  1.0681  0.2070  1.4592
 5032TIP3   OH236510   4.871   5.312  10.719  0.0631 -0.1816  0.0107
 5032TIP3    H136511   4.956   5.288  10.682 -0.4024 -2.1139  0.0834
 5032TIP3    H236512   4.807   5.276  10.658 -0.7176  1.0275  0.0917
 5033TIP3   OH236513   5.893   4.098   4.028  0.4764 -0.3886 -0.3054
 5033TIP3    H136514   5.816   4.126   3.979  0.7139 -0.3983 -0.6947
 5033TIP3    H236515   5.860   4.036   4.093 -0.0262  0.6149  0.4227
 5034TIP3   OH236516   6.535   5.007  13.159  0.3262  0.2919 -0.3423
 5034TIP3    H136517   6.606   4.992  13.221 -1.1266 -0.6312  1.2094
 5034TIP3    H236518   6.481   4.928  13.164 -0.8048  0.9502 -1.4519
 5035TIP3   OH236519   6.260   0.623  11.170  0.1298  0.3948  0.4063
 5035TIP3    H136520   6.166   0.611  11.188  0.3786 -1.3299  0.7789
 5035TIP3    H236521   6.287   0.692  11.230 -0.7213  0.2667  0.9590
 5036TIP3   OH236522   3.662   1.680  13.826 -0.1698  0.8283 -0.5905
 5036TIP3    H136523   3.729   1.737  13.864  1.4308 -0.9141 -0.6361
 5036TIP3    H236524   3.591   1.681  13.890  2.2950 -1.7695  2.5200
 5037TIP3   OH236525   5.001   5.461   2.891 -0.0481 -0.0521 -0.2214
 5037TIP3    H136526   4.973   5.470   2.982  0.3864 -1.7563  0.1162
 5037TIP3    H236527   5.079   5.406   2.896  1.2623  1.5956 -1.4595
 5038TIP3   OH236528   2.095   4.629  12.282  0.2118 -0.2669 -0.4518
 5038TIP3    H136529   2.176   4.666  12.319  1.5455 -2.1892 -1.2792
 5038TIP3    H236530   2.049   4.594  12.359 -0.6007  2.0665  0.2139
 5039TIP3   OH236531   5.019   0.387   4.875 -0.2835  0.2856 -0.1227
 5039TIP3    H136532   4.937   0.430   4.900 -0.4137 -0.4706  0.8302
 5039TIP3    H236533   5.059   0.362   4.959  2.6392  3.6219 -0.2808
 5040TIP3   OH236534   3.814   4.193   4.447  0.0892 -0.2679 -0.5169
 5040TIP3    H136535   3.869   4.186   4.525  1.7396  0.9181 -1.5203
 5040TIP3    H236536   3.731   4.228   4.480  0.0455 -1.6727  0.9673
 5041TIP3   OH236537   1.949   1.322   3.006  0.3144 -0.0917 -0.0594
 5041TIP3    H136538   1.887   1.250   3.010  0.6836 -0.3630  1.0330
 5041TIP3    H236539   1.904   1.391   2.957 -1.3554  0.2164  1.8316
 5042TIP3   OH236540   1.492   4.155  12.912  0.3166  0.4449 -0.2356
 5042TIP3    H136541   1.517   4.189  12.826  2.6155  1.1618  0.6372
 5042TIP3    H236542   1.562   4.094  12.934 -1.1285 -1.0446  0.4334
 5043TIP3   OH236543   3.274   3.110   5.292  0.1013  0.1609  0.2540
 5043TIP3    H136544   3.235   3.174   5.352 -0.1217 -0.1314  0.4293
 5043TIP3    H236545   3.287   3.032   5.347 -1.5872 -0.6568 -0.4331
 5044TIP3   OH236546   5.293   1.200  15.825  0.2734  0.3652 -0.0242
 5044TIP3    H136547   5.216   1.221  15.773 -0.7830  2.4017  2.1826
 5044TIP3    H236548   5.320   1.284  15.863  2.7133 -0.5500  0.4613
 5045TIP3   OH236549   5.892   4.770  14.353 -0.1933  0.3493 -0.3194
 5045TIP3    H136550   5.861   4.846  14.402 -0.9373  1.3268 -2.2268
 5045TIP3    H236551   5.939   4.806  14.278  0.6717 -1.0961 -0.5233
 5046TIP3   OH236552   0.143   4.040  14.256 -0.3179 -0.6927 -0.1325
 5046TIP3    H136553   0.145   3.982  14.180 -2.2672 -1.5371  0.3815
 5046TIP3    H236554   0.160   4.127  14.220  1.3578 -1.3856 -1.1117
 5047TIP3   OH236555   1.689   2.036  10.572  0.3493  0.1730 -0.3946
 5047TIP3    H136556   1.603   2.076  10.565  0.0250 -0.5268 -0.5081
 5047TIP3    H236557   1.750   2.107  10.554 -0.1514  0.9610  0.8431
 5048TIP3   OH236558   5.160   6.653   2.793  0.3646  0.1067  0.7710
 5048TIP3    H136559   5.129   6.737   2.826  0.2607 -0.2200  1.5323
 5048TIP3    H236560   5.252   6.668   2.770  0.0051  0.7449 -0.2844
 5049TIP3   OH236561   0.236   6.099   5.475  0.1910 -0.0390  0.5527
 5049TIP3    H136562   0.258   6.115   5.383  1.1138  1.0214  0.9287
 5049TIP3    H236563   0.297   6.030   5.503  0.9421  0.6814  0.7451
 5050TIP3   OH236564   2.624   1.925   1.528  0.0490 -0.6896 -0.3922
 5050TIP3    H136565   2.667   1.989   1.472  0.1003 -1.2138 -0.9664
 5050TIP3    H236566   2.587   1.976   1.600  0.4398 -0.0726 -0.6231
 5051TIP3   OH236567   4.662   2.144  12.922  0.1536  0.1792  0.1026
 5051TIP3    H136568   4.572   2.140  12.953 -0.0993  0.2799 -0.6136
 5051TIP3    H236569   4.715   2.129  13.001 -0.4445  1.6393  0.8072
 5052TIP3   OH236570   0.024   4.717  15.834 -0.2447  0.1012  0.4880
 5052TIP3    H136571   0.044   4.733  15.926  0.9672  0.4064  0.1951
 5052TIP3    H236572   0.003   4.624  15.830  1.9212 -0.4568  0.7478
 5053TIP3   OH236573   5.045   1.975  12.726  0.0687  0.0666  0.0564
 5053TIP3    H136574   5.116   1.986  12.662 -0.2654 -0.1583 -0.3560
 5053TIP3    H236575   5.049   1.882  12.750 -0.4010 -0.0612 -0.3435
 5054TIP3   OH236576   1.855   1.294  10.479  0.2292 -0.0593  0.4435
 5054TIP3    H136577   1.885   1.209  10.511 -0.1136 -0.4710 -0.3068
 5054TIP3    H236578   1.897   1.303  10.393 -0.3991  0.1469  0.1511
 5055TIP3   OH236579   4.295   0.666  13.458  0.0073  0.0387  0.2368
 5055TIP3    H136580   4.276   0.691  13.368 -0.3061  0.2107  0.3515
 5055TIP3    H236581   4.210   0.657  13.500  0.1445 -0.2630  0.4587
 5056TIP3   OH236582   5.673   2.463   5.733 -0.4820 -0.0996 -0.3649
 5056TIP3    H136583   5.694   2.374   5.706 -0.4391  0.1005 -0.9920
 5056TIP3    H236584   5.737   2.518   5.689 -0.7059  0.2755 -0.2289
 5057TIP3   OH236585   4.747   2.236   5.035 -0.2768  0.5490 -0.7092
 5057TIP3    H136586   4.808   2.162   5.044 -0.7629  0.2633  0.4080
 5057TIP3    H236587   4.797   2.302   4.986  0.7769  0.1584 -0.1950
 5058TIP3   OH236588   3.255   3.994   1.712 -0.1595  0.0067 -0.2370
 5058TIP3    H136589   3.191   3.942   1.761  0.0427 -0.2940 -0.2843
 5058TIP3    H236590   3.224   4.084   1.718  0.5513  0.1748  1.5691
 5059TIP3   OH236591   1.715   0.452   5.194 -0.0814  0.4810  0.0029
 5059TIP3    H136592   1.795   0.412   5.225  0.7008  0.9160 -1.3446
 5059TIP3    H236593   1.644   0.401   5.234  0.8338 -2.3016 -1.6384
 5060TIP3   OH236594   3.760   3.274   2.185  0.2099  0.2113  0.4795
 5060TIP3    H136595   3.672   3.243   2.163 -0.7783  2.3292  1.1464
 5060TIP3    H236596   3.771   3.354   2.133  1.5458  0.2312  0.7591
 5061TIP3   OH236597   1.545   1.655   0.128 -0.2540  0.1329  0.7186
 5061TIP3    H136598   1.538   1.750   0.136 -1.0074  0.1185  0.3585
 5061TIP3    H236599   1.459   1.623   0.154  0.2311 -0.5036  1.5598
 5062TIP3   OH236600   0.140   3.913   0.385 -0.8145  0.1716 -0.0252
 5062TIP3    H136601   0.187   3.992   0.359  0.4909 -0.7515 -0.5655
 5062TIP3    H236602   0.048   3.934   0.367 -0.4475  1.3715 -0.6647
 5063TIP3   OH236603   3.943   5.582  16.396  0.2063 -0.2672 -0.0100
 5063TIP3    H136604   3.983   5.537  16.470  0.0570 -0.2393  0.0879
 5063TIP3    H236605   3.890   5.651  16.436 -1.3085 -1.3740 -0.0598
 5064TIP3   OH236606   4.127   5.825   1.430 -0.4401 -0.0232  0.0766
 5064TIP3    H136607   4.093   5.759   1.370 -1.4315  0.3429  0.2109
 5064TIP3    H236608   4.064   5.896   1.425  0.3277  0.6892  0.3456
 5065TIP3   OH236609   3.651   6.410   4.594 -0.2100  0.4713  0.1272
 5065TIP3    H136610   3.623   6.501   4.592 -0.7132  0.3213  0.1507
 5065TIP3    H236611   3.579   6.362   4.552 -0.3358 -0.0027  0.8632
 5066TIP3   OH236612   0.253   0.943   5.210 -0.1244  0.0959 -0.1666
 5066TIP3    H136613   0.264   0.950   5.115  0.5817  0.3890 -0.0712
 5066TIP3    H236614   0.330   0.988   5.246  0.6984 -1.7818  0.5375
 5067TIP3   OH236615   6.714   5.222   4.952  0.1271  0.0358  0.1847
 5067TIP3    H136616   6.721   5.173   5.033  1.3492  1.4250  0.9771
 5067TIP3    H236617   6.779   5.292   4.961 -0.1864  0.6274 -1.7034
 5068TIP3   OH236618   3.527   4.499  16.356  0.1716  0.2009 -0.6129
 5068TIP3    H136619   3.473   4.572  16.388 -1.9492 -1.6347  0.1917
 5068TIP3    H236620   3.527   4.510  16.261  0.1461  1.4047 -0.4948
 5069TIP3   OH236621   5.344   5.119   1.131 -0.3545 -0.0780 -0.4748
 5069TIP3    H136622   5.363   5.029   1.160  0.3668 -0.3767 -1.8212
 5069TIP3    H236623   5.272   5.147   1.188  0.1861 -1.0790  0.7524
 5070TIP3   OH236624   6.466   0.892   2.693 -0.3128 -0.1840 -0.3265
 5070TIP3    H136625   6.553   0.859   2.714 -0.4021 -1.2651 -1.4919
 5070TIP3    H236626   6.481   0.979   2.655 -0.1024  1.4521  3.1562
 5071TIP3   OH236627   1.963   6.160   5.073 -0.7424 -0.0544 -0.4065
 5071TIP3    H136628   1.947   6.244   5.118 -2.0442 -0.8375  0.6720
 5071TIP3    H236629   2.056   6.143   5.087 -0.6090  0.8762 -0.0582
 5072TIP3   OH236630   2.273   2.311  14.709 -0.2095 -0.1477 -0.4262
 5072TIP3    H136631   2.200   2.253  14.731 -2.0752  1.5768 -1.6904
 5072TIP3    H236632   2.332   2.257  14.657 -1.5058 -1.1162 -0.9360
 5073TIP3   OH236633   3.458   2.209  16.181 -0.2188 -0.1015 -0.3979
 5073TIP3    H136634   3.551   2.227  16.167 -0.2399 -0.9568 -1.8997
 5073TIP3    H236635   3.414   2.259  16.112 -0.9778  0.9611  0.8028
 5074TIP3   OH236636   4.091   2.568  13.098 -0.1357 -0.1453 -0.3659
 5074TIP3    H136637   4.069   2.477  13.079 -0.0966 -0.0267 -1.0104
 5074TIP3    H236638   4.160   2.590  13.035 -2.6605  1.4385 -2.7795
 5075TIP3   OH236639   1.362   4.203  16.953 -0.4011 -0.5697 -0.3200
 5075TIP3    H136640   1.412   4.165  17.025 -0.8023  1.3205  1.0529
 5075TIP3    H236641   1.271   4.185  16.975 -0.6711  1.8737  0.9051
 5076TIP3   OH236642   6.070   5.337  12.112 -0.4100 -0.0388 -0.6054
 5076TIP3    H136643   6.005   5.355  12.180  0.9413  0.5433  0.6031
 5076TIP3    H236644   6.044   5.253  12.075 -1.1241 -0.4376  0.7437
 5077TIP3   OH236645   5.676   6.521   3.079  0.4433  0.5258 -0.1101
 5077TIP3    H136646   5.597   6.486   3.120 -0.3683  1.0391 -1.2110
 5077TIP3    H236647   5.736   6.536   3.152  0.3177 -1.8119  0.5604
 5078TIP3   OH236648   6.599   6.752  17.028 -0.0765 -0.7537 -0.4096
 5078TIP3    H136649   6.611   6.833  16.979 -1.1959  1.1465  2.1913
 5078TIP3    H236650   6.506   6.751  17.051  0.1754 -2.1068  0.7141
 5079TIP3   OH236651   2.026   2.095  15.572 -0.0309  0.1857  0.2657
 5079TIP3    H136652   2.088   2.057  15.635  0.7974  1.6997  0.4030
 5079TIP3    H236653   2.004   2.180  15.609 -0.9040  0.3730 -0.6503
 5080TIP3   OH236654   1.574   1.562   2.510  0.1941  0.6259 -0.3163
 5080TIP3    H136655   1.511   1.592   2.576  1.1416 -0.2028  1.0131
 5080TIP3    H236656   1.520   1.539   2.435 -0.9907  1.0149  0.3831
 5081TIP3   OH236657   5.754   3.954   4.212 -0.6369 -0.2666 -0.1425
 5081TIP3    H136658   5.750   4.023   4.278 -1.2121  0.0308 -0.4835
 5081TIP3    H236659   5.677   3.899   4.229 -0.6727 -0.3075 -0.4337
 5082TIP3   OH236660   6.117   6.257   5.162  0.2407  0.0512  0.1427
 5082TIP3    H136661   6.021   6.265   5.161  0.0088 -1.7585 -1.9613
 5082TIP3    H236662   6.133   6.163   5.164  1.9198  0.2581 -1.0318
 5083TIP3   OH236663   1.850   0.750  12.057 -0.4855 -0.0259 -0.1771
 5083TIP3    H136664   1.851   0.835  12.011  0.6463 -0.8259 -1.7304
 5083TIP3    H236665   1.928   0.753  12.113  0.7914 -0.7776 -1.8000
 5084TIP3   OH236666   4.394   6.739   0.247 -0.2448 -0.0890 -0.4208
 5084TIP3    H136667   4.413   6.768   0.158 -0.7353  0.1192 -0.4612
 5084TIP3    H236668   4.361   6.817   0.291  1.2821  0.1680  0.3543
 5085TIP3   OH236669   5.112   1.980   5.219 -0.1637  0.1530  1.1687
 5085TIP3    H136670   5.121   2.056   5.276 -0.2524 -0.0235  1.4220
 5085TIP3    H236671   5.197   1.936   5.225  1.4142  2.3742 -2.1388
 5086TIP3   OH236672   1.881   1.534   0.820 -0.1404  0.4862 -0.4338
 5086TIP3    H136673   1.814   1.579   0.872 -0.6363  0.2877 -0.8864
 5086TIP3    H236674   1.831   1.482   0.757  0.2526 -3.4457  2.1632
 5087TIP3   OH236675   0.089   1.404   6.264 -0.3824  0.7211  0.4041
 5087TIP3    H136676   0.136   1.487   6.276 -1.3552  1.1060  1.7061
 5087TIP3    H236677   0.102   1.383   6.172 -1.0596  2.8957 -0.2372
 5088TIP3   OH236678   0.691   0.585   3.884  0.3379  0.4378 -0.2496
 5088TIP3    H136679   0.779   0.564   3.853 -1.2303 -2.2106 -3.6285
 5088TIP3    H236680   0.654   0.500   3.910 -1.7226  1.2002 -0.5210
 5089TIP3   OH236681   6.461   2.161   1.929  0.4554  0.1897  0.0072
 5089TIP3    H136682   6.410   2.127   1.855  2.7638 -0.8457 -1.2065
 5089TIP3    H236683   6.416   2.241   1.954 -2.5301 -1.3165 -0.0774
 5090TIP3   OH236684   4.572   4.103  13.391 -0.1596 -0.4900 -0.7968
 5090TIP3    H136685   4.552   4.050  13.314 -2.7692 -0.6322 -0.1235
 5090TIP3    H236686   4.612   4.041  13.453 -0.8279 -1.0949 -0.9538
 5091TIP3   OH236687   1.598   3.445   2.359  0.1071 -0.0110  0.1462
 5091TIP3    H136688   1.591   3.534   2.393 -0.9052  1.0164 -2.4682
 5091TIP3    H236689   1.510   3.423   2.331  0.5212 -1.4993 -0.0567
 5092TIP3   OH236690   5.437   0.679  15.231 -0.5866 -0.5410 -0.2120
 5092TIP3    H136691   5.430   0.707  15.139 -1.0525 -0.6316 -0.2054
 5092TIP3    H236692   5.362   0.621  15.244 -1.2098  0.4107  0.5588
 5093TIP3   OH236693   3.923   1.546  16.659 -1.1783  0.6772 -0.4604
 5093TIP3    H136694   3.954   1.634  16.639 -0.2007  0.5820  0.5669
 5093TIP3    H236695   3.842   1.560  16.709 -1.3478  0.9745 -0.8156
 5094TIP3   OH236696   2.301   5.471   3.292  0.4061 -0.1735  0.6463
 5094TIP3    H136697   2.258   5.428   3.366 -0.1269 -2.2117 -0.7610
 5094TIP3    H236698   2.270   5.423   3.215  1.0988  1.7303 -0.9061
 5095TIP3   OH236699   4.344   4.160  13.545  0.6565 -0.6337  0.5346
 5095TIP3    H136700   4.302   4.094  13.491  0.8736 -0.1854 -0.1877
 5095TIP3    H236701   4.430   4.174  13.506  0.6596 -0.0064  0.7425
 5096TIP3   OH236702   0.951   1.290   1.757 -0.0326 -0.2276 -0.1148
 5096TIP3    H136703   0.988   1.297   1.669 -0.0570  1.0459 -0.0465
 5096TIP3    H236704   1.008   1.345   1.811  0.3021 -1.4234  0.7847
 5097TIP3   OH236705   3.066   5.192  13.434 -0.6046  0.2695 -0.0776
 5097TIP3    H136706   3.108   5.209  13.350 -0.0811  0.9074  0.3046
 5097TIP3    H236707   3.122   5.126  13.475 -1.7916 -1.3437 -0.9148
 5098TIP3   OH236708   2.074   3.286   4.742 -0.2093  0.2013 -0.3171
 5098TIP3    H136709   2.074   3.191   4.731 -0.0161  0.1912 -0.2316
 5098TIP3    H236710   2.157   3.305   4.784  0.0793  0.4881 -1.0006
 5099TIP3   OH236711   6.011   4.068  14.225  0.1586 -0.0694  0.0421
 5099TIP3    H136712   6.103   4.044  14.211  0.4635  0.3338  1.1771
 5099TIP3    H236713   6.016   4.143  14.285 -0.9507 -0.6844  0.9231
 5100TIP3   OH236714   0.476   5.381  11.447  0.1240  0.0204 -0.1317
 5100TIP3    H136715   0.537   5.361  11.376  0.1905  0.3934 -0.1824
 5100TIP3    H236716   0.394   5.337  11.422 -0.6812  2.3040 -1.7830
 5101TIP3   OH236717   2.187   1.440   1.691 -0.6720  0.3031  0.0418
 5101TIP3    H136718   2.233   1.524   1.686 -0.3897  0.0776 -1.4004
 5101TIP3    H236719   2.199   1.401   1.605 -1.0672 -1.0898  0.6020
 5102TIP3   OH236720   0.484   1.116  14.104  0.0885 -0.4313 -0.0425
 5102TIP3    H136721   0.502   1.174  14.030 -0.4966 -0.6309 -0.3461
 5102TIP3    H236722   0.510   1.029  14.073  0.2470 -0.4523  0.1438
 5103TIP3   OH236723   0.231   0.806  13.653 -0.1513  0.5642  0.2162
 5103TIP3    H136724   0.182   0.884  13.627  1.2169  1.2130 -0.5549
 5103TIP3    H236725   0.165   0.740  13.672 -1.3665  1.9975  1.1878
 5104TIP3   OH236726   0.326   4.736  12.788 -0.6128 -0.1464  0.8292
 5104TIP3    H136727   0.354   4.802  12.851 -0.8297 -1.2974  2.1779
 5104TIP3    H236728   0.407   4.693  12.761 -0.4927  0.5136  0.1026
 5105TIP3   OH236729   5.335   4.791   1.794 -0.3124 -0.2268  0.1522
 5105TIP3    H136730   5.370   4.731   1.859  1.7642  3.4505  2.8158
 5105TIP3    H236731   5.262   4.835   1.838 -0.1045  0.9984 -0.6715
 5106TIP3   OH236732   0.796   6.012  12.895 -0.3335  0.0336  0.1999
 5106TIP3    H136733   0.889   6.011  12.919 -0.2494  0.5555 -0.1056
 5106TIP3    H236734   0.750   6.004  12.979 -0.0223  0.3882  0.4044
 5107TIP3   OH236735   4.821   4.363   0.283  0.0034  0.3284 -0.3077
 5107TIP3    H136736   4.879   4.326   0.349  1.8005  2.2068 -0.7131
 5107TIP3    H236737   4.776   4.434   0.327  0.9934  1.4034 -0.9562
 5108TIP3   OH236738   1.448   2.859   2.439  0.3700 -0.0269 -0.4608
 5108TIP3    H136739   1.455   2.868   2.344  1.5866 -0.6666 -0.4464
 5108TIP3    H236740   1.521   2.910   2.474  1.0465 -1.2987  0.0343
 5109TIP3   OH236741   6.141   6.031   0.173  0.3659 -0.1420  0.0287
 5109TIP3    H136742   6.175   6.117   0.197 -0.1959  0.6133 -1.7363
 5109TIP3    H236743   6.212   5.988   0.126  0.5997 -0.6244  0.7917
 5110TIP3   OH236744   2.185   4.837   2.367  0.2855 -0.4435 -0.0446
 5110TIP3    H136745   2.098   4.802   2.348  0.1865  0.2444 -0.9224
 5110TIP3    H236746   2.185   4.853   2.462 -1.0494  0.8597 -0.2406
 5111TIP3   OH236747   6.426   0.996  12.106  0.2600 -0.3742  0.0193
 5111TIP3    H136748   6.477   1.049  12.044  0.7186 -2.2854 -1.3261
 5111TIP3    H236749   6.335   1.015  12.085  0.4186 -0.5764 -0.9011
 5112TIP3   OH236750   2.527   6.809   2.346  0.2650 -0.4917  0.5435
 5112TIP3    H136751   2.522   6.868   2.421  2.1610  0.9732 -0.4088
 5112TIP3    H236752   2.528   6.721   2.385  0.1796  0.1960  2.1668
 5113TIP3   OH236753   0.982   4.754   2.662 -0.0464  0.2960 -0.1862
 5113TIP3    H136754   0.992   4.750   2.757 -0.9899  1.2339 -0.0387
 5113TIP3    H236755   0.902   4.704   2.644  0.7378 -0.8565 -0.6226
 5114TIP3   OH236756   2.073   3.389   3.547  0.3394 -0.5136 -0.7948
 5114TIP3    H136757   1.983   3.410   3.573  0.4268 -0.1811 -0.7611
 5114TIP3    H236758   2.128   3.435   3.610  0.5317 -0.9151 -0.6678
 5115TIP3   OH236759   4.077   1.586   2.110 -0.4943  0.1345 -0.2647
 5115TIP3    H136760   4.054   1.494   2.098 -2.4228  0.8507 -3.1925
 5115TIP3    H236761   4.004   1.623   2.160 -0.3322  0.3218 -0.1634
 5116TIP3   OH236762   5.189   1.805   3.742 -0.4079  0.2293 -0.0888
 5116TIP3    H136763   5.206   1.856   3.820  0.0143 -1.1062  0.7336
 5116TIP3    H236764   5.259   1.830   3.680 -0.2912  0.7305  0.2468
 5117TIP3   OH236765   5.479   1.105  13.735  0.8984 -0.0442  0.5156
 5117TIP3    H136766   5.407   1.136  13.790  0.6845  1.7896 -0.7029
 5117TIP3    H236767   5.438   1.083  13.652  1.8584  3.1947 -1.0004
 5118TIP3   OH236768   1.294   2.104   1.080  0.3173 -0.0765  0.4499
 5118TIP3    H136769   1.362   2.106   1.012 -0.6645  1.4453 -0.5554
 5118TIP3    H236770   1.342   2.083   1.160  1.6942 -0.7715 -0.5079
 5119TIP3   OH236771   0.449   1.950  11.465 -0.1096  0.3145  0.1342
 5119TIP3    H136772   0.391   1.908  11.402 -0.2893 -0.6009  0.8932
 5119TIP3    H236773   0.398   1.955  11.546  0.2476  1.1315  0.3240
 5120TIP3   OH236774   0.731   4.697  10.616 -0.9365  0.2287 -0.0776
 5120TIP3    H136775   0.768   4.613  10.644  0.1237  0.9637  0.7890
 5120TIP3    H236776   0.802   4.740  10.568 -0.7490  1.5004  1.2841
 5121TIP3   OH236777   2.520   1.813   4.019 -0.3968  0.1529  0.6291
 5121TIP3    H136778   2.594   1.867   4.046 -0.0601 -0.7296  1.5345
 5121TIP3    H236779   2.529   1.732   4.071 -1.5130 -0.3080  0.1349
 5122TIP3   OH236780   6.211   5.814  12.721 -0.1878  0.3761 -0.6132
 5122TIP3    H136781   6.237   5.766  12.642 -0.0938  1.0412 -0.9935
 5122TIP3    H236782   6.149   5.879  12.690  0.8356  1.5098 -0.3627
 5123TIP3   OH236783   6.404   3.815  13.409  0.5943 -0.9011 -0.0279
 5123TIP3    H136784   6.495   3.814  13.441  0.8783 -0.6062 -0.8051
 5123TIP3    H236785   6.384   3.908  13.397  0.4602 -0.9993 -0.6016
 5124TIP3   OH236786   1.012   6.738   2.430  0.3585  0.4517 -0.5134
 5124TIP3    H136787   1.041   6.704   2.345  0.0284  0.3242 -0.5765
 5124TIP3    H236788   0.958   6.668   2.467 -1.3181  1.3366 -1.1628
 5125TIP3   OH236789   5.520   4.201  13.778  0.1476 -0.1836 -0.5611
 5125TIP3    H136790   5.595   4.198  13.719  0.0921  4.3054 -1.2354
 5125TIP3    H236791   5.556   4.230  13.862 -0.6146  1.2304 -0.6754
 5126TIP3   OH236792   6.505   3.159   5.548  0.1578 -0.4624  0.6592
 5126TIP3    H136793   6.434   3.115   5.594  0.6293 -0.5805  1.2788
 5126TIP3    H236794   6.482   3.150   5.455  0.9031 -3.2024  0.6549
 5127TIP3   OH236795   5.129   0.233  15.111 -0.8003 -0.3282 -0.5424
 5127TIP3    H136796   5.092   0.310  15.153 -0.2791 -0.5151  0.2775
 5127TIP3    H236797   5.092   0.159  15.159 -2.1732 -0.6622 -2.0219
 5128TIP3   OH236798   1.014   5.336   1.296  0.1181  0.2265 -0.3590
 5128TIP3    H136799   0.990   5.421   1.332 -1.4288 -0.5307  0.5232
 5128TIP3    H236800   1.098   5.315   1.337 -0.3500  0.5518  0.8135
 5129TIP3   OH236801   1.978   3.837  13.625 -0.2703 -0.1877  0.3467
 5129TIP3    H136802   1.932   3.762  13.586 -0.2948  0.0744 -0.1465
 5129TIP3    H236803   1.909   3.888  13.667 -0.0583 -1.2056  1.9893
 5130TIP3   OH236804   1.668   4.382  10.701  0.2328 -0.6973  0.0852
 5130TIP3    H136805   1.597   4.327  10.734 -1.0525  0.5344 -0.5394
 5130TIP3    H236806   1.628   4.434  10.631  1.4289  0.9332  0.5463
 5131TIP3   OH236807   0.414   5.551  12.544 -0.7761  0.2434  0.4866
 5131TIP3    H136808   0.426   5.457  12.550 -0.0661  0.3527  0.9103
 5131TIP3    H236809   0.497   5.588  12.574 -1.5334  1.0306  1.6886
 5132TIP3   OH236810   1.057   3.173   3.400  0.7534 -0.0051  0.0428
 5132TIP3    H136811   1.043   3.191   3.493  0.7379  1.1938 -0.1739
 5132TIP3    H236812   1.041   3.257   3.357 -0.9161 -0.9062 -1.2365
 5133TIP3   OH236813   6.802   5.412   5.851  0.6483 -0.2527 -0.1462
 5133TIP3    H136814   6.888   5.375   5.872  0.2058 -1.1420  0.1507
 5133TIP3    H236815   6.822   5.494   5.806  1.7100 -1.3542 -1.8351
 5134TIP3   OH236816   6.260   4.761   6.346 -0.5990  0.1075 -0.2116
 5134TIP3    H136817   6.186   4.737   6.403 -1.1670 -0.4045 -1.1284
 5134TIP3    H236818   6.335   4.716   6.385 -0.9871 -0.2748  0.1168
 5135TIP3   OH236819   5.600   0.900   4.727  0.3071  0.5931  0.5160
 5135TIP3    H136820   5.636   0.968   4.783  0.3763  0.8617  0.1507
 5135TIP3    H236821   5.635   0.920   4.640  0.1870  0.1927  0.3743
 5136TIP3   OH236822   2.736   4.098  10.805  0.5240  0.2051 -0.1345
 5136TIP3    H136823   2.775   4.180  10.776 -0.2678  0.5185 -0.3178
 5136TIP3    H236824   2.743   4.100  10.901  2.2051 -0.3726 -0.2038
 5137TIP3   OH236825   0.733   5.270   6.446 -0.2129 -0.2707  0.2503
 5137TIP3    H136826   0.667   5.230   6.390  2.5665 -1.8054 -2.2204
 5137TIP3    H236827   0.731   5.363   6.425 -0.5478 -0.5353 -0.9500
 5138TIP3   OH236828   1.529   1.402  12.988  0.4198  0.1264  0.4710
 5138TIP3    H136829   1.541   1.497  12.982  0.8982  0.1568  1.5808
 5138TIP3    H236830   1.480   1.389  13.069 -0.3274 -0.5341 -0.0694
 5139TIP3   OH236831   3.875   1.948  13.742  0.2605 -0.5536 -0.2322
 5139TIP3    H136832   3.914   2.030  13.712 -0.1325 -0.6642 -1.0546
 5139TIP3    H236833   3.819   1.975  13.815 -0.6931  0.0755 -1.1672
 5140TIP3   OH236834   3.894   4.672   5.594  0.1316  0.5008 -0.6434
 5140TIP3    H136835   3.981   4.708   5.573  0.8753 -0.1220  1.2212
 5140TIP3    H236836   3.898   4.583   5.561  0.1792  0.4910 -0.6124
 5141TIP3   OH236837   2.688   1.089  17.040 -0.0725  0.0085  0.7477
 5141TIP3    H136838   2.675   0.998  17.064  0.3706 -0.4489 -0.6833
 5141TIP3    H236839   2.640   1.100  16.958  1.6371  0.4717 -0.2473
 5142TIP3   OH236840   4.743   3.957  14.658  0.4619  0.1134  0.1445
 5142TIP3    H136841   4.678   3.950  14.728 -1.4680 -2.3653 -1.7004
 5142TIP3    H236842   4.785   3.871  14.656  0.5042  0.1473 -1.6596
 5143TIP3   OH236843   3.417   0.127   2.400  0.1194  0.1520  0.8910
 5143TIP3    H136844   3.445   0.159   2.314 -2.2761  0.4846  0.1738
 5143TIP3    H236845   3.440   0.198   2.461  2.7514 -0.4879  0.7929
 5144TIP3   OH236846   5.566   1.346   5.702  0.6976  0.0834  0.7791
 5144TIP3    H136847   5.495   1.282   5.711 -1.2471  2.0283  0.0476
 5144TIP3    H236848   5.637   1.297   5.660 -1.0692 -1.3628 -0.6958
 5145TIP3   OH236849   3.862   6.660  15.516  0.2524 -0.2757 -0.1261
 5145TIP3    H136850   3.921   6.652  15.591 -1.4245 -1.2489  1.1619
 5145TIP3    H236851   3.791   6.716  15.548  0.1397  0.3500 -1.4263
 5146TIP3   OH236852   0.868   2.131  15.865 -0.3705 -0.2054  0.1873
 5146TIP3    H136853   0.843   2.108  15.955 -0.5025  1.1573  0.5179
 5146TIP3    H236854   0.884   2.226  15.868 -0.6845 -0.0863 -1.3025
 5147TIP3   OH236855   1.275   0.561   0.255 -0.0478 -0.3592  0.5277
 5147TIP3    H136856   1.202   0.561   0.193  1.2791  1.3192 -1.1447
 5147TIP3    H236857   1.236   0.588   0.338 -1.4766 -0.3651 -0.1053
 5148TIP3   OH236858   2.866   4.528  10.673  0.0570  0.7361  0.5082
 5148TIP3    H136859   2.772   4.542  10.668  0.0576  0.7257  0.4699
 5148TIP3    H236860   2.899   4.601  10.725 -0.0910  0.2285  1.3304
 5149TIP3   OH236861   4.651   2.566   2.397  0.0372 -0.1784 -0.4964
 5149TIP3    H136862   4.735   2.608   2.414  1.0536 -0.9605 -3.0348
 5149TIP3    H236863   4.587   2.636   2.405  1.0235  0.6302  0.6176
 5150TIP3   OH236864   3.703   5.199  12.351  0.0569 -0.5183 -0.6196
 5150TIP3    H136865   3.733   5.120  12.397  2.5221  0.3317 -0.6507
 5150TIP3    H236866   3.718   5.180  12.259  0.2479 -0.1696 -0.6589
 5151TIP3   OH236867   2.698   6.776  11.034 -0.2029 -0.2229  0.3211
 5151TIP3    H136868   2.690   6.684  11.010  0.9803 -0.5898  1.2478
 5151TIP3    H236869   2.701   6.776  11.130 -0.6783  0.8292  0.3523
 5152TIP3   OH236870   4.380   2.061   3.577  0.2561 -0.0188 -0.0230
 5152TIP3    H136871   4.293   2.083   3.545  0.3782  1.1256  0.3739
 5152TIP3    H236872   4.429   2.143   3.571  0.4517  0.1104  2.4702
 5153TIP3   OH236873   2.187   3.533  15.243  0.1891 -0.7885 -0.4482
 5153TIP3    H136874   2.120   3.514  15.309  0.6121  1.2742  0.6644
 5153TIP3    H236875   2.261   3.568  15.293  0.5844  0.6912 -1.9537
 5154TIP3   OH236876   4.642   6.004   5.058 -0.0508 -0.9477 -0.3096
 5154TIP3    H136877   4.658   5.944   4.985  0.4830  0.4507 -1.3945
 5154TIP3    H236878   4.552   6.035   5.046 -0.3129 -1.4772  0.2253
 5155TIP3   OH236879   2.655   5.914  12.849 -0.1305  0.0585 -0.2929
 5155TIP3    H136880   2.727   5.910  12.912 -2.1517 -1.8445  2.0686
 5155TIP3    H236881   2.603   5.989  12.877 -0.2578  0.1104 -0.6614
 5156TIP3   OH236882   3.645   5.251  15.257 -0.5243  0.7035  0.2951
 5156TIP3    H136883   3.638   5.188  15.186  1.9657  1.9825 -1.2416
 5156TIP3    H236884   3.560   5.249  15.300 -1.3357 -1.8311 -1.2426
 5157TIP3   OH236885   6.075   0.586   0.972 -0.4529 -0.2280  0.2882
 5157TIP3    H136886   6.049   0.637   0.895  0.4621 -1.5259 -0.9094
 5157TIP3    H236887   6.108   0.504   0.937  1.2381 -0.3454  1.9943
 5158TIP3   OH236888   2.727   3.892   0.080 -0.1388 -0.4079 -0.0595
 5158TIP3    H136889   2.819   3.871   0.063  0.1813  1.2041 -0.4618
 5158TIP3    H236890   2.684   3.807   0.089  1.2030 -1.2003 -0.8722
 5159TIP3   OH236891   3.629   2.355  14.976  0.5923  0.5494  0.0896
 5159TIP3    H136892   3.535   2.358  14.956  0.6699 -2.5037 -1.2802
 5159TIP3    H236893   3.634   2.319  15.064  0.4331 -0.8356 -0.4357
 5160TIP3   OH236894   2.354   6.532  15.127 -0.2321 -0.4859 -0.4790
 5160TIP3    H136895   2.312   6.544  15.212  1.0807  0.0217  0.1378
 5160TIP3    H236896   2.293   6.570  15.064 -0.2075  1.2820  0.4951
 5161TIP3   OH236897   3.794   1.211  14.651 -0.1044 -0.5634 -0.0908
 5161TIP3    H136898   3.747   1.139  14.691  2.4214 -2.3476 -0.1128
 5161TIP3    H236899   3.787   1.196  14.557 -1.7554  0.7593 -0.2225
 5162TIP3   OH236900   5.640   5.411  14.710  0.2777  0.1205  0.3869
 5162TIP3    H136901   5.681   5.471  14.647 -0.7873 -1.9433 -2.4928
 5162TIP3    H236902   5.550   5.444  14.719  0.4263  0.4081  0.8358
 5163TIP3   OH236903   1.467   4.766  11.763  0.3024 -0.0867 -0.2838
 5163TIP3    H136904   1.406   4.718  11.708 -0.8351  0.6844  0.2644
 5163TIP3    H236905   1.470   4.715  11.845  1.6652 -1.0005 -0.8655
 5164TIP3   OH236906   5.908   1.891   2.230 -0.0976 -0.5043 -0.2372
 5164TIP3    H136907   5.935   1.922   2.144 -3.1492 -1.5639 -1.7287
 5164TIP3    H236908   5.886   1.971   2.278  2.3610  0.1494 -0.0618
 5165TIP3   OH236909   4.910   5.800  12.955  0.5652  0.2203 -0.1773
 5165TIP3    H136910   4.921   5.803  13.050 -2.4883  0.9862  0.2864
 5165TIP3    H236911   4.864   5.717  12.939  1.2062  0.0191 -1.0155
 5166TIP3   OH236912   4.159   4.669  12.179 -0.0980 -0.5339 -0.4153
 5166TIP3    H136913   4.095   4.677  12.250 -0.6459 -0.1532 -0.9472
 5166TIP3    H236914   4.240   4.705  12.216 -0.6786  0.7722 -0.3588
 5167TIP3   OH236915   0.663   2.414   6.035 -0.3517  0.3714  0.0220
 5167TIP3    H136916   0.745   2.384   6.074  0.2771  1.6220 -0.2884
 5167TIP3    H236917   0.595   2.389   6.098 -0.2427 -3.8224 -1.2561
 5168TIP3   OH236918   0.396   5.324   4.283  0.1817 -0.1665 -0.1451
 5168TIP3    H136919   0.429   5.256   4.342 -0.7536 -0.9843 -0.5194
 5168TIP3    H236920   0.301   5.308   4.280 -0.0790  1.2694 -0.1163
 5169TIP3   OH236921   3.480   4.021   3.052  1.0356 -0.4490 -0.1637
 5169TIP3    H136922   3.497   3.956   2.983  0.6856 -1.1957  0.4376
 5169TIP3    H236923   3.390   4.003   3.079  1.2049 -0.2227  0.5523
 5170TIP3   OH236924   1.925   1.227   4.469  0.0711  0.1422  0.2914
 5170TIP3    H136925   1.876   1.257   4.393 -1.1496  0.4767  1.1644
 5170TIP3    H236926   1.988   1.297   4.486  0.4607 -0.0084 -0.4843
 5171TIP3   OH236927   0.576   6.076  15.290 -0.0681 -0.5541 -0.0659
 5171TIP3    H136928   0.635   6.041  15.357  0.2614 -0.0956 -0.1102
 5171TIP3    H236929   0.488   6.063  15.325  0.0150 -1.9046 -0.3047
 5172TIP3   OH236930   3.930   1.817  12.217 -0.4072 -0.5893  0.2837
 5172TIP3    H136931   3.968   1.876  12.282 -1.7445 -1.7671  2.1983
 5172TIP3    H236932   4.005   1.788  12.164  0.8342 -0.2013  1.7767
 5173TIP3   OH236933   1.513   3.947  16.765 -0.3346 -0.4367  0.1085
 5173TIP3    H136934   1.559   3.993  16.695  0.8998  0.2227  1.2948
 5173TIP3    H236935   1.443   3.899  16.721  1.4722 -1.4919 -1.8074
 5174TIP3   OH236936   3.070   4.128   1.449 -0.5459 -0.1961 -0.5692
 5174TIP3    H136937   3.058   4.146   1.356 -1.6748  1.4820 -0.1423
 5174TIP3    H236938   3.073   4.214   1.490  2.4171 -0.7904  0.7125
 5175TIP3   OH236939   1.986   3.537   1.649  0.7769 -0.0248  0.2957
 5175TIP3    H136940   1.903   3.534   1.696  0.3158  1.3607 -0.3567
 5175TIP3    H236941   1.984   3.460   1.592  0.5396 -0.7195  1.2324
 5176TIP3   OH236942   0.875   5.132   5.847 -0.2528  0.0638 -0.3276
 5176TIP3    H136943   0.810   5.071   5.881 -0.1847  0.6751  0.9118
 5176TIP3    H236944   0.957   5.106   5.889 -0.5075  2.0042  1.5628
 5177TIP3   OH236945   6.231   2.877  14.039 -0.0944 -0.0227 -0.1946
 5177TIP3    H136946   6.303   2.899  13.980  1.4653 -0.2009  1.5764
 5177TIP3    H236947   6.236   2.782  14.049 -1.5669 -0.2494 -1.2319
 5178TIP3   OH236948   0.000   6.380   2.919 -0.0031  0.3781 -0.0427
 5178TIP3    H136949  -0.053   6.331   2.856  1.4434 -2.0469  0.4937
 5178TIP3    H236950   0.056   6.436   2.865 -0.9507  0.6729 -0.7372
 5179TIP3   OH236951   4.597   3.463  12.273 -0.3521 -0.2345 -0.0092
 5179TIP3    H136952   4.620   3.409  12.197 -0.6503  0.3273 -0.5059
 5179TIP3    H236953   4.619   3.552  12.247 -1.7167  0.1388  0.0373
 5180TIP3   OH236954   5.711   0.844   3.775 -0.3995  0.3171  0.0470
 5180TIP3    H136955   5.627   0.847   3.820  0.1068 -1.2241  1.1843
 5180TIP3    H236956   5.694   0.886   3.691 -2.5988 -0.8849 -0.1941
 5181TIP3   OH236957   1.661   4.350  12.433  0.3029  0.0681 -0.1318
 5181TIP3    H136958   1.635   4.268  12.477 -0.4342  0.7558  0.7534
 5181TIP3    H236959   1.586   4.372  12.378 -0.0805  0.8564  0.6829
 5182TIP3   OH236960   0.933   2.098   6.373  0.2682  0.1072 -0.0291
 5182TIP3    H136961   1.015   2.105   6.421 -0.1581  0.1694  0.7156
 5182TIP3    H236962   0.865   2.102   6.441 -0.3568  0.2581 -0.6460
 5183TIP3   OH236963   2.223   2.917   5.128  0.5081  0.8297  0.5588
 5183TIP3    H136964   2.153   2.897   5.066 -0.0973  1.5346  1.0047
 5183TIP3    H236965   2.277   2.837   5.129 -0.1797  0.3457  0.0817
 5184TIP3   OH236966   3.248   4.401   2.180  0.1042  0.3152  0.1967
 5184TIP3    H136967   3.317   4.418   2.115 -0.1332 -1.3435 -0.5235
 5184TIP3    H236968   3.169   4.436   2.140 -0.0256 -0.6194 -0.4074
 5185TIP3   OH236969   4.924   5.667  15.620  0.2673 -0.1231 -0.3492
 5185TIP3    H136970   4.953   5.576  15.608  0.4294 -0.0593 -0.4361
 5185TIP3    H236971   4.893   5.670  15.710  1.7312  0.1310  0.1807
 5186TIP3   OH236972   1.633   0.265   1.958  0.0467  0.0563  0.2363
 5186TIP3    H136973   1.703   0.216   2.001  0.5925  0.0008 -0.6824
 5186TIP3    H236974   1.553   0.233   1.999  0.1341 -3.5193 -1.9197
 5187TIP3   OH236975   2.722   6.752   3.971  0.6581  0.7029  0.1783
 5187TIP3    H136976   2.806   6.714   3.945  1.2370  1.2369  1.1872
 5187TIP3    H236977   2.730   6.765   4.065 -1.3899 -1.3033  0.7368
 5188TIP3   OH236978   4.989   6.500   3.411 -0.1929  0.1000 -0.5723
 5188TIP3    H136979   5.018   6.547   3.489 -1.2844 -1.5327  0.8828
 5188TIP3    H236980   4.919   6.555   3.375 -0.3330  0.4106  0.1436
 5189TIP3   OH236981   1.177   4.339  16.429 -0.0395 -0.4713 -0.3627
 5189TIP3    H136982   1.183   4.257  16.477 -3.3946 -0.5233  0.2357
 5189TIP3    H236983   1.085   4.344  16.403  0.1064  2.9531 -0.6461
 5190TIP3   OH236984   0.043   3.213   5.163 -0.3601  0.2147  0.1852
 5190TIP3    H136985  -0.027   3.154   5.135 -0.0350 -0.0021 -0.1955
 5190TIP3    H236986   0.085   3.241   5.081 -0.2264  0.6209  0.3894
 5191TIP3   OH236987   4.759   3.366  13.842  0.1130  0.3485 -1.0700
 5191TIP3    H136988   4.853   3.348  13.844 -0.0658 -0.6152  0.1488
 5191TIP3    H236989   4.753   3.462  13.848  1.0147  0.4466 -1.5818
 5192TIP3   OH236990   4.969   0.417   4.359 -0.9758 -0.7648  0.3295
 5192TIP3    H136991   4.952   0.324   4.373 -2.6312 -0.0711  4.3046
 5192TIP3    H236992   4.923   0.461   4.431  1.3011  2.9896 -0.2313
 5193TIP3   OH236993   2.469   2.215  12.941 -0.8305  1.0862 -0.0992
 5193TIP3    H136994   2.502   2.261  12.864 -1.4846 -0.7523 -1.5490
 5193TIP3    H236995   2.374   2.219  12.932 -0.9273  1.2545  0.8912
 5194TIP3   OH236996   4.973   0.931  16.845 -0.4530 -0.0692 -0.4307
 5194TIP3    H136997   4.970   0.928  16.749  1.5215  1.4465 -0.5973
 5194TIP3    H236998   5.057   0.893  16.868 -0.7751 -0.1358  0.7168
 5195TIP3   OH236999   6.701   1.524   1.687 -0.1434 -0.2009 -0.1942
 5195TIP3    H137000   6.713   1.431   1.706 -0.7870 -0.6279 -1.6987
 5195TIP3    H237001   6.789   1.560   1.686  0.3033 -1.2252 -1.5143
 5196TIP3   OH237002   2.632   5.074   3.071 -0.5680 -0.3451  0.1906
 5196TIP3    H137003   2.724   5.098   3.077 -0.6220 -0.1098  0.1021
 5196TIP3    H237004   2.628   4.984   3.103 -0.4653 -0.0034  1.2162
 5197TIP3   OH237005   4.784   6.110  11.077 -0.2777  0.1290 -0.5450
 5197TIP3    H137006   4.789   6.115  10.981 -0.8482 -1.0957 -0.6675
 5197TIP3    H237007   4.833   6.186  11.108  2.2989 -0.9033 -1.7760
 5198TIP3   OH237008   5.430   1.430   0.183 -0.4557  0.1348  0.0682
 5198TIP3    H137009   5.407   1.439   0.276 -0.5015 -2.8981  0.4685
 5198TIP3    H237010   5.349   1.399   0.142  0.2628 -1.2350 -0.3836
 5199TIP3   OH237011   5.081   6.506   1.376 -0.5740 -0.2164 -0.3206
 5199TIP3    H137012   5.094   6.534   1.285 -1.7390 -0.5638 -0.6127
 5199TIP3    H237013   4.993   6.539   1.398 -0.0035  0.5152  0.9387
 5200TIP3   OH237014   3.577   0.422   0.980  0.1731  0.4373  0.5111
 5200TIP3    H137015   3.539   0.507   1.001  1.0892  1.2232 -0.8141
 5200TIP3    H237016   3.666   0.442   0.952 -0.4523 -0.5609 -2.6692
 5201TIP3   OH237017   4.551   5.835  14.258 -0.5277  0.5195 -0.1473
 5201TIP3    H137018   4.558   5.838  14.353 -0.4048  2.2976 -0.1834
 5201TIP3    H237019   4.579   5.747  14.235  1.2725  0.6415  1.3151
 5202TIP3   OH237020   0.585   2.083   2.374  0.5248  0.0618  0.1786
 5202TIP3    H137021   0.508   2.066   2.429 -0.7094  2.6079 -0.6081
 5202TIP3    H237022   0.593   2.006   2.318 -1.9725  0.0436 -0.2470
 5203TIP3   OH237023   2.492   4.910   0.428  0.0195  0.2951 -0.0218
 5203TIP3    H137024   2.537   4.825   0.429 -0.0010  0.2820  1.0784
 5203TIP3    H237025   2.472   4.925   0.336  2.5897  0.4736 -0.6322
 5204TIP3   OH237026   2.499   6.264   5.407 -0.3475 -0.3293 -0.2488
 5204TIP3    H137027   2.513   6.206   5.482 -0.6049  1.0444  0.8908
 5204TIP3    H237028   2.582   6.312   5.398 -0.1705 -0.7730 -1.1283
 5205TIP3   OH237029   0.666   5.896  16.412  0.2073  0.7496  0.1264
 5205TIP3    H137030   0.745   5.865  16.368  0.1058  0.3573  0.2153
 5205TIP3    H237031   0.594   5.873  16.352  0.1806  1.3731 -0.0938
 5206TIP3   OH237032   2.708   3.029  11.514 -0.0933  0.0760 -0.3388
 5206TIP3    H137033   2.674   3.087  11.447 -0.1874 -1.4143 -1.6352
 5206TIP3    H237034   2.632   2.978  11.544  0.1170  0.0841  0.2289
 5207TIP3   OH237035   5.982   4.681  16.218  0.5937 -0.4636 -0.1847
 5207TIP3    H137036   6.016   4.758  16.263 -0.2530  0.2150 -0.6887
 5207TIP3    H237037   6.049   4.661  16.152  0.6665  0.0399 -0.2703
 5208TIP3   OH237038   2.190   2.320  13.570 -0.4114  0.3808 -0.4553
 5208TIP3    H137039   2.224   2.231  13.582  0.1799  0.8715  2.2103
 5208TIP3    H237040   2.252   2.361  13.510  0.7891 -0.3057  0.2605
 5209TIP3   OH237041   5.211   0.958   1.550  0.0393 -0.2815  0.1862
 5209TIP3    H137042   5.167   0.942   1.467 -0.9787  2.7114  0.0081
 5209TIP3    H237043   5.176   0.893   1.610 -1.1900 -0.8338 -1.0937
 5210TIP3   OH237044   1.013   1.326  11.037  0.3418 -0.5187  0.4481
 5210TIP3    H137045   0.918   1.335  11.030  0.4132  0.3100  0.4266
 5210TIP3    H237046   1.032   1.240  10.998 -0.5409 -1.3652  1.8094
 5211TIP3   OH237047   6.604   0.016   6.247 -0.8853 -0.1721  0.0089
 5211TIP3    H137048   6.657   0.063   6.312 -3.1881  0.2746  1.6688
 5211TIP3    H237049   6.632  -0.075   6.254  0.7887  0.2854 -0.3456
 5212TIP3   OH237050   6.693   5.016  12.732 -0.0041 -0.5329  0.5670
 5212TIP3    H137051   6.743   5.022  12.651  0.8472 -0.7642  1.0683
 5212TIP3    H237052   6.666   5.106  12.751 -0.9313 -0.5905 -0.4153
 5213TIP3   OH237053   5.261   3.644  13.075 -0.4913 -0.2971  0.3017
 5213TIP3    H137054   5.301   3.599  13.000  0.3779  0.8149  0.0805
 5213TIP3    H237055   5.312   3.615  13.150 -1.0635 -1.0402  0.4223
 5214TIP3   OH237056   4.417   0.757  10.752  0.0966 -0.9780  0.1514
 5214TIP3    H137057   4.440   0.835  10.701 -2.2709 -0.3587 -0.0914
 5214TIP3    H237058   4.452   0.684  10.701 -2.0903 -0.3842 -2.4341
 5215TIP3   OH237059   0.855   4.152   0.079 -0.0652 -0.1115 -0.3086
 5215TIP3    H137060   0.871   4.201   0.160 -2.3758  1.3954 -0.6911
 5215TIP3    H237061   0.784   4.092   0.101  0.0633 -0.4980 -0.9285
 5216TIP3   OH237062   1.100   0.173  11.937 -0.6467  0.0699  0.3029
 5216TIP3    H137063   1.189   0.203  11.956 -0.7833  0.0856  0.9544
 5216TIP3    H237064   1.082   0.205  11.849  0.4451 -0.9896 -0.3441
 5217TIP3   OH237065   4.618   5.555  10.480 -0.2586 -0.5182 -0.0580
 5217TIP3    H137066   4.585   5.592  10.398  0.3188  0.9289  0.3207
 5217TIP3    H237067   4.558   5.483  10.500 -1.2140 -0.0303 -1.0501
 5218TIP3   OH237068   6.735   5.452   2.709 -0.5173 -0.3993  0.0921
 5218TIP3    H137069   6.694   5.521   2.657 -1.1674 -0.8684 -0.0198
 5218TIP3    H237070   6.750   5.492   2.794  0.2417  0.2657 -0.3415
 5219TIP3   OH237071   3.943   1.309   0.777  0.3580  0.3814  0.7315
 5219TIP3    H137072   3.994   1.385   0.748 -1.2371  1.6616  1.1511
 5219TIP3    H237073   3.866   1.346   0.819 -1.1606 -1.4844 -0.2438
 5220TIP3   OH237074   3.085   0.333  13.544  0.0997  0.2918  0.2709
 5220TIP3    H137075   3.155   0.399  13.536  1.9111 -1.1779  2.5608
 5220TIP3    H237076   3.038   0.358  13.624 -0.5120 -0.0606  0.0289
 5221TIP3   OH237077   1.672   4.328  15.668  0.3229 -0.3007  0.8363
 5221TIP3    H137078   1.646   4.244  15.630  1.3084 -0.7480  1.1384
 5221TIP3    H237079   1.589   4.371  15.690 -0.2179 -0.7668 -0.2190
 5222TIP3   OH237080   3.604   2.509   1.167  0.1476  0.9587  0.0984
 5222TIP3    H137081   3.642   2.422   1.171  0.1977  0.9641 -0.2800
 5222TIP3    H237082   3.510   2.494   1.175 -0.0078  0.7106 -1.8332
 5223TIP3   OH237083   0.242   5.448  14.874 -0.5468  0.4834  0.4447
 5223TIP3    H137084   0.206   5.381  14.816 -0.3644  0.2857  0.5611
 5223TIP3    H237085   0.201   5.431  14.959 -0.9464  0.8789  0.3370
 5224TIP3   OH237086   2.678   2.108  14.532  0.0148  0.1131 -0.2468
 5224TIP3    H137087   2.675   2.110  14.436 -1.8299  1.2758 -0.2208
 5224TIP3    H237088   2.756   2.159  14.555 -0.8304  1.8851 -1.1297
 5225TIP3   OH237089   4.496   5.909   1.871 -0.1103 -0.3845 -0.0475
 5225TIP3    H137090   4.424   5.937   1.927  0.3157  0.5864  0.0269
 5225TIP3    H237091   4.573   5.912   1.927  0.0519 -1.1369 -0.2079
 5226TIP3   OH237092   3.774   1.353  11.217 -0.1942  0.0909 -0.1977
 5226TIP3    H137093   3.799   1.442  11.243 -0.1883 -0.4623  1.8748
 5226TIP3    H237094   3.696   1.333  11.270 -1.2216 -0.5410 -1.8830
 5227TIP3   OH237095   6.032   3.376  16.531 -0.1086 -0.4433 -0.1231
 5227TIP3    H137096   6.079   3.310  16.480  1.5550  0.8182 -0.2930
 5227TIP3    H237097   6.038   3.345  16.621 -0.8512 -1.3697 -0.3659
 5228TIP3   OH237098   2.214   2.108   1.776 -0.5891  0.6970  0.1880
 5228TIP3    H137099   2.192   2.026   1.820 -0.3179  0.8114  0.5340
 5228TIP3    H237100   2.161   2.106   1.695  0.5883 -0.5419 -0.5897
 5229TIP3   OH237101   3.465   5.940  14.303  0.4113  0.5421 -0.3459
 5229TIP3    H137102   3.422   5.960  14.220 -0.6081  0.8444  0.2363
 5229TIP3    H237103   3.425   5.859  14.333  2.1067 -0.6090 -1.0239
 5230TIP3   OH237104   6.777   2.033   6.370 -0.4576  0.0083  0.9214
 5230TIP3    H137105   6.713   2.078   6.425 -1.4899 -0.8190  0.4310
 5230TIP3    H237106   6.725   1.975   6.314  0.5875  0.5031 -0.6306
 5231TIP3   OH237107   1.982   0.075  16.364 -0.5921 -0.6683 -0.3083
 5231TIP3    H137108   2.017  -0.008  16.331 -0.3706 -0.8782  0.4135
 5231TIP3    H237109   1.899   0.051  16.405 -0.4069 -0.5901  0.1306
 5232TIP3   OH237110   3.184   3.032   6.088  0.3831 -0.3621  0.1047
 5232TIP3    H137111   3.272   3.060   6.112  0.0280  0.0642  0.9434
 5232TIP3    H237112   3.158   2.971   6.156 -0.5579  0.7097  0.7423
 5233TIP3   OH237113   2.358   3.366   3.650  0.1335 -0.2809  0.0139
 5233TIP3    H137114   2.383   3.277   3.675 -1.7913 -0.8021  0.2428
 5233TIP3    H237115   2.284   3.355   3.590 -1.7575  1.1285  1.8875
 5234TIP3   OH237116   1.518   6.105  16.398 -0.0621 -0.0725 -0.4529
 5234TIP3    H137117   1.576   6.030  16.390  2.3474  1.7187 -0.9996
 5234TIP3    H237118   1.455   6.094  16.327  0.4114 -1.4277 -0.6959
 5235TIP3   OH237119   2.513   4.293   0.907 -0.0027 -0.5091  1.2063
 5235TIP3    H137120   2.502   4.226   0.839  0.4246 -0.3999  1.0313
 5235TIP3    H237121   2.568   4.251   0.973 -1.1186 -0.9274  1.9176
 5236TIP3   OH237122   2.431   6.447   3.895 -0.2547 -0.6829  0.1492
 5236TIP3    H137123   2.354   6.406   3.856 -0.3296  0.8790 -1.4367
 5236TIP3    H237124   2.503   6.388   3.873 -0.0013  0.8484 -3.9266
 5237TIP3   OH237125   0.755   4.100   3.299  0.2501  0.6822 -0.5441
 5237TIP3    H137126   0.814   4.173   3.278 -0.3445  1.8924  1.6514
 5237TIP3    H237127   0.807   4.042   3.355  0.0636  0.5286 -0.5286
 5238TIP3   OH237128   4.521   5.633  17.013  0.1625 -0.7597  0.0560
 5238TIP3    H137129   4.558   5.720  16.998  1.1294 -1.0633  0.6073
 5238TIP3    H237130   4.516   5.593  16.927  0.7406 -0.5626 -0.0698
 5239TIP3   OH237131   0.247   1.442  12.512  0.2817  1.0338 -0.5002
 5239TIP3    H137132   0.274   1.451  12.421  1.2837  0.5796 -0.2603
 5239TIP3    H237133   0.257   1.349  12.532 -3.2825  0.4389 -0.9219
 5240TIP3   OH237134   0.354   3.836   4.070 -0.3643  0.1007  0.1087
 5240TIP3    H137135   0.396   3.786   4.000 -0.5927 -0.3816  0.3113
 5240TIP3    H237136   0.302   3.771   4.117  0.0134  0.3706  0.9063
 5241TIP3   OH237137   4.945   3.431   6.611  0.0791  0.7086  0.5007
 5241TIP3    H137138   4.976   3.390   6.692 -0.8477 -0.8398  0.1130
 5241TIP3    H237139   5.023   3.439   6.556  0.8064  2.1784  1.6528
 5242TIP3   OH237140   2.298   5.628  15.631 -0.1729  0.4403 -0.4453
 5242TIP3    H137141   2.364   5.602  15.566 -0.9170 -0.7561 -0.7510
 5242TIP3    H237142   2.222   5.573  15.611 -1.8974  2.8979 -1.1635
 5243TIP3   OH237143   4.119   3.091   1.494 -0.1122  0.1817 -0.0043
 5243TIP3    H137144   4.170   3.031   1.548  0.5441  0.3310 -0.4399
 5243TIP3    H237145   4.050   3.036   1.456 -0.2234 -0.0442  0.5186
 5244TIP3   OH237146   3.951   1.208   4.561 -0.2869  0.1617  0.9727
 5244TIP3    H137147   4.017   1.145   4.591  1.2794  1.6501  0.8324
 5244TIP3    H237148   4.001   1.272   4.510 -2.3328 -0.4169 -2.0498
 5245TIP3   OH237149   5.702   0.688   2.429  0.4518  0.0279  0.8967
 5245TIP3    H137150   5.720   0.620   2.364  0.0775  1.0064 -0.2740
 5245TIP3    H237151   5.651   0.644   2.497  0.5342 -0.9431  0.3419
 5246TIP3   OH237152   0.591   1.981  16.503  0.0063  0.0372  0.0460
 5246TIP3    H137153   0.553   2.054  16.551  0.9154  0.4562  0.1358
 5246TIP3    H237154   0.516   1.942  16.457 -0.2601  1.9723 -1.2888
 5247TIP3   OH237155   5.941   4.048   4.980 -0.2705  0.2722  0.0440
 5247TIP3    H137156   5.845   4.053   4.986 -0.1376  1.0543  2.5829
 5247TIP3    H237157   5.970   4.138   4.991  0.7966 -0.0336 -0.1629
 5248TIP3   OH237158   5.613   4.768  14.120  0.4406 -0.0023 -0.6025
 5248TIP3    H137159   5.612   4.729  14.208 -1.9793 -0.0139 -0.5904
 5248TIP3    H237160   5.587   4.696  14.062 -0.4028  0.6420 -1.0303
 5249TIP3   OH237161   4.517   6.018   2.697 -0.1302 -0.6435 -0.6167
 5249TIP3    H137162   4.559   5.933   2.714  0.5162 -0.0691  0.8151
 5249TIP3    H237163   4.427   5.996   2.673  0.7739 -1.8893 -3.2633
 5250TIP3   OH237164   4.007   0.769   1.496 -0.3935 -0.6360 -0.1581
 5250TIP3    H137165   4.054   0.694   1.460 -0.2365 -0.4450 -0.3496
 5250TIP3    H237166   3.963   0.808   1.420  0.8823  0.4574 -0.3529
 5251TIP3   OH237167   6.533   2.189  16.784 -0.0215 -0.3759 -0.8135
 5251TIP3    H137168   6.505   2.222  16.698  2.3052 -0.4235 -1.6804
 5251TIP3    H237169   6.577   2.264  16.824  2.1768 -1.2981 -1.3039
 5252TIP3   OH237170   1.140   6.186  10.849  0.1919  0.3145  0.6768
 5252TIP3    H137171   1.171   6.111  10.900 -2.6948 -0.2648  1.7443
 5252TIP3    H237172   1.057   6.157  10.812  0.5344  1.9488 -1.5598
 5253TIP3   OH237173   2.989   6.178  14.168 -0.1204  0.0414 -0.5355
 5253TIP3    H137174   3.028   6.103  14.214 -0.9206  0.5649  1.0591
 5253TIP3    H237175   3.062   6.215  14.118  1.2496  0.4119  1.5951
 5254TIP3   OH237176   0.916   1.459  14.293  0.0932 -0.7019  0.4343
 5254TIP3    H137177   0.859   1.383  14.283 -0.6503 -0.0636 -0.3481
 5254TIP3    H237178   0.866   1.532  14.256  2.5197 -0.5888 -3.0646
 5255TIP3   OH237179   1.895   5.639  15.614 -0.7685  0.4965 -0.2398
 5255TIP3    H137180   1.899   5.726  15.653  0.3001  0.1326  0.4982
 5255TIP3    H237181   1.839   5.589  15.673  0.1207  0.1885  0.3512
 5256TIP3   OH237182   3.636   3.534  11.980  0.6673 -0.4585  0.0361
 5256TIP3    H137183   3.553   3.582  11.976  1.1598  0.4176  0.1695
 5256TIP3    H237184   3.686   3.578  12.049  0.8637 -1.5967  0.6442
 5257TIP3   OH237185   1.387   0.832   0.438 -0.2098 -0.0900  0.1971
 5257TIP3    H137186   1.450   0.768   0.470 -0.5761 -0.5313  0.0407
 5257TIP3    H237187   1.351   0.871   0.517  0.3358  0.2505  0.2880
 5258TIP3   OH237188   5.510   0.865   0.954  0.2258 -0.0187 -0.2512
 5258TIP3    H137189   5.597   0.860   0.915 -0.3040 -2.2090 -1.2967
 5258TIP3    H237190   5.487   0.775   0.975 -2.2457  0.3208 -1.0748
 5259TIP3   OH237191   0.777   5.976   1.985  0.4795 -0.7643  0.6738
 5259TIP3    H137192   0.773   5.912   2.056  2.1674 -1.5028  0.1805
 5259TIP3    H237193   0.707   5.950   1.925  0.7178 -1.7774  0.8086
 5260TIP3   OH237194   5.743   5.349   5.730 -0.5932  0.4480 -0.1565
 5260TIP3    H137195   5.651   5.325   5.717 -0.3999  0.4963 -1.8795
 5260TIP3    H237196   5.741   5.419   5.795 -1.5441 -1.1247  1.6348
 5261TIP3   OH237197   0.537   0.772  11.131 -0.5415 -0.2179 -0.0327
 5261TIP3    H137198   0.492   0.836  11.075 -1.4705 -1.3863 -0.6984
 5261TIP3    H237199   0.604   0.733  11.074  0.7251  0.8668  0.6826
 5262TIP3   OH237200   6.211   4.978  16.142 -0.4908 -0.3150 -0.3231
 5262TIP3    H137201   6.235   4.889  16.168  0.7000  0.4363  1.3162
 5262TIP3    H237202   6.275   5.002  16.075 -1.9900 -1.3225 -2.2274
 5263TIP3   OH237203   4.683   5.358  12.253 -0.1000 -0.1765 -0.6031
 5263TIP3    H137204   4.762   5.343  12.304  0.2096 -1.8678 -1.4970
 5263TIP3    H237205   4.622   5.401  12.314  0.5472 -1.3447  0.9268
 5264TIP3   OH237206   3.885   5.441   3.339 -0.0102 -0.4636  0.4735
 5264TIP3    H137207   3.824   5.433   3.412 -0.9366  1.7994  0.0457
 5264TIP3    H237208   3.971   5.425   3.377 -0.5816 -0.5654  1.7804
 5265TIP3   OH237209   0.898   2.482  15.186 -0.0634 -0.2304  0.2015
 5265TIP3    H137210   0.930   2.498  15.098  0.0025  0.7579  0.3873
 5265TIP3    H237211   0.821   2.539  15.194  1.1370  1.3261  1.4638
 5266TIP3   OH237212   5.804   4.327   3.721  0.0857 -0.9997 -0.4019
 5266TIP3    H137213   5.735   4.357   3.663  0.5907  0.4106 -0.3015
 5266TIP3    H237214   5.759   4.302   3.802 -0.1536  2.3985  0.6577
 5267TIP3   OH237215   3.649   0.524  15.973  0.3185 -0.3773 -0.1656
 5267TIP3    H137216   3.622   0.469  16.046 -0.3608  1.1475  0.7723
 5267TIP3    H237217   3.720   0.475  15.931  1.1667 -1.0077  1.8807
 5268TIP3   OH237218   1.542   4.301  13.580 -0.1098 -0.1677 -0.3253
 5268TIP3    H137219   1.533   4.217  13.624 -2.6188 -0.2510 -0.8326
 5268TIP3    H237220   1.572   4.361  13.649  0.7347 -1.2395  0.2775
 5269TIP3   OH237221   6.079   2.818  13.124  0.4089 -0.5031 -0.1879
 5269TIP3    H137222   6.174   2.807  13.138  0.3065  0.0456  1.1422
 5269TIP3    H237223   6.063   2.782  13.037  2.0311  0.4403 -0.9300
 5270TIP3   OH237224   2.748   1.103  13.099  0.3502 -0.5319 -0.6128
 5270TIP3    H137225   2.826   1.129  13.050  1.4382 -1.0141  0.7969
 5270TIP3    H237226   2.766   1.012  13.125 -1.1567 -1.0179 -1.1482
 5271TIP3   OH237227   5.710   3.213  14.149  0.2765 -0.2066 -0.2574
 5271TIP3    H137228   5.666   3.142  14.102  1.2201 -0.1444 -1.2940
 5271TIP3    H237229   5.796   3.219  14.106  1.3522 -0.4054  1.7376
 5272TIP3   OH237230   3.339   5.092  14.617 -0.1926 -0.4050  0.0715
 5272TIP3    H137231   3.279   5.153  14.660 -0.9011 -1.0559  0.0314
 5272TIP3    H237232   3.288   5.012  14.606 -0.1292 -0.1732 -2.2800
 5273TIP3   OH237233   5.155   0.100   2.035 -0.1561 -0.0965  0.9649
 5273TIP3    H137234   5.127   0.160   2.104  0.5420  0.4096  0.8229
 5273TIP3    H237235   5.187   0.023   2.082 -0.8711 -0.2891  1.1537
 5274TIP3   OH237236   2.036   4.265  12.519  0.5562  0.0276  0.0895
 5274TIP3    H137237   2.126   4.296  12.527  0.8045 -0.3753 -1.0063
 5274TIP3    H237238   1.988   4.341  12.484  1.0508 -0.5834 -2.0408
 5275TIP3   OH237239   2.934   1.490   2.076  0.1165  0.6987 -0.6734
 5275TIP3    H137240   2.886   1.517   2.154  3.2319  0.7060  1.4140
 5275TIP3    H237241   2.994   1.563   2.058  0.4790  0.0664 -2.1971
 5276TIP3   OH237242   4.063   5.715  11.079 -0.1066  0.1687 -0.2372
 5276TIP3    H137243   4.015   5.682  11.003  2.4471  0.8094 -2.2403
 5276TIP3    H237244   4.091   5.636  11.126 -2.1860 -0.2213  0.4741
 5277TIP3   OH237245   4.398   1.367   3.374  0.0122  0.2348 -0.1922
 5277TIP3    H137246   4.362   1.308   3.440  0.7243 -0.8730 -0.7614
 5277TIP3    H237247   4.355   1.341   3.292 -0.2440  1.0389 -0.3256
 5278TIP3   OH237248   5.281   3.742   0.853  0.4399 -0.1607 -0.2432
 5278TIP3    H137249   5.271   3.681   0.781  2.0042 -0.8005  0.0440
 5278TIP3    H237250   5.370   3.728   0.885 -0.5630 -0.7675  2.5891
 5279TIP3   OH237251   2.884   1.720   1.643  0.6767  0.4194  0.7017
 5279TIP3    H137252   2.905   1.809   1.617  0.1292  0.1206 -0.8674
 5279TIP3    H237253   2.789   1.718   1.647  0.6271 -0.3720 -0.4191
 5280TIP3   OH237254   5.053   6.660  11.982 -0.0523 -0.6875 -0.0193
 5280TIP3    H137255   5.030   6.606  11.907  0.8670  1.6359 -2.1162
 5280TIP3    H237256   4.998   6.738  11.973  1.1976  0.3268  0.7925
 5281TIP3   OH237257   0.477   6.429   3.466  0.1183  0.2573 -0.3130
 5281TIP3    H137258   0.559   6.384   3.484 -0.1745 -0.1015  0.1321
 5281TIP3    H237259   0.423   6.364   3.422 -0.0513  0.3869 -0.2977
 5282TIP3   OH237260   6.496   4.554  14.130  0.0129 -0.4520  0.1659
 5282TIP3    H137261   6.562   4.511  14.075  1.0196 -0.8952  1.6668
 5282TIP3    H237262   6.433   4.484  14.148  0.1260 -0.5357  0.2448
 5283TIP3   OH237263   2.145   4.477   4.739 -0.4983 -0.1287 -0.0033
 5283TIP3    H137264   2.166   4.456   4.648 -1.1627 -1.3603  0.1055
 5283TIP3    H237265   2.222   4.451   4.789  0.0895  1.0668 -0.2590
 5284TIP3   OH237266   3.600   1.169   0.123  0.2670 -0.0590 -0.4247
 5284TIP3    H137267   3.686   1.149   0.162  1.1554  1.1159 -1.7029
 5284TIP3    H237268   3.538   1.145   0.191  1.7656  2.6726  2.1708
 5285TIP3   OH237269   4.831   3.365  13.409  0.0577 -0.0146 -0.6626
 5285TIP3    H137270   4.757   3.381  13.350 -0.5498 -0.3717  0.0015
 5285TIP3    H237271   4.889   3.440  13.394 -1.3750  1.3295  0.2544
 5286TIP3   OH237272   0.878   2.652  12.333 -0.3071 -0.0540  0.0515
 5286TIP3    H137273   0.867   2.571  12.284  1.3473  0.4979 -1.3399
 5286TIP3    H237274   0.871   2.626  12.425  0.9793 -1.9291 -0.3338
 5287TIP3   OH237275   3.535   3.637   4.369  0.4026  0.1010  0.2011
 5287TIP3    H137276   3.525   3.653   4.275  1.5566 -0.2187  0.0069
 5287TIP3    H237277   3.455   3.673   4.408  0.2043  0.8359 -0.8326
 5288TIP3   OH237278   3.688   0.406  11.575  0.1240  0.0795  0.3103
 5288TIP3    H137279   3.608   0.353  11.585  0.4258 -0.4987 -0.2780
 5288TIP3    H237280   3.667   0.488  11.619 -1.0114  0.1495 -0.3014
 5289TIP3   OH237281   1.534   2.276   2.546  0.4773 -0.3423  0.3571
 5289TIP3    H137282   1.553   2.348   2.607 -0.2081  0.6606 -0.5831
 5289TIP3    H237283   1.506   2.204   2.603  0.3051  0.4150  1.2683
 5290TIP3   OH237284   4.806   1.117  12.946 -0.3029  0.2905  0.7197
 5290TIP3    H137285   4.738   1.140  13.008 -1.2483  0.4916 -0.3627
 5290TIP3    H237286   4.792   1.175  12.871 -0.0515 -0.8405 -0.2498
 5291TIP3   OH237287   3.814   3.501  15.272 -0.0099  0.5867  0.4383
 5291TIP3    H137288   3.903   3.489  15.237 -0.0883  1.1070  0.0442
 5291TIP3    H237289   3.822   3.576  15.331 -0.4647  1.5151 -0.6515
 5292TIP3   OH237290   4.297   5.789   5.583  0.5433  0.2261 -0.1155
 5292TIP3    H137291   4.272   5.873   5.622 -1.7149 -0.2003 -0.4956
 5292TIP3    H237292   4.288   5.802   5.489  3.0075  0.3400 -0.4141
 5293TIP3   OH237293   1.897   1.464   3.525 -0.3323 -0.4276  0.6144
 5293TIP3    H137294   1.930   1.532   3.466 -1.0348  0.6811  1.4698
 5293TIP3    H237295   1.963   1.459   3.594  1.1365 -2.6066 -0.8247
 5294TIP3   OH237296   5.292   3.458   4.808 -0.0334  0.5923  0.1108
 5294TIP3    H137297   5.228   3.427   4.744 -0.0099 -1.3957  0.9779
 5294TIP3    H237298   5.375   3.459   4.760  0.2759 -2.3680  0.3766
 5295TIP3   OH237299   5.280   0.527  11.921 -0.8705 -0.4151 -1.0496
 5295TIP3    H137300   5.187   0.509  11.928 -1.3715  0.1170 -4.5572
 5295TIP3    H237301   5.313   0.462  11.858  0.4556  1.2226 -2.1386
 5296TIP3   OH237302   4.637   4.227   2.405  0.7276 -0.1473 -0.0863
 5296TIP3    H137303   4.698   4.285   2.360  0.6544 -0.3811 -0.4907
 5296TIP3    H237304   4.689   4.187   2.474  0.7078  0.6125  0.3843
 5297TIP3   OH237305   4.730   4.704   3.965 -0.2683 -0.3074  0.4191
 5297TIP3    H137306   4.666   4.766   4.002  1.7122  1.2688  1.4330
 5297TIP3    H237307   4.751   4.741   3.879 -1.7983 -1.6962 -0.6140
 5298TIP3   OH237308   0.109   6.379  15.024  0.6554  0.0129 -0.3778
 5298TIP3    H137309   0.109   6.352  14.932 -2.0375 -3.7239  0.4707
 5298TIP3    H237310   0.161   6.312  15.068 -0.8090 -0.2024  1.1383
 5299TIP3   OH237311   2.997   2.295   2.378  0.0256 -0.2819  0.4384
 5299TIP3    H137312   3.022   2.212   2.418 -0.7567  0.1304  1.8567
 5299TIP3    H237313   3.075   2.350   2.386  0.9498 -1.2029 -1.5758
 5300TIP3   OH237314   6.334   3.393   4.198 -0.1518  0.3433 -0.4725
 5300TIP3    H137315   6.308   3.362   4.285  0.5073 -1.6309 -0.9404
 5300TIP3    H237316   6.257   3.439   4.165 -1.3682 -1.1967  0.0974
 5301TIP3   OH237317   6.021   0.290   1.405 -0.1177  0.1991 -0.0371
 5301TIP3    H137318   6.001   0.281   1.312 -1.0817 -0.1581  0.1961
 5301TIP3    H237319   6.084   0.361   1.409  0.8637 -0.5616 -1.0857
 5302TIP3   OH237320   0.865   0.821   5.490  0.2544 -0.2353  0.2167
 5302TIP3    H137321   0.813   0.856   5.561  0.2280  0.3141 -0.0695
 5302TIP3    H237322   0.938   0.777   5.533 -1.3958 -2.6794  0.7133
 5303TIP3   OH237323   5.874   4.362   3.267 -0.2672  0.5121 -0.0833
 5303TIP3    H137324   5.873   4.436   3.328 -0.1483  0.1619  0.3439
 5303TIP3    H237325   5.940   4.387   3.202  0.0963  0.5869  0.3042
 5304TIP3   OH237326   1.566   2.882  12.596  0.1751 -0.5459 -0.1342
 5304TIP3    H137327   1.511   2.960  12.585  0.4917 -0.3610 -0.4461
 5304TIP3    H237328   1.652   2.909  12.563  0.0664 -1.3036 -1.0884
 5305TIP3   OH237329   6.578   5.144   0.227  0.1257 -0.3326 -0.5096
 5305TIP3    H137330   6.499   5.196   0.212  0.2218 -0.5923 -2.0936
 5305TIP3    H237331   6.552   5.079   0.293 -0.3041  1.0027  0.6724
 5306TIP3   OH237332   0.569   1.542  13.960  0.0832  0.0664  0.1938
 5306TIP3    H137333   0.489   1.555  14.011  0.2058 -0.9556  0.6776
 5306TIP3    H237334   0.551   1.583  13.876 -0.0806  1.9232  1.0725
 5307TIP3   OH237335   4.679   5.283   5.179  0.1885 -0.3358 -0.4610
 5307TIP3    H137336   4.706   5.218   5.114  1.0339  1.5102 -2.0357
 5307TIP3    H237337   4.741   5.355   5.170  0.4552 -0.0485  2.5595
 5308TIP3   OH237338   2.998   4.793  16.577 -0.1080 -0.7926 -0.1669
 5308TIP3    H137339   2.940   4.786  16.652  0.9305 -0.5862  0.6726
 5308TIP3    H237340   2.984   4.712  16.528 -2.6844  0.1582 -1.1877
 5309TIP3   OH237341   3.928   6.394   4.858 -0.4405  0.1199 -0.0525
 5309TIP3    H137342   3.837   6.424   4.866 -0.4302  0.3860 -0.8370
 5309TIP3    H237343   3.980   6.475   4.862 -0.2759  0.0188 -0.1459
 5310TIP3   OH237344   1.821   2.761  16.602  0.6582 -0.1570  0.3285
 5310TIP3    H137345   1.844   2.821  16.531  4.7663 -0.6858  0.9624
 5310TIP3    H237346   1.826   2.674  16.563  3.2223 -0.4697  1.1945
 5311TIP3   OH237347   5.250   0.339   4.527  0.2411  0.3920  0.3111
 5311TIP3    H137348   5.265   0.427   4.561 -0.0878  0.9812 -0.9859
 5311TIP3    H237349   5.156   0.323   4.542  0.5475 -0.2640  1.6707
 5312TIP3   OH237350   0.703   6.593  12.511 -0.0895 -0.0050 -0.0420
 5312TIP3    H137351   0.795   6.621  12.512  0.6480 -2.1863 -1.3343
 5312TIP3    H237352   0.654   6.673  12.490  1.5323  1.0710  0.0713
 5313TIP3   OH237353   2.404   2.582  13.524  0.4397 -0.1796 -0.6924
 5313TIP3    H137354   2.338   2.642  13.558 -0.3190 -1.9464  1.0901
 5313TIP3    H237355   2.363   2.540  13.449  0.3878  0.3071 -0.9448
 5314TIP3   OH237356   5.907   1.607   5.910  0.2857 -0.3287  0.0365
 5314TIP3    H137357   5.910   1.579   6.002  0.1057  2.5965  1.0577
 5314TIP3    H237358   5.814   1.603   5.887  0.3829 -1.4891 -0.1765
 5315TIP3   OH237359   0.764   1.710  16.218 -0.2675 -0.4610  0.0645
 5315TIP3    H137360   0.824   1.661  16.274  0.2937 -0.0104 -0.1281
 5315TIP3    H237361   0.804   1.797  16.210 -0.8680 -0.2016 -0.1958
 5316TIP3   OH237362   2.630   4.841  14.991  0.6718  0.2370 -0.1172
 5316TIP3    H137363   2.680   4.782  15.047  0.7046  1.2493  0.9675
 5316TIP3    H237364   2.681   4.921  14.988  0.0406  0.6344 -0.5707
 5317TIP3   OH237365   5.358   5.403  14.375 -0.5517 -0.0079  0.0040
 5317TIP3    H137366   5.270   5.370  14.388 -0.9586  0.2556 -1.8383
 5317TIP3    H237367   5.415   5.329  14.394 -1.3452 -1.1886 -1.9921
 5318TIP3   OH237368   1.310   1.942   4.941 -0.2409  0.0310  0.0586
 5318TIP3    H137369   1.273   1.993   5.012  0.8715 -0.7337  1.2452
 5318TIP3    H237370   1.235   1.917   4.887 -0.9779  1.5129  0.3597
 5319TIP3   OH237371   0.275   3.168   2.214 -0.2806  0.4209 -0.5377
 5319TIP3    H137372   0.340   3.106   2.247  1.1998  1.9169 -0.4544
 5319TIP3    H237373   0.251   3.134   2.128  2.2135  0.8033 -1.4975
 5320TIP3   OH237374   0.187   0.334  16.171  0.2793  0.4279  0.3023
 5320TIP3    H137375   0.131   0.377  16.108  0.1984  0.6724  0.5401
 5320TIP3    H237376   0.186   0.391  16.248 -0.2355 -0.2489  0.8065
 5321TIP3   OH237377   5.846   0.091  11.397  0.5430  0.2143 -0.0410
 5321TIP3    H137378   5.879   0.126  11.480  1.2148  0.5223 -0.4271
 5321TIP3    H237379   5.868  -0.002  11.400 -0.7258 -0.0835  0.7363
 5322TIP3   OH237380   5.768   3.204  16.731 -1.0047 -0.6551 -0.2909
 5322TIP3    H137381   5.732   3.154  16.804  1.3525 -1.9301  0.0944
 5322TIP3    H237382   5.719   3.286  16.732 -0.7563 -0.3849  3.0830
 5323TIP3   OH237383   0.679   3.891   5.136 -0.8084 -0.3178  0.6305
 5323TIP3    H137384   0.696   3.846   5.053 -0.6634 -0.4451  0.7265
 5323TIP3    H237385   0.678   3.820   5.201  0.7958 -0.0519  0.9893
 5324TIP3   OH237386   0.510   1.272  15.006 -0.6829 -0.0425 -0.4309
 5324TIP3    H137387   0.415   1.283  15.001 -0.7785  0.1255  1.0952
 5324TIP3    H237388   0.538   1.339  15.069  0.4715 -0.0087 -0.9497
 5325TIP3   OH237389   3.331   0.734  10.809  0.3327 -0.3782  0.1832
 5325TIP3    H137390   3.425   0.720  10.811  0.1861 -1.3989  0.7172
 5325TIP3    H237391   3.295   0.651  10.778 -0.4764 -0.6105  1.6341
 5326TIP3   OH237392   0.209   4.092  13.630  0.0116 -0.2902  0.1977
 5326TIP3    H137393   0.205   4.132  13.717 -3.2396 -1.5913  0.8004
 5326TIP3    H237394   0.265   4.015  13.641  0.3517  0.0506  0.8976
 5327TIP3   OH237395   3.714   5.035   4.933  0.2638  0.3425 -0.3345
 5327TIP3    H137396   3.666   4.960   4.897  2.1653 -0.0345 -2.3200
 5327TIP3    H237397   3.785   4.996   4.983 -0.9779  0.8901  1.9564
 5328TIP3   OH237398   4.046   2.250  13.052 -0.2176  0.6329 -0.0109
 5328TIP3    H137399   3.965   2.272  13.098 -0.0421  0.8694  0.1885
 5328TIP3    H237400   4.027   2.268  12.960 -0.4223  0.5947  0.0236
 5329TIP3   OH237401   3.416   0.260  12.022  0.2048  0.0882 -0.1794
 5329TIP3    H137402   3.488   0.248  11.960 -0.4057  1.2529 -1.1533
 5329TIP3    H237403   3.402   0.173  12.060  1.3116 -0.4081 -0.8759
 5330TIP3   OH237404   1.105   1.986  11.827  0.3998  0.7346 -0.0744
 5330TIP3    H137405   1.091   1.907  11.879  1.0793  0.1241 -0.7836
 5330TIP3    H237406   1.193   2.015  11.851  0.4807  0.7863 -0.4245
 5331TIP3   OH237407   4.787   4.392  11.439  0.1744 -0.3000  0.5442
 5331TIP3    H137408   4.704   4.393  11.487  0.5624 -1.1384  1.2565
 5331TIP3    H237409   4.762   4.381  11.348 -0.4608 -1.6618  0.8594
 5332TIP3   OH237410   0.041   6.477   4.295 -0.3420 -0.6375 -0.3877
 5332TIP3    H137411   0.084   6.561   4.280  0.1477 -0.5925  1.0893
 5332TIP3    H237412   0.067   6.423   4.220  2.2774 -0.5923  0.3679
 5333TIP3   OH237413   0.602   6.618   0.062 -0.5176 -0.6273  0.3439
 5333TIP3    H137414   0.602   6.693   0.002 -1.7773 -1.7554 -1.1511
 5333TIP3    H237415   0.692   6.586   0.060 -0.0480  0.5968  0.7252
 5334TIP3   OH237416   5.122   3.860   2.312  0.2377  0.5728 -0.5165
 5334TIP3    H137417   5.187   3.917   2.271  1.6423 -0.6525 -0.1107
 5334TIP3    H237418   5.038   3.901   2.292  1.1993  3.7349  1.2429
 5335TIP3   OH237419   4.242   5.037  14.459  0.0643  0.4160 -0.6664
 5335TIP3    H137420   4.209   5.046  14.549 -0.4049 -0.0729 -0.7813
 5335TIP3    H237421   4.314   5.099  14.454  0.0601  0.4936  0.0337
 5336TIP3   OH237422   3.436   4.636   3.094 -0.4502  0.8407  0.4860
 5336TIP3    H137423   3.505   4.692   3.129 -0.4004  1.5744 -0.7224
 5336TIP3    H237424   3.379   4.619   3.169 -0.9584  3.2613  0.7252
 5337TIP3   OH237425   0.532   2.423  11.107 -0.3033 -0.1763 -0.3837
 5337TIP3    H137426   0.532   2.421  11.011  2.6237  1.7247 -0.5330
 5337TIP3    H237427   0.526   2.331  11.132 -3.0304 -0.6436 -2.2552
 5338TIP3   OH237428   3.144   4.671   4.844  0.4107 -0.2057  0.1529
 5338TIP3    H137429   3.094   4.692   4.765  4.5863 -1.4400 -3.2330
 5338TIP3    H237430   3.190   4.753   4.866  1.7352 -0.6421 -0.8487
 5339TIP3   OH237431   5.035   0.400   0.191  0.0195 -0.8705 -0.1966
 5339TIP3    H137432   4.945   0.368   0.188  0.4900 -2.3932  0.8720
 5339TIP3    H237433   5.047   0.431   0.280 -0.0369  1.3104 -0.8793
 5340TIP3   OH237434   3.897   4.621   3.131 -0.1296 -0.2670  0.4506
 5340TIP3    H137435   3.990   4.616   3.151 -0.1325  1.4682  1.0347
 5340TIP3    H237436   3.879   4.541   3.080  1.8055 -0.2816 -0.2810
 5341TIP3   OH237437   2.360   1.708  11.584  0.3250 -0.1975 -0.4565
 5341TIP3    H137438   2.295   1.721  11.515  0.5830 -1.9957 -1.0893
 5341TIP3    H237439   2.445   1.716  11.540  0.4915 -1.6792 -0.4639
 5342TIP3   OH237440   4.869   1.084  15.650  0.4170  0.1257  0.0574
 5342TIP3    H137441   4.775   1.090  15.636  0.7552  1.6410 -2.0884
 5342TIP3    H237442   4.883   1.117  15.739 -0.9428  1.1963 -0.1085
 5343TIP3   OH237443   4.587   3.593   3.545  0.3356 -0.1091  0.5005
 5343TIP3    H137444   4.611   3.501   3.537 -0.1905 -0.2034 -0.0639
 5343TIP3    H237445   4.494   3.596   3.523  0.3240  0.5442  0.6057
 5344TIP3   OH237446   2.238   6.799   5.842  0.0099  0.6914 -0.3932
 5344TIP3    H137447   2.255   6.749   5.762 -1.3597 -0.9617  0.2796
 5344TIP3    H237448   2.228   6.733   5.911  2.1837  2.0829  1.4150
 5345TIP3   OH237449   4.398   1.628  15.552 -0.0613  0.1845  0.0167
 5345TIP3    H137450   4.439   1.713  15.563 -1.5768  1.1781 -1.5670
 5345TIP3    H237451   4.346   1.616  15.632  3.5388 -1.4123  2.4122
 5346TIP3   OH237452   4.849   3.553  12.386 -0.2776 -0.6050  0.4196
 5346TIP3    H137453   4.777   3.497  12.356  0.9163 -1.1201 -1.7227
 5346TIP3    H237454   4.927   3.514  12.347  0.5912  2.6514 -1.4646
 5347TIP3   OH237455   6.044   6.051  12.947 -0.1484  0.9085  0.1763
 5347TIP3    H137456   6.132   6.056  12.909 -0.4828  1.4773 -0.5337
 5347TIP3    H237457   5.990   6.107  12.892 -1.2083 -0.2733 -0.0537
 5348TIP3   OH237458   0.991   0.953  14.930 -0.1457  0.1172 -0.2469
 5348TIP3    H137459   1.010   0.942  14.837 -1.6525  1.2166 -0.7344
 5348TIP3    H237460   0.898   0.933  14.938 -0.4244  1.6216  0.7111
 5349TIP3   OH237461   0.406   3.140   5.010  0.3228 -0.1088 -0.0068
 5349TIP3    H137462   0.417   3.156   5.104 -1.3283 -0.4436  0.2823
 5349TIP3    H237463   0.312   3.121   5.000  0.6073 -0.8221 -1.6177
 5350TIP3   OH237464   5.999   4.780  16.801  0.3966  0.1021  0.4769
 5350TIP3    H137465   5.973   4.847  16.737 -0.8266 -1.9101 -1.2503
 5350TIP3    H237466   5.985   4.822  16.886 -1.3559  1.7090 -0.5169
 5351TIP3   OH237467   0.985   3.891  15.509 -0.9687  0.0967  0.2397
 5351TIP3    H137468   1.078   3.885  15.486 -1.1399  0.4869 -0.6220
 5351TIP3    H237469   0.939   3.856  15.432 -1.6766  3.9326 -1.3076
 5352TIP3   OH237470   6.041   4.388   1.202 -0.0108 -0.3249 -0.0302
 5352TIP3    H137471   6.000   4.331   1.137 -0.9262  0.2099  0.0579
 5352TIP3    H237472   5.977   4.392   1.274 -0.2009  1.1918 -0.2485
 5353TIP3   OH237473   4.433   4.318   1.159  0.0650  0.5274 -0.2730
 5353TIP3    H137474   4.373   4.285   1.226 -2.1398  0.8065 -2.0186
 5353TIP3    H237475   4.435   4.413   1.172  2.2587  0.3530  1.3822
 5354TIP3   OH237476   0.824   4.351  12.741 -0.3939  0.1104  0.8499
 5354TIP3    H137477   0.820   4.392  12.655  0.7532 -0.1515  0.6519
 5354TIP3    H237478   0.869   4.415  12.796 -0.2071 -0.1392  0.9924
 5355TIP3   OH237479   5.578   2.395  10.216  0.2234 -0.4978  0.6903
 5355TIP3    H137480   5.635   2.395  10.292  0.5294 -1.9361  0.4952
 5355TIP3    H237481   5.626   2.446  10.150  0.7799 -0.7570  0.8879
 5356TIP3   OH237482   4.922   4.897   0.028 -0.4362 -0.6978 -0.2654
 5356TIP3    H137483   4.904   4.806   0.048  1.4583 -0.9148  0.7164
 5356TIP3    H237484   4.995   4.895  -0.035  0.4289  0.1200  0.6691
 5357TIP3   OH237485   3.289   5.545   2.386  0.7900 -0.0858 -0.1363
 5357TIP3    H137486   3.255   5.615   2.330  0.6527 -1.8261 -2.3729
 5357TIP3    H237487   3.356   5.587   2.439  0.2023  1.8815 -0.8604
 5358TIP3   OH237488   0.698   5.580  12.557  0.1403 -0.0400  0.4824
 5358TIP3    H137489   0.765   5.523  12.594 -0.3536 -1.9801 -1.3595
 5358TIP3    H237490   0.738   5.618  12.479 -0.6208 -0.6345 -0.2208
 5359TIP3   OH237491   2.431   2.791  14.156 -0.2892  1.1216  0.0628
 5359TIP3    H137492   2.421   2.885  14.139 -0.1742  0.8790 -1.4956
 5359TIP3    H237493   2.523   2.780  14.179 -0.0627  1.2519 -0.7713
 5360TIP3   OH237494   4.103   0.566   4.512 -0.1755 -0.3154  0.0726
 5360TIP3    H137495   4.048   0.632   4.553  0.2906  0.5633 -0.6717
 5360TIP3    H237496   4.135   0.513   4.585 -2.3075 -1.1260  0.4916
 5361TIP3   OH237497   3.373   3.770  11.901 -0.1638 -0.5207  0.9352
 5361TIP3    H137498   3.442   3.836  11.900  0.1554 -0.7438 -2.2239
 5361TIP3    H237499   3.294   3.816  11.875 -0.0381 -1.1679 -0.7905
 5362TIP3   OH237500   6.211   3.647   5.472 -0.3020 -0.1225 -0.6018
 5362TIP3    H137501   6.272   3.718   5.491  0.0004 -0.6620  0.5093
 5362TIP3    H237502   6.125   3.689   5.471  0.0220  0.5476 -1.6570
 5363TIP3   OH237503   1.840   1.359   3.818  0.0174  0.0170 -0.2849
 5363TIP3    H137504   1.773   1.316   3.871 -0.1511 -0.8494 -1.1531
 5363TIP3    H237505   1.880   1.287   3.768  1.2426  0.5924 -0.1594
 5364TIP3   OH237506   2.401   1.008   0.727 -0.2633 -0.1259  0.0238
 5364TIP3    H137507   2.370   0.922   0.755 -2.6520  1.1470  1.6347
 5364TIP3    H237508   2.375   1.014   0.635 -0.3081 -1.0280 -0.0277
 5365TIP3   OH237509   3.524   5.067   6.199 -0.0031 -0.6389  0.6745
 5365TIP3    H137510   3.575   5.104   6.271  0.4048  3.2287 -1.3316
 5365TIP3    H237511   3.434   5.071   6.229  0.2464 -0.2421  1.3995
 5366TIP3   OH237512   6.093   3.399   2.206  0.2499  0.0909  0.2144
 5366TIP3    H137513   6.049   3.484   2.206  1.0905  0.5413 -0.1490
 5366TIP3    H237514   6.186   3.421   2.198  0.4853 -0.8591  0.3136
 5367TIP3   OH237515   4.494   3.323  10.896 -0.0923 -0.4647  0.2791
 5367TIP3    H137516   4.520   3.310  10.805  0.9419 -3.6576  0.8891
 5367TIP3    H237517   4.398   3.322  10.893 -0.0983  0.5409 -0.8359
 5368TIP3   OH237518   1.111   5.533   0.048 -0.3918 -0.2562  0.3526
 5368TIP3    H137519   1.083   5.441   0.058 -0.8280 -0.0134  1.6411
 5368TIP3    H237520   1.117   5.565   0.138  0.2757  0.8351 -0.0708
 5369TIP3   OH237521   1.772   1.999  13.754  0.5381  0.4335  0.6372
 5369TIP3    H137522   1.764   1.927  13.692  0.1889  1.3436 -0.4152
 5369TIP3    H237523   1.865   1.999  13.780  0.9148  0.6520 -0.6617
 5370TIP3   OH237524   0.244   6.144   1.823  0.1780 -0.0006 -0.7324
 5370TIP3    H137525   0.245   6.051   1.846  1.5483  0.1685 -0.0239
 5370TIP3    H237526   0.152   6.163   1.805 -0.5809 -0.8277  1.8645
 5371TIP3   OH237527   6.220   2.664  15.714 -0.3546  0.3629 -0.1666
 5371TIP3    H137528   6.314   2.645  15.716 -0.3777 -0.4276 -2.5997
 5371TIP3    H237529   6.211   2.749  15.756  1.4333  0.3993  0.2107
 5372TIP3   OH237530   4.656   0.336   4.261  0.0052 -0.2476  0.0374
 5372TIP3    H137531   4.728   0.273   4.254 -0.8826 -1.2176 -0.7593
 5372TIP3    H237532   4.606   0.307   4.337 -0.4539 -0.5698 -0.3810
 5373TIP3   OH237533   6.665   1.052  14.461  0.0446 -0.2122  0.7786
 5373TIP3    H137534   6.575   1.038  14.490  0.0674 -0.5413  0.6954
 5373TIP3    H237535   6.662   1.134  14.411 -0.2685 -0.3793  0.5217
 5374TIP3   OH237536   1.428   2.401   4.274 -0.3469  1.0621  0.0649
 5374TIP3    H137537   1.390   2.441   4.195  0.2978 -1.1696 -1.4497
 5374TIP3    H237538   1.382   2.318   4.284  1.1355  0.2843  0.7252
 5375TIP3   OH237539   5.599   1.198   6.506  0.1680 -0.1157 -0.1128
 5375TIP3    H137540   5.594   1.255   6.583 -1.2476 -0.5859  0.1804
 5375TIP3    H237541   5.574   1.111   6.539  0.2226 -0.4709 -0.9698
 5376TIP3   OH237542   0.639   2.653  15.237  0.0013  0.5361 -0.2086
 5376TIP3    H137543   0.607   2.637  15.325  0.2587  1.3057  0.0357
 5376TIP3    H237544   0.696   2.730  15.245  0.1083  0.5590 -1.0221
 5377TIP3   OH237545   6.014   3.554  14.072  0.2527 -0.3051  0.2913
 5377TIP3    H137546   5.980   3.546  13.983 -0.0513 -0.7184  0.4437
 5377TIP3    H237547   5.984   3.639  14.102 -0.3584 -0.5250  0.3030
 5378TIP3   OH237548   3.696   1.098   4.521  0.3323 -0.1953 -0.0988
 5378TIP3    H137549   3.787   1.128   4.527  0.2873  0.0781 -0.6934
 5378TIP3    H237550   3.659   1.117   4.607  1.3130 -1.9508  0.7468
 5379TIP3   OH237551   1.017   4.806   4.480  0.5592  0.3873 -0.5969
 5379TIP3    H137552   1.084   4.789   4.546 -1.5899 -1.9289  1.1987
 5379TIP3    H237553   1.045   4.754   4.404  0.4604 -1.2624  0.4350
 5380TIP3   OH237554   5.257   3.156  10.713  0.2478  0.1056  0.3932
 5380TIP3    H137555   5.345   3.192  10.719  0.0926  0.7399 -0.6629
 5380TIP3    H237556   5.229   3.142  10.803  1.4798 -0.2506  0.7270
 5381TIP3   OH237557   2.042   4.802  11.556  0.1637  0.8157 -0.0854
 5381TIP3    H137558   1.970   4.745  11.529  1.2277  0.7855 -3.4432
 5381TIP3    H237559   2.001   4.875  11.601 -1.5849 -0.7388  0.9893
 5382TIP3   OH237560   1.686   3.946   3.254 -0.1822  0.6117 -0.4041
 5382TIP3    H137561   1.666   3.937   3.348  2.0180 -0.7505  0.0202
 5382TIP3    H237562   1.619   3.894   3.210 -1.1480  1.1357  0.4150
 5383TIP3   OH237563   2.021   3.440   0.646  0.6259 -0.0933  0.5202
 5383TIP3    H137564   2.075   3.402   0.716  1.0905 -0.6344 -0.1269
 5383TIP3    H237565   2.013   3.371   0.581 -0.5232  0.1193  0.4102
 5384TIP3   OH237566   3.711   5.697   1.149 -0.6116 -0.3016  0.1178
 5384TIP3    H137567   3.624   5.693   1.188 -0.1643 -2.6455  1.0833
 5384TIP3    H237568   3.755   5.617   1.180  1.0498 -0.4517 -2.2726
 5385TIP3   OH237569   4.528   1.285   5.102  0.5092 -0.0809  0.0097
 5385TIP3    H137570   4.472   1.241   5.166 -0.8015  1.7702  0.2140
 5385TIP3    H237571   4.588   1.338   5.155 -0.0147  0.7904 -0.2411
 5386TIP3   OH237572   5.273   5.150  11.555  0.6143 -0.1788  0.1496
 5386TIP3    H137573   5.259   5.171  11.463  0.5851  1.1397  0.4318
 5386TIP3    H237574   5.296   5.057  11.555  1.1863 -0.0717 -1.2387
 5387TIP3   OH237575   4.092   2.525   3.442 -0.4490 -0.7898  0.5321
 5387TIP3    H137576   4.086   2.621   3.451  1.8070 -0.5193 -0.3172
 5387TIP3    H237577   4.001   2.496   3.443 -1.2114  1.3803  0.6053
 5388TIP3   OH237578   6.666   3.371   4.969 -0.4672  0.0103 -0.0919
 5388TIP3    H137579   6.636   3.350   5.057 -0.0195  0.1716  0.1010
 5388TIP3    H237580   6.590   3.410   4.926 -0.8529 -0.5792  0.0409
 5389TIP3   OH237581   0.475   6.520   5.337 -0.2365  0.0926  0.2400
 5389TIP3    H137582   0.466   6.592   5.275  0.4440 -0.2340 -0.2510
 5389TIP3    H237583   0.569   6.515   5.355 -0.5068  0.8377  2.0980
 5390TIP3   OH237584   4.756   4.801   2.036 -0.6011 -0.2914 -0.6329
 5390TIP3    H137585   4.750   4.719   1.987  0.2395  0.3394 -1.8300
 5390TIP3    H237586   4.830   4.847   1.996 -0.6340  0.7571  0.4748
 5391TIP3   OH237587   5.990   4.744  13.764  0.0693  0.1043  0.1764
 5391TIP3    H137588   5.945   4.728  13.681  0.8256 -0.7824 -0.0778
 5391TIP3    H237589   6.074   4.784  13.738  0.8703 -1.3712  0.4049
 5392TIP3   OH237590   0.884   0.200  11.034 -0.5786  0.1608 -0.0102
 5392TIP3    H137591   0.935   0.280  11.027  1.0154 -0.6773  1.3248
 5392TIP3    H237592   0.858   0.195  11.126 -0.8354 -0.7508 -0.1201
 5393TIP3   OH237593   4.005   0.420  13.339  0.3820  0.2174  0.0272
 5393TIP3    H137594   4.070   0.350  13.331  1.3082  1.0332  0.2551
 5393TIP3    H237595   3.977   0.437  13.250 -1.8109 -2.1866  0.1175
 5394TIP3   OH237596   2.446   5.423   2.359 -0.1018 -0.1338 -0.6037
 5394TIP3    H137597   2.515   5.358   2.347  0.2915  0.3515 -1.0757
 5394TIP3    H237598   2.416   5.412   2.449  1.2317  0.2506 -0.0920
 5395TIP3   OH237599   5.418   3.342   1.778 -0.4186 -0.1364  0.9145
 5395TIP3    H137600   5.340   3.397   1.767  0.2327  0.3728 -2.3578
 5395TIP3    H237601   5.411   3.277   1.707  1.1434 -1.3488  1.8082
 5396TIP3   OH237602   6.482   4.928   4.840 -0.0622  0.1249  0.5740
 5396TIP3    H137603   6.430   5.007   4.831  1.7017  1.4316  1.2188
 5396TIP3    H237604   6.549   4.950   4.905  1.6197 -1.2372 -0.5851
 5397TIP3   OH237605   1.345   2.108  12.668  0.3129 -0.3058 -0.4047
 5397TIP3    H137606   1.386   2.042  12.611  0.5950  0.6356 -1.3177
 5397TIP3    H237607   1.329   2.061  12.750  0.7017 -1.4555 -0.9553
 5398TIP3   OH237608   2.884   2.770  11.426 -0.2881  0.0230  0.0484
 5398TIP3    H137609   2.967   2.806  11.455  0.1979 -0.9578 -0.0718
 5398TIP3    H237610   2.840   2.842  11.381 -0.3556  1.1228  1.7878
 5399TIP3   OH237611   2.999   3.219   0.842  0.6539  0.1094 -0.3277
 5399TIP3    H137612   2.928   3.259   0.792  0.5524  0.8462  0.3965
 5399TIP3    H237613   2.972   3.127   0.852 -0.4876  0.5043  0.4198
 5400TIP3   OH237614   6.115   0.796   2.165 -0.3327 -0.1161 -0.6378
 5400TIP3    H137615   6.161   0.865   2.118 -2.4409  0.8261 -1.4541
 5400TIP3    H237616   6.076   0.742   2.096 -3.1586  1.0637 -0.1349
 5401TIP3   OH237617   3.694   4.922  10.825  0.3485  0.4378  0.0331
 5401TIP3    H137618   3.612   4.961  10.856 -0.2051 -0.7093  0.0569
 5401TIP3    H237619   3.669   4.872  10.748  1.6705  3.1119 -2.3278
 5402TIP3   OH237620   2.144   4.959  13.538 -0.0502  0.0390 -0.8704
 5402TIP3    H137621   2.059   4.979  13.577 -0.0823 -2.0162  0.2577
 5402TIP3    H237622   2.159   5.029  13.475 -2.1833  0.9079 -0.4850
 5403TIP3   OH237623   3.321   1.809  15.985  0.6190  0.4567 -0.7610
 5403TIP3    H137624   3.313   1.864  15.908 -0.0212  1.8196  0.2443
 5403TIP3    H237625   3.286   1.724  15.958 -0.6794  1.2423 -1.6529
 5404TIP3   OH237626   3.364   2.678   1.612  0.2334 -0.3277 -0.0196
 5404TIP3    H137627   3.445   2.701   1.658 -0.5271 -0.9617  1.7056
 5404TIP3    H237628   3.296   2.679   1.679 -0.9111 -1.4796 -1.0889
 5405TIP3   OH237629   0.560   0.413  16.445  0.0735 -0.3321  0.4260
 5405TIP3    H137630   0.468   0.425  16.467 -0.3075 -1.2512 -0.5641
 5405TIP3    H237631   0.560   0.341  16.382  1.7973 -2.7739  3.0137
 5406TIP3   OH237632   5.656   4.469  12.038 -0.6584 -0.6270 -0.4940
 5406TIP3    H137633   5.742   4.430  12.052 -0.3071 -0.1779 -1.3244
 5406TIP3    H237634   5.620   4.482  12.126  0.5249  0.0621 -0.0959
 5407TIP3   OH237635   5.317   2.898   5.929  0.3871  0.2510 -0.6911
 5407TIP3    H137636   5.388   2.938   5.979 -0.6853  2.3951 -0.7726
 5407TIP3    H237637   5.243   2.957   5.941 -0.8651 -0.9398 -2.1169
 5408TIP3   OH237638   3.752   1.877   4.983 -0.1304 -0.3727 -0.2084
 5408TIP3    H137639   3.829   1.856   5.036  1.0580  1.6434 -1.0116
 5408TIP3    H237640   3.733   1.796   4.934 -0.3270 -1.7801  2.0726
 5409TIP3   OH237641   6.727   4.790  15.610  0.4489  0.7363 -0.2860
 5409TIP3    H137642   6.806   4.768  15.560  1.6286  2.0364  0.9168
 5409TIP3    H237643   6.753   4.780  15.701 -1.6775 -1.5944  0.1640
 5410TIP3   OH237644   3.694   0.545  12.150 -0.2277 -0.0731 -0.0957
 5410TIP3    H137645   3.599   0.552  12.152 -0.1630  1.5716 -0.9269
 5410TIP3    H237646   3.725   0.634  12.172  1.1044 -0.4662 -0.2800
 5411TIP3   OH237647   6.189   2.850   3.599 -0.2448  0.1737  0.5574
 5411TIP3    H137648   6.137   2.793   3.656 -0.7798  0.3390  0.2381
 5411TIP3    H237649   6.140   2.853   3.517  0.4960 -0.0228  0.1024
 5412TIP3   OH237650   0.980   3.579   1.031 -0.3958 -0.6462  0.0377
 5412TIP3    H137651   1.038   3.583   1.107 -0.8799  0.0670  0.3752
 5412TIP3    H237652   1.038   3.594   0.956 -0.0931 -0.2253  0.3509
 5413TIP3   OH237653   5.801   0.984  14.822  0.6198  0.4745  0.4585
 5413TIP3    H137654   5.771   1.031  14.899  0.2151  0.9363  0.0285
 5413TIP3    H237655   5.756   0.900  14.825  0.2265  0.6849  0.4644
 5414TIP3   OH237656   2.436   4.045   0.307  0.6068  0.7534 -0.4419
 5414TIP3    H137657   2.462   4.130   0.342  2.7981 -0.1113  0.1909
 5414TIP3    H237658   2.516   3.992   0.311 -0.6063 -1.2320 -1.1442
 5415TIP3   OH237659   3.880   2.787   0.389 -0.0868 -1.0686  0.3024
 5415TIP3    H137660   3.819   2.753   0.455 -0.9719 -1.0271 -0.4737
 5415TIP3    H237661   3.941   2.715   0.374  0.0894 -1.1008  1.1094
 5416TIP3   OH237662   3.755   1.814  12.764  0.1157 -0.4634 -0.4035
 5416TIP3    H137663   3.703   1.868  12.704  0.2631  0.5025  0.3232
 5416TIP3    H237664   3.700   1.737  12.781  0.4499 -1.2299 -2.4840
 5417TIP3   OH237665   2.611   6.513  11.307  0.2224  0.1232  0.5970
 5417TIP3    H137666   2.678   6.483  11.246  1.1275 -1.0744  2.0874
 5417TIP3    H237667   2.627   6.463  11.387 -0.7515  1.7677  1.9156
 5418TIP3   OH237668   2.352   5.428   4.757 -0.2661  0.1981 -0.0490
 5418TIP3    H137669   2.274   5.375   4.771 -0.5577  0.5558 -0.3065
 5418TIP3    H237670   2.388   5.442   4.845 -1.4913  1.5377  0.2722
 5419TIP3   OH237671   4.740   4.660   3.213  0.3169 -0.1755  0.0080
 5419TIP3    H137672   4.705   4.736   3.261 -1.4634 -0.8289 -0.2039
 5419TIP3    H237673   4.800   4.698   3.149 -0.9435  1.1132 -0.4464
 5420TIP3   OH237674   6.747   4.166  11.184  0.0223  0.0438 -0.5838
 5420TIP3    H137675   6.710   4.239  11.234  0.2241 -0.2036 -0.0635
 5420TIP3    H237676   6.699   4.167  11.101 -1.4200 -0.5073  0.2127
 5421TIP3   OH237677   1.709   5.754   0.462 -0.3260 -0.2845 -0.4439
 5421TIP3    H137678   1.646   5.735   0.393  0.4225  0.7399 -1.4381
 5421TIP3    H237679   1.666   5.822   0.514 -0.8658 -1.0164  0.1000
 5422TIP3   OH237680   1.816   3.769   1.587 -0.2337 -0.1009  0.1810
 5422TIP3    H137681   1.889   3.715   1.617  0.4174  0.6292 -0.0402
 5422TIP3    H237682   1.759   3.709   1.540  1.4479 -0.2965 -1.7629
 5423TIP3   OH237683   6.370   1.801  12.193  0.4225 -0.4464  0.1211
 5423TIP3    H137684   6.289   1.750  12.207  0.5149 -0.6652 -0.1320
 5423TIP3    H237685   6.388   1.841  12.278  0.5767 -1.1730  0.4406
 5424TIP3   OH237686   6.528   6.559   5.098  0.0098 -0.1140 -0.6508
 5424TIP3    H137687   6.562   6.592   5.015  0.9798  0.4332 -0.0576
 5424TIP3    H237688   6.475   6.483   5.074 -0.0384  0.2662 -1.7998
 5425TIP3   OH237689   0.171   1.458   1.446 -0.7793  0.0471 -0.3412
 5425TIP3    H137690   0.257   1.492   1.471 -1.0950  0.0518  0.7862
 5425TIP3    H237691   0.113   1.534   1.451 -0.9399 -0.0557 -0.6354
 5426TIP3   OH237692   3.641   4.977  13.597 -0.0727  0.2146 -0.2086
 5426TIP3    H137693   3.612   4.930  13.675 -3.7735  1.2469 -0.7694
 5426TIP3    H237694   3.681   4.910  13.542  0.1490 -1.0623  1.4402
 5427TIP3   OH237695   1.176   6.368   5.005 -0.2837 -0.9017 -0.2534
 5427TIP3    H137696   1.098   6.317   5.024 -1.2267  0.2354 -0.9610
 5427TIP3    H237697   1.144   6.456   4.987  1.1606 -0.4083 -0.5905
 5428TIP3   OH237698   0.778   6.331   1.888 -0.1153  0.3718 -0.3040
 5428TIP3    H137699   0.688   6.361   1.893 -0.0356  1.0081 -2.0812
 5428TIP3    H237700   0.795   6.319   1.795  1.7291  0.5442 -0.0389
 5429TIP3   OH237701   5.591   2.700   3.891 -0.2033  0.4275  0.8110
 5429TIP3    H137702   5.659   2.739   3.946 -0.1831  1.0373  0.3710
 5429TIP3    H237703   5.564   2.622   3.938  0.5114  0.3998  1.1994
 5430TIP3   OH237704   0.016   2.038  12.264 -0.5375 -0.0091 -0.0631
 5430TIP3    H137705   0.050   1.972  12.204  0.2732 -1.2105  1.6554
 5430TIP3    H237706  -0.070   2.004  12.290  0.0531 -0.6202  1.1372
 5431TIP3   OH237707   5.744   5.720   6.057  0.5313 -0.2593  0.0726
 5431TIP3    H137708   5.814   5.778   6.025  2.5194 -1.9485  1.1355
 5431TIP3    H237709   5.730   5.748   6.148 -2.6957  2.2847 -1.0190
 5432TIP3   OH237710   0.540   5.399  10.868 -0.0697  0.0534  0.2951
 5432TIP3    H137711   0.535   5.418  10.962 -0.7345 -1.3225  0.5625
 5432TIP3    H237712   0.622   5.440  10.840 -0.2496  1.1614  1.3011
 5433TIP3   OH237713   3.857   3.044   4.595 -0.1686 -0.3680  0.1622
 5433TIP3    H137714   3.837   3.137   4.591 -0.5535 -0.4133  0.9856
 5433TIP3    H237715   3.790   3.002   4.542  0.6384 -0.0997 -1.1276
 5434TIP3   OH237716   2.150   6.669  14.579 -0.4177  0.3979  0.5489
 5434TIP3    H137717   2.125   6.759  14.557  1.8694  0.4251 -2.6457
 5434TIP3    H237718   2.245   6.673  14.589 -0.3230 -1.5807  0.7473
 5435TIP3   OH237719   5.504   3.546   0.742  0.2926 -0.0186  0.4288
 5435TIP3    H137720   5.486   3.457   0.773  0.3969 -0.1890  0.0062
 5435TIP3    H237721   5.435   3.564   0.678 -0.8490  0.9191  1.8498
 5436TIP3   OH237722   1.243   0.810   2.457  0.1315 -0.0566 -0.0051
 5436TIP3    H137723   1.258   0.874   2.387 -0.9926 -1.1782 -1.3416
 5436TIP3    H237724   1.237   0.726   2.411  1.9878 -1.2247  1.7215
 5437TIP3   OH237725   4.156   2.175   1.463 -0.2029  0.1399 -0.0605
 5437TIP3    H137726   4.153   2.183   1.558  0.2691  0.3181 -0.0574
 5437TIP3    H237727   4.111   2.093   1.444 -2.2948  1.1660  0.1585
 5438TIP3   OH237728   5.808   5.733  15.195 -0.4028  0.3475  0.5084
 5438TIP3    H137729   5.822   5.763  15.285 -1.1458 -0.0137  0.7533
 5438TIP3    H237730   5.777   5.810  15.148 -0.1074  0.5129  0.5842
 5439TIP3   OH237731   3.885   2.456  11.765  0.3956 -0.1003  0.1432
 5439TIP3    H137732   3.843   2.402  11.698 -2.4069  0.1884  1.5386
 5439TIP3    H237733   3.860   2.546  11.744  1.1536  0.2079  0.4838
 5440TIP3   OH237734   1.481   0.920   1.523  0.3822  0.1631  0.0345
 5440TIP3    H137735   1.452   1.007   1.551  0.4246  0.7842 -1.7224
 5440TIP3    H237736   1.455   0.915   1.431  0.1903 -1.7834  0.1588
 5441TIP3   OH237737   3.533   1.944   6.042  0.0369 -0.0846 -0.2394
 5441TIP3    H137738   3.605   2.002   6.066  0.2363 -0.6217  0.4883
 5441TIP3    H237739   3.576   1.863   6.014 -0.2382  0.0990 -1.2131
 5442TIP3   OH237740   4.143   5.406  10.846 -0.0512 -0.0334 -0.0773
 5442TIP3    H137741   4.060   5.395  10.799 -0.0896  0.1164 -0.0444
 5442TIP3    H237742   4.121   5.460  10.921 -0.0578 -0.5583  0.3023
 5443TIP3   OH237743   5.432   5.206  12.274 -0.2559 -0.2880  0.2485
 5443TIP3    H137744   5.517   5.162  12.279 -0.0309 -0.0107 -0.8384
 5443TIP3    H237745   5.377   5.160  12.337  0.8126 -0.1903  1.2995
 5444TIP3   OH237746   1.354   0.016  14.328 -0.0746 -0.3656 -0.0965
 5444TIP3    H137747   1.302   0.002  14.248  0.5674  1.7403 -0.9556
 5444TIP3    H237748   1.326  -0.053  14.387 -0.6055 -1.9851 -2.1263
 5445TIP3   OH237749   3.783   1.695  15.580  0.2343  0.3835 -0.2642
 5445TIP3    H137750   3.782   1.604  15.549 -2.2025 -0.1005  0.9752
 5445TIP3    H237751   3.743   1.691  15.667  1.1440  2.5205  0.3272
 5446TIP3   OH237752   3.333   2.471   1.212 -0.1753 -0.2688 -0.6625
 5446TIP3    H137753   3.350   2.388   1.168  2.5001  0.5126 -1.3311
 5446TIP3    H237754   3.243   2.493   1.189 -0.4894 -2.3310 -1.5759
 5447TIP3   OH237755   1.303   6.796   0.902  0.2248 -0.0990 -0.7201
 5447TIP3    H137756   1.357   6.719   0.887  0.7996  0.1687 -0.0596
 5447TIP3    H237757   1.360   6.871   0.885  0.1550  0.1874  0.2172
 5448TIP3   OH237758   0.366   2.181  10.787  0.3446  0.7531  0.3507
 5448TIP3    H137759   0.441   2.239  10.804  1.8367 -0.8079 -0.5623
 5448TIP3    H237760   0.367   2.119  10.860  0.9624 -0.2302 -0.4601
 5449TIP3   OH237761   6.766   3.513   3.375 -0.2983 -0.0305  0.1426
 5449TIP3    H137762   6.794   3.461   3.450  0.1961 -1.5139 -1.0068
 5449TIP3    H237763   6.798   3.464   3.299  1.3408  2.6138 -1.0155
 5450TIP3   OH237764   0.956   4.488  15.803 -0.3535  0.8253 -0.0173
 5450TIP3    H137765   0.989   4.421  15.743 -0.1483  1.0546 -0.1618
 5450TIP3    H237766   0.902   4.440  15.865  0.7748  0.3315  0.6260
 5451TIP3   OH237767   3.533   3.858  11.338 -0.3697  0.1298 -0.8940
 5451TIP3    H137768   3.551   3.766  11.320 -0.8015  0.0488 -0.9335
 5451TIP3    H237769   3.485   3.888  11.261 -2.4439 -0.2776  0.1685
 5452TIP3   OH237770   5.332   4.573   3.133 -0.1091 -0.0269  0.7220
 5452TIP3    H137771   5.406   4.537   3.181  0.3109 -0.7147 -0.3964
 5452TIP3    H237772   5.371   4.633   3.070 -0.5202 -0.1675  0.3245
 5453TIP3   OH237773   3.580   4.174  10.432  0.5483  0.0254 -0.9640
 5453TIP3    H137774   3.534   4.190  10.514  2.4209 -1.2018  0.4270
 5453TIP3    H237775   3.584   4.260  10.389 -2.5034  0.2644 -0.9755
 5454TIP3   OH237776   5.997   3.379  13.786 -0.1739  0.0623 -0.2452
 5454TIP3    H137777   6.020   3.334  13.705  2.7503 -2.3947  1.6869
 5454TIP3    H237778   5.909   3.348  13.807  0.5048 -2.3866 -0.6529
 5455TIP3   OH237779   2.126   4.724   4.874 -0.2543  0.8108  0.0870
 5455TIP3    H137780   2.187   4.751   4.943  0.8120 -0.9949 -0.0932
 5455TIP3    H237781   2.174   4.659   4.824 -2.3017 -0.6006 -0.1398
 5456TIP3   OH237782   6.523   0.346  12.110 -0.8107  0.7760 -0.7404
 5456TIP3    H137783   6.483   0.300  12.185  0.0707  0.4758 -0.4445
 5456TIP3    H237784   6.556   0.275  12.054 -0.4011  1.0312 -0.8191
 5457TIP3   OH237785   6.784   3.249   2.258 -0.9347  0.3692  0.0118
 5457TIP3    H137786   6.782   3.156   2.236  1.6249  0.2443 -0.0738
 5457TIP3    H237787   6.767   3.294   2.175 -1.4818 -0.0318 -0.0931
 5458TIP3   OH237788   1.046   3.552   5.540  0.5422  0.7215 -0.5116
 5458TIP3    H137789   1.099   3.631   5.539  1.2061  0.2795 -0.9908
 5458TIP3    H237790   0.985   3.565   5.613  3.2302 -0.0141  2.0822
 5459TIP3   OH237791   1.378   1.990  11.847 -0.1078 -0.4190  0.1385
 5459TIP3    H137792   1.387   1.937  11.768  1.3178  1.5371 -1.1108
 5459TIP3    H237793   1.447   2.056  11.839 -1.0033  0.8512  2.2181
 5460TIP3   OH237794   1.841   3.894   4.170 -0.1755 -0.0682  0.5191
 5460TIP3    H137795   1.815   3.835   4.099  0.0616  0.0444  0.3378
 5460TIP3    H237796   1.768   3.954   4.178  0.6183  1.1657 -0.9845
 5461TIP3   OH237797   1.858   0.350  15.250 -0.0943  0.6917  0.2373
 5461TIP3    H137798   1.822   0.407  15.182 -1.8123 -0.5100  0.0602
 5461TIP3    H237799   1.807   0.372  15.328 -2.0155 -1.6607 -0.2291
 5462TIP3   OH237800   1.982   6.575   1.163  0.5879 -0.0917  0.1288
 5462TIP3    H137801   2.060   6.546   1.211 -0.1935 -1.4045  0.6628
 5462TIP3    H237802   1.922   6.605   1.232  0.2151 -0.1111 -0.1849
 5463TIP3   OH237803   1.586   4.589  16.005  0.5789 -0.4612 -0.0284
 5463TIP3    H137804   1.574   4.668  15.954  2.7226  0.7465  1.1707
 5463TIP3    H237805   1.681   4.580  16.013  0.4488 -3.5400 -0.6428
 5464TIP3   OH237806   1.189   1.807   4.244 -0.5466  0.3237 -0.5792
 5464TIP3    H137807   1.099   1.782   4.262 -0.7905  0.8506 -1.0571
 5464TIP3    H237808   1.230   1.726   4.212 -0.6179 -0.1216  0.4111
 5465TIP3   OH237809   5.731   4.616  16.749 -0.3869  0.3639  0.0716
 5465TIP3    H137810   5.775   4.601  16.833 -1.1592  0.1669  0.4544
 5465TIP3    H237811   5.678   4.694  16.764 -0.3048  0.4936 -0.3252
 5466TIP3   OH237812   5.674   0.180  16.381  0.5472 -0.2625 -0.3854
 5466TIP3    H137813   5.724   0.219  16.453  1.8598  0.2135 -1.5113
 5466TIP3    H237814   5.703   0.089  16.377 -0.5092 -0.6631  0.5011
 5467TIP3   OH237815   3.183   2.297  14.823  0.4328  0.1880 -0.1680
 5467TIP3    H137816   3.232   2.254  14.752  0.6379 -3.2727  1.8286
 5467TIP3    H237817   3.099   2.250  14.825  0.8118 -0.5340  2.4173
 5468TIP3   OH237818   3.752   3.071  16.319  0.4057 -0.0711 -0.5074
 5468TIP3    H137819   3.833   3.122  16.329  0.0318  0.3951  0.2679
 5468TIP3    H237820   3.776   2.983  16.348  0.4668  0.2313  0.3967
 5469TIP3   OH237821   3.383   1.343   1.154  0.3217  0.0141 -0.4246
 5469TIP3    H137822   3.350   1.259   1.124  1.0750 -0.0949 -0.9695
 5469TIP3    H237823   3.452   1.321   1.218 -0.2044  0.2312  0.2310
 5470TIP3   OH237824   3.559   0.130  14.337  0.1572 -0.0172 -0.1130
 5470TIP3    H137825   3.587   0.099  14.251  0.8631  0.4653 -0.0699
 5470TIP3    H237826   3.569   0.054  14.395 -0.8516 -0.4997 -0.5543
 5471TIP3   OH237827   4.004   1.735   1.034  0.1200 -0.1096 -0.0424
 5471TIP3    H137828   3.983   1.810   1.091  0.6259 -1.4140  1.9738
 5471TIP3    H237829   3.919   1.704   1.003 -0.5257 -1.1161  2.4458
 5472TIP3   OH237830   6.311   5.428  12.198  0.4088  0.7947 -0.0158
 5472TIP3    H137831   6.220   5.427  12.169 -0.0231  1.1346  1.2594
 5472TIP3    H237832   6.350   5.502  12.152  0.0343  0.6733 -0.5403
 5473TIP3   OH237833   3.864   5.914   3.714  0.2821 -0.4391 -0.6268
 5473TIP3    H137834   3.896   5.860   3.787 -2.3839  0.2126  1.1557
 5473TIP3    H237835   3.814   5.853   3.659  0.4960 -0.5165 -0.7364
 5474TIP3   OH237836   4.133   5.101   4.879 -0.4314  0.1466  0.0029
 5474TIP3    H137837   4.081   5.139   4.808 -0.4832  0.7424  0.3525
 5474TIP3    H237838   4.150   5.011   4.851 -2.0107 -0.2122  0.0557
 5475TIP3   OH237839   1.623   5.336  12.814  0.1220  0.6527 -0.5245
 5475TIP3    H137840   1.670   5.258  12.846  0.4691  1.1727  0.2734
 5475TIP3    H237841   1.563   5.302  12.748  0.3813 -0.2761 -0.3045
 5476TIP3   OH237842   5.159   4.221   2.662  0.1836  0.3576  0.2622
 5476TIP3    H137843   5.207   4.218   2.580  0.9420  1.8671  0.6184
 5476TIP3    H237844   5.150   4.130   2.689  0.0438 -0.1453 -1.4062
 5477TIP3   OH237845   4.749   4.605  11.847  0.9479 -0.6465 -0.3003
 5477TIP3    H137846   4.813   4.597  11.918  1.6992 -1.0867 -1.0140
 5477TIP3    H237847   4.790   4.663  11.784  0.7636 -1.1444 -0.8907
 5478TIP3   OH237848   6.309   1.618   0.741  0.0075  0.1078 -0.4135
 5478TIP3    H137849   6.349   1.542   0.784 -0.9516  0.4131  1.1105
 5478TIP3    H237850   6.222   1.624   0.779 -0.8373  0.5565 -2.3171
 5479TIP3   OH237851   1.590   4.729  17.076 -0.7989 -0.5027  0.5383
 5479TIP3    H137852   1.656   4.775  17.128 -0.1947  1.0874 -1.4742
 5479TIP3    H237853   1.624   4.641  17.065 -0.0175 -0.2969  1.2053
 5480TIP3   OH237854   2.767   4.925  11.526  0.2260  0.4908  0.2199
 5480TIP3    H137855   2.851   4.927  11.571 -0.0400  1.6044  0.7036
 5480TIP3    H237856   2.745   4.832  11.519  1.7207  0.1559 -0.3628
 5481TIP3   OH237857   0.540   2.770   1.953 -0.3363  0.0359  0.4384
 5481TIP3    H137858   0.546   2.680   1.985 -1.0099  0.1354  0.8596
 5481TIP3    H237859   0.573   2.765   1.863  1.4310 -0.2693  1.0569
 5482TIP3   OH237860   0.726   1.621   2.634  0.1382 -0.2733  0.7418
 5482TIP3    H137861   0.769   1.675   2.567 -0.9457 -0.2782 -0.0031
 5482TIP3    H237862   0.756   1.532   2.617 -1.0233 -0.4605 -0.5438
 5483TIP3   OH237863   3.835   5.903  14.106 -0.1335 -0.2436 -0.6448
 5483TIP3    H137864   3.888   5.965  14.057  0.1137 -0.0517 -0.1462
 5483TIP3    H237865   3.873   5.904  14.194  0.2028 -1.4842 -0.7518
 5484TIP3   OH237866   0.856   5.057   3.688 -0.0698  0.4133 -0.2997
 5484TIP3    H137867   0.781   4.997   3.690  0.2938 -0.0966 -1.6472
 5484TIP3    H237868   0.879   5.068   3.780  0.2631 -2.0139 -0.0349
 5485TIP3   OH237869   1.528   4.431   5.848  0.4077  0.0402  0.4494
 5485TIP3    H137870   1.489   4.453   5.933  0.4622 -0.5959  0.6461
 5485TIP3    H237871   1.513   4.337   5.839  0.2486  0.1402 -0.3308
 5486TIP3   OH237872   0.548   0.823   3.074 -0.0170 -0.1317  0.3985
 5486TIP3    H137873   0.463   0.807   3.115 -1.1953  0.5213 -1.6866
 5486TIP3    H237874   0.611   0.808   3.145 -1.8663 -0.1051  2.1536
 5487TIP3   OH237875   2.576   4.243  11.309 -0.6480 -0.2756  0.3720
 5487TIP3    H137876   2.552   4.179  11.242  0.0715  0.4587 -0.6291
 5487TIP3    H237877   2.633   4.195  11.369 -0.6498 -0.7486  0.0031
 5488TIP3   OH237878   5.830   5.075   1.344 -0.1666  0.0677  0.0274
 5488TIP3    H137879   5.846   5.007   1.409 -0.3239 -0.1328 -0.1458
 5488TIP3    H237880   5.743   5.056   1.310 -0.5247  0.7878  0.5046
 5489TIP3   OH237881   6.468   1.118   0.286 -0.3650 -0.1645  0.0728
 5489TIP3    H137882   6.439   1.199   0.246 -0.4155  0.8262  1.9749
 5489TIP3    H237883   6.523   1.076   0.220 -2.4068  0.1190 -1.9211
 5490TIP3   OH237884   6.734   3.355  11.490  0.5404  0.7665  0.4200
 5490TIP3    H137885   6.732   3.448  11.468 -0.6437  0.2885 -1.8212
 5490TIP3    H237886   6.807   3.320  11.439  1.8935  0.6759  2.3649
 5491TIP3   OH237887   6.743   0.115   6.456  0.2873 -0.3588 -0.2322
 5491TIP3    H137888   6.784   0.173   6.520 -2.9631  1.0086  0.8114
 5491TIP3    H237889   6.771   0.028   6.481 -0.7725  0.1432  3.0874
 5492TIP3   OH237890   4.087   2.155   0.705 -0.0678 -0.6035 -0.3631
 5492TIP3    H137891   4.054   2.111   0.626 -1.9194 -2.0139  1.1169
 5492TIP3    H237892   4.108   2.244   0.675  0.6397 -1.4770 -2.7288
 5493TIP3   OH237893   4.202   5.840  13.143 -0.0029  0.7627 -0.0768
 5493TIP3    H137894   4.147   5.918  13.143 -0.1916  0.6343  0.2155
 5493TIP3    H237895   4.226   5.828  13.235  2.7298  2.3581 -0.4612
 5494TIP3   OH237896   5.891   3.159   1.144 -0.0361 -0.3164  0.2615
 5494TIP3    H137897   5.977   3.160   1.187  0.0225 -0.1762  0.1385
 5494TIP3    H237898   5.904   3.206   1.062 -0.3119 -0.0078  0.3950
 5495TIP3   OH237899   6.021   5.889  14.592 -0.1922  0.1514 -0.0268
 5495TIP3    H137900   6.069   5.844  14.522  0.7081 -0.0874  0.7274
 5495TIP3    H237901   5.954   5.940  14.546  0.0541 -0.3995 -1.0254
 5496TIP3   OH237902   1.501   1.624  16.673 -0.7902 -0.0698 -0.0383
 5496TIP3    H137903   1.500   1.664  16.759  0.6080 -0.3498  0.1239
 5496TIP3    H237904   1.582   1.655  16.632 -1.4065  0.0368 -1.2480
 5497TIP3   OH237905   5.481   3.598  13.616  0.1247 -0.1403  0.7685
 5497TIP3    H137906   5.461   3.677  13.565 -1.4214 -2.3601 -2.3600
 5497TIP3    H237907   5.568   3.572  13.585  0.2692 -0.1603  1.1812
 5498TIP3   OH237908   6.221   4.461   4.342  0.1704 -0.0261  0.1020
 5498TIP3    H137909   6.156   4.450   4.272 -1.7397  1.7199  1.5074
 5498TIP3    H237910   6.302   4.483   4.296 -0.7709  0.0224 -1.6100
 5499TIP3   OH237911   4.680   1.525   6.075 -0.2763  0.3059  0.3102
 5499TIP3    H137912   4.601   1.479   6.103 -1.0554  0.4696 -1.4659
 5499TIP3    H237913   4.680   1.605   6.127 -0.6370 -0.2451  1.1693
 5500TIP3   OH237914   3.832   0.519   6.215  0.2203  0.3711  0.3124
 5500TIP3    H137915   3.817   0.539   6.122 -0.2298  0.5619  0.4257
 5500TIP3    H237916   3.910   0.463   6.215  0.1501  0.2691 -0.1916
 5501TIP3   OH237917   6.417   0.049  11.777 -0.4242  0.2040  0.1439
 5501TIP3    H137918   6.419   0.037  11.682  0.8692 -0.0812  0.1771
 5501TIP3    H237919   6.414  -0.040  11.812 -0.5778  0.2971  0.3688
 5502TIP3   OH237920   2.480   5.705   4.367 -0.2586 -0.1345 -0.0416
 5502TIP3    H137921   2.406   5.730   4.422  0.1894  1.4287 -0.0899
 5502TIP3    H237922   2.443   5.645   4.303 -1.2898 -0.1004  0.5054
 5503TIP3   OH237923   4.865   2.663  16.709  0.1421 -0.2432  0.1492
 5503TIP3    H137924   4.952   2.651  16.672  0.0773  0.4388 -0.2282
 5503TIP3    H237925   4.806   2.618  16.647  0.2381 -0.8804  0.5118
 5504TIP3   OH237926   6.601   4.176  11.528  0.0965  0.1250  0.1375
 5504TIP3    H137927   6.515   4.169  11.569  0.3870  0.5764  0.8365
 5504TIP3    H237928   6.652   4.230  11.588  1.1621 -0.9185  0.2139
 5505TIP3   OH237929   3.180   5.782  11.890  0.5081  0.0029  0.4618
 5505TIP3    H137930   3.116   5.794  11.961 -2.3367 -0.0499 -1.9219
 5505TIP3    H237931   3.220   5.868  11.879  1.3505 -0.0902  2.3511
 5506TIP3   OH237932   1.072   2.142  16.526 -0.2749  0.1907 -0.1309
 5506TIP3    H137933   1.056   2.224  16.479  2.6490  1.7823  1.3834
 5506TIP3    H237934   1.026   2.152  16.609 -0.0415  0.2317 -0.0062
 5507TIP3   OH237935   5.151   3.116   3.069  0.1484  0.0799  0.2532
 5507TIP3    H137936   5.203   3.121   3.150  0.2427 -0.6331  0.2493
 5507TIP3    H237937   5.208   3.069   3.008 -0.6508 -1.1010  0.3809
 5508TIP3   OH237938   2.929   0.732   6.088  0.0193  0.2691  0.3895
 5508TIP3    H137939   2.929   0.664   6.021 -4.8930 -0.0608  0.3955
 5508TIP3    H237940   2.942   0.685   6.170  0.0919 -0.1863  0.1167
 5509TIP3   OH237941   4.667   3.445  13.184  0.3374 -0.2994  0.0618
 5509TIP3    H137942   4.603   3.381  13.214  1.8225 -1.3150  1.1811
 5509TIP3    H237943   4.698   3.410  13.100 -0.3388  0.0532 -0.3465
 5510TIP3   OH237944   0.439   1.521   0.850 -0.1258 -0.4708  0.8082
 5510TIP3    H137945   0.406   1.462   0.918 -0.0380  1.3695  2.5554
 5510TIP3    H237946   0.388   1.601   0.861  1.1136  0.4860 -0.1016
 5511TIP3   OH237947   1.962   2.171  16.085  0.1532  0.7463 -0.0034
 5511TIP3    H137948   1.907   2.118  16.142 -0.7295  2.0511  0.3999
 5511TIP3    H237949   1.904   2.240  16.054  0.3866 -0.2742 -3.0842
 5512TIP3   OH237950   2.986   1.488  13.730  0.6485 -0.1804  0.2401
 5512TIP3    H137951   2.891   1.493  13.724  0.6728 -1.0198 -1.3558
 5512TIP3    H237952   3.015   1.579  13.734 -0.2849  0.1191  3.4906
 5513TIP3   OH237953   1.918   3.267  10.492 -0.4281  0.4165  0.8957
 5513TIP3    H137954   1.979   3.337  10.516  0.1821  0.3710 -0.3999
 5513TIP3    H237955   1.869   3.248  10.572  0.4801  1.2447  1.6683
 5514TIP3   OH237956   1.155   4.787  12.486  0.0630 -0.2705  0.3979
 5514TIP3    H137957   1.110   4.826  12.412  0.2992 -0.3305  0.2227
 5514TIP3    H237958   1.181   4.700  12.456  2.5567  0.6666 -0.4249
 5515TIP3   OH237959   2.927   4.325   0.570  0.0573 -0.5346  0.2521
 5515TIP3    H137960   2.989   4.275   0.518  0.2785 -0.5395  0.5215
 5515TIP3    H237961   2.921   4.409   0.525 -0.0473 -0.6770 -0.0008
 5516TIP3   OH237962   5.357   2.558   5.993  0.0261  0.0201  0.7073
 5516TIP3    H137963   5.404   2.591   5.916 -0.2062 -0.8070  0.1956
 5516TIP3    H237964   5.268   2.542   5.960  0.0071 -0.6291  1.0706
 5517TIP3   OH237965   1.205   5.685   1.285  0.6802 -0.0840 -0.1414
 5517TIP3    H137966   1.264   5.706   1.213 -0.4065  1.3042 -0.6620
 5517TIP3    H237967   1.130   5.742   1.273 -0.4063 -1.1899  1.0010
 5518TIP3   OH237968   1.941   2.091   3.851 -0.0566  0.3670 -0.0268
 5518TIP3    H137969   1.900   2.152   3.790  0.0922  0.4487 -0.0445
 5518TIP3    H237970   1.907   2.117   3.937 -0.6430 -0.0503 -0.1218
 5519TIP3   OH237971   0.868   4.648  14.037  0.7454  0.6276  0.1694
 5519TIP3    H137972   0.886   4.645  14.131  0.1043 -1.8606  0.2776
 5519TIP3    H237973   0.773   4.647  14.030  0.7946 -0.2071 -0.5120
 5520TIP3   OH237974   1.522   6.653  16.292  1.1127 -0.3799  0.6735
 5520TIP3    H137975   1.604   6.611  16.319  2.6916  1.1359 -1.4892
 5520TIP3    H237976   1.532   6.745  16.318 -0.4972 -0.3976  1.5168
 5521TIP3   OH237977   1.176   2.750  14.285 -0.6340 -0.3866  0.0102
 5521TIP3    H137978   1.207   2.732  14.196  2.0384  0.3266  0.6931
 5521TIP3    H237979   1.115   2.822  14.275 -1.1809 -1.0015 -1.3341
 5522TIP3   OH237980   0.432   5.908   5.518  0.5311 -0.1379  0.1035
 5522TIP3    H137981   0.437   5.935   5.610 -0.3984 -3.4817  1.2950
 5522TIP3    H237982   0.512   5.856   5.505 -0.7024 -2.1259  0.0242
 5523TIP3   OH237983   0.823   2.755  16.793  0.3636  0.2310 -0.2609
 5523TIP3    H137984   0.883   2.803  16.851  1.6468  0.8210 -1.9663
 5523TIP3    H237985   0.865   2.670  16.780  0.4975  0.3808 -0.8850
 5524TIP3   OH237986   2.836   3.929  16.326 -0.3380  0.4152 -0.2823
 5524TIP3    H137987   2.833   3.942  16.231  0.4517  1.0440 -0.2293
 5524TIP3    H237988   2.903   3.862  16.339 -0.7716 -0.0089 -0.1904
 5525TIP3   OH237989   2.617   2.587   0.376  0.4651  0.0622 -0.1062
 5525TIP3    H137990   2.569   2.522   0.427 -0.7504  0.2391 -0.9826
 5525TIP3    H237991   2.705   2.551   0.367 -0.5811 -2.2744 -1.9315
 5526TIP3   OH237992   6.350   1.622   4.915  0.0581 -0.4269 -0.0027
 5526TIP3    H137993   6.301   1.699   4.887 -1.5305 -1.3057  0.2434
 5526TIP3    H237994   6.298   1.585   4.986  0.8628 -1.6567 -0.0205
 5527TIP3   OH237995   0.587   0.483   0.186 -0.1195  0.1514  0.0851
 5527TIP3    H137996   0.546   0.541   0.250 -1.7037 -1.2363  0.3995
 5527TIP3    H237997   0.514   0.455   0.130  0.8128 -0.6286 -0.7667
 5528TIP3   OH237998   2.244   2.828   3.450  0.4370  0.2741 -0.0374
 5528TIP3    H137999   2.308   2.897   3.432 -0.7053  0.7302 -2.7941
 5528TIP3    H238000   2.159   2.872   3.448 -0.2387 -0.9907 -0.6378
 5529TIP3   OH238001   2.118   0.388  13.783 -0.3196  0.5143 -0.4064
 5529TIP3    H138002   2.152   0.474  13.758  1.7059 -0.1907 -0.2966
 5529TIP3    H238003   2.081   0.401  13.871  0.1376  1.2390 -0.3142
 5530TIP3   OH238004   3.415   4.603  16.715  0.0289  0.2193 -0.3005
 5530TIP3    H138005   3.502   4.638  16.737  0.2010 -0.8287  0.7964
 5530TIP3    H238006   3.365   4.680  16.689  0.9230  1.0315  0.2796
 5531TIP3   OH238007   3.528   3.846  16.684  0.6906  0.1724  0.0866
 5531TIP3    H138008   3.545   3.934  16.716  1.1620  0.4954 -1.0108
 5531TIP3    H238009   3.604   3.795  16.713  0.8612  0.3404 -0.0648
 5532TIP3   OH238010   6.103   2.414   4.390  0.4014 -0.2518  0.3194
 5532TIP3    H138011   6.119   2.390   4.298  0.2247  1.2449 -0.1272
 5532TIP3    H238012   6.043   2.347   4.421 -0.0588 -0.4212 -0.8640
 5533TIP3   OH238013   1.572   1.605  12.485  0.2173  0.1380 -0.0019
 5533TIP3    H138014   1.650   1.615  12.431  0.0139 -2.0481 -0.7855
 5533TIP3    H238015   1.602   1.622  12.574  1.3191  0.4084 -0.4135
 5534TIP3   OH238016   0.965   5.105   5.467  0.4503 -0.2896  0.2201
 5534TIP3    H138017   0.872   5.101   5.443  0.5824  1.8287 -0.8812
 5534TIP3    H238018   0.967   5.153   5.549  0.5118 -1.4877  0.9424
 5535TIP3   OH238019   6.745   5.202   2.606 -0.3749 -0.3036 -0.3689
 5535TIP3    H138020   6.836   5.196   2.578  0.0293 -1.7267  1.0837
 5535TIP3    H238021   6.728   5.296   2.613  0.7206 -0.0065 -1.4285
 5536TIP3   OH238022   4.656   2.958   6.294 -0.3978  0.0644 -0.3292
 5536TIP3    H138023   4.615   2.946   6.380  1.9883 -0.5828  0.7981
 5536TIP3    H238024   4.664   2.869   6.259 -0.0111  0.1809 -0.5418
 5537TIP3   OH238025   3.778   4.885  14.157  0.0694  0.1396  0.0066
 5537TIP3    H138026   3.868   4.852  14.150  0.1337  0.4313 -0.6332
 5537TIP3    H238027   3.760   4.923  14.071 -0.0339  1.6837  0.6839
 5538TIP3   OH238028   6.556   6.321   1.047 -0.0453  0.0364  0.0447
 5538TIP3    H138029   6.609   6.340   1.125  0.8024 -0.3862 -0.4080
 5538TIP3    H238030   6.469   6.303   1.081  0.2474  0.1220  0.8754
 5539TIP3   OH238031   2.991   4.576   4.138  0.9384 -0.1062  0.2445
 5539TIP3    H138032   2.961   4.556   4.227  1.2563 -0.0961  0.3553
 5539TIP3    H238033   2.938   4.521   4.082  1.2994 -0.7174  0.4981
 5540TIP3   OH238034   4.386   1.187  15.278 -0.1281 -0.0142  0.0631
 5540TIP3    H138035   4.390   1.115  15.215  1.4276 -1.6111  1.8798
 5540TIP3    H238036   4.313   1.164  15.335  0.5760 -0.3573  0.8434
 5541TIP3   OH238037   5.750   0.075   0.516  0.8203  0.0992 -0.6809
 5541TIP3    H138038   5.745   0.150   0.456  3.0055  0.7156 -0.2157
 5541TIP3    H238039   5.766   0.115   0.602  0.6517 -0.8660 -0.1904
 5542TIP3   OH238040   4.377   4.364   4.324 -0.1876  0.6262 -0.1641
 5542TIP3    H138041   4.282   4.351   4.318 -0.0197 -0.9423  0.1379
 5542TIP3    H238042   4.389   4.459   4.316 -1.9883  1.1983  2.4889
 5543TIP3   OH238043   6.214   4.392   3.493 -0.0674 -0.4606  0.3583
 5543TIP3    H138044   6.128   4.430   3.511  0.5683  0.6860  1.1002
 5543TIP3    H238045   6.205   4.300   3.518 -1.7808 -1.0019 -1.9567
 5544TIP3   OH238046   2.666   0.914  14.313  0.0923 -0.6019  0.2850
 5544TIP3    H138047   2.757   0.885  14.305  0.2763  0.3547 -4.0236
 5544TIP3    H238048   2.616   0.851  14.261 -1.3171  0.2230  0.5739
 5545TIP3   OH238049   6.273   4.507  10.980 -0.3121 -0.2166 -0.8328
 5545TIP3    H138050   6.248   4.511  11.072 -1.2319  0.4378 -1.0999
 5545TIP3    H238051   6.351   4.451  10.979  0.2359  0.4661  0.4498
 5546TIP3   OH238052   4.903   3.568   4.077  0.3889  0.0743 -0.4516
 5546TIP3    H138053   4.812   3.552   4.055  0.7567  0.4623 -2.4188
 5546TIP3    H238054   4.903   3.657   4.114 -0.1030 -0.1869  0.2001
 5547TIP3   OH238055   3.819   2.521   2.999  1.0317  0.4469 -0.0540
 5547TIP3    H138056   3.807   2.551   3.089 -1.4267 -0.8045  0.1133
 5547TIP3    H238057   3.872   2.441   3.007 -0.0443 -0.2373  0.4086
 5548TIP3   OH238058   3.680   1.254   5.948  0.4113  0.4826  0.2336
 5548TIP3    H138059   3.774   1.263   5.940  0.5001  0.2686  1.0120
 5548TIP3    H238060   3.650   1.337   5.986 -0.1447  1.9353 -3.0341
 5549TIP3   OH238061   4.359   1.465  14.742 -0.7755  0.2270  0.0051
 5549TIP3    H138062   4.438   1.414  14.759 -0.6189  0.2265 -0.6810
 5549TIP3    H238063   4.310   1.412  14.679 -1.4837  0.0751  0.6731
 5550TIP3   OH238064   0.766   2.015   5.922  0.3207  0.4964 -0.0047
 5550TIP3    H138065   0.792   1.934   5.878  0.3220  1.4672 -1.9002
 5550TIP3    H238066   0.782   1.998   6.015  0.3273 -1.6610 -0.3422
 5551TIP3   OH238067   3.344   3.664  16.820 -0.1835  0.3590 -0.3181
 5551TIP3    H138068   3.391   3.746  16.805 -0.0561  0.6056  1.2430
 5551TIP3    H238069   3.411   3.603  16.850 -0.4694  0.0259 -0.3532
 5552TIP3   OH238070   0.398   3.833   0.441 -0.1655 -0.4483 -0.0204
 5552TIP3    H138071   0.343   3.873   0.509  0.8914  0.7850  0.1499
 5552TIP3    H238072   0.376   3.881   0.361 -1.9911 -2.4181 -0.8044
 5553TIP3   OH238073   3.436   1.207   6.387  0.1746  0.3813  0.3660
 5553TIP3    H138074   3.434   1.289   6.436  0.5999  1.2704 -1.0107
 5553TIP3    H238075   3.525   1.174   6.399 -0.2121 -0.3064  1.5305
 5554TIP3   OH238076   3.907   4.322  12.267  0.4801  0.1818  0.3271
 5554TIP3    H138077   3.887   4.304  12.359  0.1602 -0.0746  0.2108
 5554TIP3    H238078   3.836   4.379  12.238  0.9218  0.7838  0.4060
 5555TIP3   OH238079   2.743   1.489   0.965  0.0582  0.1040 -0.3132
 5555TIP3    H138080   2.817   1.526   0.917 -0.2774  0.4814 -0.5479
 5555TIP3    H238081   2.717   1.412   0.913  0.6915 -0.4112  0.1209
 5556TIP3   OH238082   2.000   1.207   2.677  0.2351 -0.0158  0.0913
 5556TIP3    H138083   2.028   1.295   2.701  0.0197  0.2415 -0.5777
 5556TIP3    H238084   1.923   1.190   2.731 -0.3649  0.6298 -0.5466
 5557TIP3   OH238085   5.229   1.652  12.507  0.2922 -1.1221  0.1491
 5557TIP3    H138086   5.157   1.677  12.449 -0.0107 -3.3235 -0.5334
 5557TIP3    H238087   5.296   1.718  12.493 -0.8530 -0.0829 -0.6317
 5558TIP3   OH238088   1.717   1.963  12.567  0.3214  0.1908 -0.1491
 5558TIP3    H138089   1.632   1.933  12.533 -0.3211  2.4553 -0.7144
 5558TIP3    H238090   1.696   1.999  12.653  0.1294  3.0686 -1.2828
 5559TIP3   OH238091   1.040   0.898   0.488  0.1233 -0.5866  0.1368
 5559TIP3    H138092   1.108   0.843   0.528  0.6424  0.2191  0.3931
 5559TIP3    H238093   1.038   0.977   0.542  0.7474  0.4878 -1.3318
 5560TIP3   OH238094   1.679   6.757  10.340 -0.3171 -0.0084  0.0687
 5560TIP3    H138095   1.771   6.781  10.351 -0.2496  0.8330 -1.8556
 5560TIP3    H238096   1.631   6.834  10.368 -0.4233 -0.2874  0.6602
 5561TIP3   OH238097   3.719   4.335  13.004  0.0502  0.1894 -0.1849
 5561TIP3    H138098   3.743   4.244  13.022  1.6347  0.0581 -2.4757
 5561TIP3    H238099   3.734   4.345  12.910 -1.1483  2.5351 -0.1964
 5562TIP3   OH238100   4.928   4.166  11.541 -0.0920  0.0946  0.5272
 5562TIP3    H138101   4.859   4.228  11.518 -0.8942 -1.5730 -1.9009
 5562TIP3    H238102   4.882   4.083  11.557  1.0262 -0.1774  2.8572
 5563TIP3   OH238103   5.034   6.224   1.332 -0.7222  0.6924 -0.1233
 5563TIP3    H138104   5.049   6.315   1.356 -0.3128  0.4511  0.5323
 5563TIP3    H238105   5.048   6.174   1.412 -1.2070  0.0747 -0.4119
 5564TIP3   OH238106   1.114   1.168   0.417 -0.2289 -0.2312 -0.3820
 5564TIP3    H138107   1.194   1.165   0.468 -0.1163  0.8591 -0.4856
 5564TIP3    H238108   1.117   1.088   0.364  0.4337 -0.5501  0.1242
 5565TIP3   OH238109   5.022   5.271  11.641 -0.1662 -0.6069  0.5839
 5565TIP3    H138110   4.970   5.232  11.711 -0.0667 -2.3589 -0.2816
 5565TIP3    H238111   5.101   5.218  11.636 -0.0516 -0.3568 -0.6753
 5566TIP3   OH238112   4.754   2.023  12.423 -0.6915  0.2085 -0.0092
 5566TIP3    H138113   4.698   1.959  12.379 -0.5459 -0.0650  0.2082
 5566TIP3    H238114   4.729   2.019  12.515 -3.3859  3.1142 -0.4222
 5567TIP3   OH238115   1.738   5.803   3.359  0.1670 -0.2088 -0.5179
 5567TIP3    H138116   1.819   5.853   3.366  0.1869 -0.3713  0.6316
 5567TIP3    H238117   1.673   5.855   3.407 -0.0388 -0.8089 -0.1287
 5568TIP3   OH238118   2.098   6.435   1.655  0.1436  0.1242  0.2202
 5568TIP3    H138119   2.155   6.390   1.592 -0.2318  0.4180 -0.3451
 5568TIP3    H238120   2.099   6.526   1.626  0.0086  0.2760  0.6852
 5569TIP3   OH238121   5.125   2.158  16.653  0.0538 -0.4438 -0.0449
 5569TIP3    H138122   5.097   2.120  16.736 -1.5226 -0.5557 -0.6029
 5569TIP3    H238123   5.120   2.085  16.591  0.6235 -0.2053 -0.3838
 5570TIP3   OH238124   1.542   0.712  14.773 -0.4352  0.0344  0.7055
 5570TIP3    H138125   1.452   0.713  14.806 -0.0711  1.0335  1.7323
 5570TIP3    H238126   1.577   0.627  14.802 -2.2778 -2.4292 -3.4032
 5571TIP3   OH238127   3.771   2.726  11.718 -0.0153  0.2926  0.1967
 5571TIP3    H138128   3.731   2.794  11.773 -0.3426  1.5556 -1.5332
 5571TIP3    H238129   3.841   2.772  11.671  1.5376 -1.2062  0.9206
 5572TIP3   OH238130   1.965   2.319   1.233  0.2350  0.4689  0.1928
 5572TIP3    H138131   1.988   2.395   1.179 -1.0350 -0.6006 -2.0062
 5572TIP3    H238132   1.878   2.341   1.268 -0.1413  0.0718 -0.4595
 5573TIP3   OH238133   2.042   1.963  16.239  0.2887 -0.5688  0.1352
 5573TIP3    H138134   2.005   1.946  16.153  0.9181 -0.2223 -0.2078
 5573TIP3    H238135   2.106   2.033  16.225 -1.1836  1.1065  1.2440
 5574TIP3   OH238136   4.422   1.966  16.041  0.6413 -0.2369 -0.0901
 5574TIP3    H138137   4.415   2.061  16.037  0.1924 -0.2703 -0.1446
 5574TIP3    H238138   4.371   1.935  15.965  1.0836 -0.5052 -0.2804
 5575TIP3   OH238139   6.446   5.988  15.193  0.2961 -0.2902  0.3133
 5575TIP3    H138140   6.436   5.899  15.227 -0.5562  0.2113  1.4647
 5575TIP3    H238141   6.357   6.014  15.169  0.5513  0.2248 -0.0950
 5576TIP3   OH238142   1.124   2.559   2.219 -0.0702  0.0398 -0.1316
 5576TIP3    H138143   1.205   2.602   2.245 -1.2682  2.4156  0.0052
 5576TIP3    H238144   1.072   2.555   2.300  0.0938 -1.9953 -0.0883
 5577TIP3   OH238145   3.405   3.166   4.669 -0.5421  0.4237 -0.3701
 5577TIP3    H138146   3.332   3.204   4.621 -2.0561 -0.0233  1.4814
 5577TIP3    H238147   3.391   3.071   4.663  0.6275  0.2650 -1.0499
 5578TIP3   OH238148   2.289   3.574  11.370  0.1481  0.5209  0.0323
 5578TIP3    H138149   2.251   3.540  11.289  0.4431 -0.5447  0.3234
 5578TIP3    H238150   2.341   3.649  11.342 -0.4119  0.6733 -0.6497
 5579TIP3   OH238151   2.748   5.513   4.273 -0.2925  0.3393 -0.4101
 5579TIP3    H138152   2.729   5.605   4.290 -1.2989  0.1275 -0.3478
 5579TIP3    H238153   2.669   5.467   4.298  0.9617 -0.8263  1.7210
 5580TIP3   OH238154   4.690   6.292   1.221  1.1173 -1.0327  0.0337
 5580TIP3    H138155   4.681   6.199   1.203 -1.5789 -0.4101 -2.7782
 5580TIP3    H238156   4.752   6.324   1.155 -0.2159 -0.4373 -0.9707
 5581TIP3   OH238157   1.590   1.230  11.963 -0.3984  0.2606  0.1219
 5581TIP3    H138158   1.496   1.215  11.956 -0.3855  0.4053 -0.4562
 5581TIP3    H238159   1.608   1.298  11.897  0.0280  0.5843  0.5683
 5582TIP3   OH238160   2.447   1.176  11.206 -0.4403 -0.0154 -0.2366
 5582TIP3    H138161   2.448   1.262  11.248 -1.2121 -0.3085  0.4082
 5582TIP3    H238162   2.460   1.194  11.113  0.4204  0.7147  0.0160
 5583TIP3   OH238163   2.750   0.369   0.126  0.1367  0.2991 -0.0594
 5583TIP3    H138164   2.712   0.414   0.051  0.1422 -1.5211 -1.2263
 5583TIP3    H238165   2.677   0.320   0.164  0.7034 -1.0593 -0.6613
 5584TIP3   OH238166   0.191   1.740   4.742  0.6304 -0.1558  0.4498
 5584TIP3    H138167   0.182   1.675   4.811 -0.8508 -0.5216 -0.0340
 5584TIP3    H238168   0.215   1.689   4.664  0.3317 -0.0170  0.2644
 5585TIP3   OH238169   0.165   0.317   3.576  0.7030  0.0937  0.0108
 5585TIP3    H138170   0.197   0.283   3.659  2.0542  2.6854  0.6728
 5585TIP3    H238171   0.182   0.411   3.581  0.0208  0.4574 -2.8539
 5586TIP3   OH238172   2.025   3.418   5.806  0.0851  0.1409 -1.1273
 5586TIP3    H138173   1.951   3.376   5.848  0.1383  0.2107 -0.9648
 5586TIP3    H238174   2.091   3.427   5.875 -0.5738  2.0831 -0.7079
 5587TIP3   OH238175   5.639   2.632   4.890 -0.5367  0.1135  1.0795
 5587TIP3    H138176   5.644   2.662   4.800 -0.7833  0.0932  1.0596
 5587TIP3    H238177   5.677   2.703   4.942 -0.5924  0.2134  0.9810
 5588TIP3   OH238178   3.255   3.806   4.099 -0.2598 -0.2913  0.1390
 5588TIP3    H138179   3.162   3.816   4.116 -0.2527  1.0271 -0.4789
 5588TIP3    H238180   3.272   3.861   4.022  1.0406 -0.4604  0.2721
 5589TIP3   OH238181   1.819   2.679   6.458  0.2454 -0.0179 -0.0944
 5589TIP3    H138182   1.822   2.773   6.440 -1.2799  0.0837  0.0806
 5589TIP3    H238183   1.901   2.645   6.422  2.4471  1.8385  2.7553
 5590TIP3   OH238184   1.282   5.556   1.673  0.2446  0.8427 -0.1291
 5590TIP3    H138185   1.219   5.493   1.708 -0.0695  0.6913 -0.9433
 5590TIP3    H238186   1.232   5.637   1.663  0.1148  0.6692 -0.9627
 5591TIP3   OH238187   3.499   2.532   0.705  0.1035  0.0166 -0.6804
 5591TIP3    H138188   3.504   2.443   0.739 -0.5611 -0.1621 -1.0383
 5591TIP3    H238189   3.436   2.576   0.761 -0.9521 -0.2623 -1.6228
 5592TIP3   OH238190   4.057   5.763   4.479  0.3639  0.5603 -0.5650
 5592TIP3    H138191   4.076   5.669   4.476  0.4461  0.6096 -2.3190
 5592TIP3    H238192   4.065   5.786   4.572  0.6320 -1.0974 -0.1498
 5593TIP3   OH238193   5.517   5.218   5.377 -0.5012 -0.1958  1.0977
 5593TIP3    H138194   5.526   5.307   5.342  0.8304 -1.6851 -2.9591
 5593TIP3    H238195   5.423   5.202   5.377 -0.7774  1.2182  2.1110
 5594TIP3   OH238196   3.345   1.775  12.906  0.1066 -0.2900 -0.2931
 5594TIP3    H138197   3.280   1.724  12.858 -0.0946 -2.0104  1.6912
 5594TIP3    H238198   3.423   1.720  12.907  0.5378  0.3117  0.1791
 5595TIP3   OH238199   3.289   3.534  15.557  0.4068  0.2681 -0.3676
 5595TIP3    H138200   3.290   3.447  15.516 -1.7479  0.3416 -0.6914
 5595TIP3    H238201   3.220   3.528  15.623  1.3081  1.2925  0.7166
 5596TIP3   OH238202   0.585   0.080   0.656 -0.2456  0.3040  0.0815
 5596TIP3    H138203   0.605   0.011   0.720 -0.9879  0.4669  0.5002
 5596TIP3    H238204   0.615   0.044   0.572  1.1982  0.2947  0.5738
 5597TIP3   OH238205   0.626   5.298  12.987 -0.7167 -0.6778 -0.2944
 5597TIP3    H138206   0.602   5.239  12.916  1.0822 -0.1527 -1.4091
 5597TIP3    H238207   0.659   5.376  12.943 -0.6176  0.1278  1.1350
 5598TIP3   OH238208   1.608   3.359  16.280  0.3731  0.0603  0.2859
 5598TIP3    H138209   1.534   3.365  16.220  0.2149 -2.3095  0.1528
 5598TIP3    H238210   1.592   3.427  16.345 -1.5794  0.0299 -0.1084
 5599TIP3   OH238211   0.627   4.362   3.074  0.1323 -0.4268  0.2173
 5599TIP3    H138212   0.637   4.437   3.133 -0.8866 -0.5393  0.5357
 5599TIP3    H238213   0.710   4.315   3.082  1.3888  1.4262 -1.0798
 5600TIP3   OH238214   1.900   2.976  14.619  0.3366  0.6010  0.5340
 5600TIP3    H138215   1.977   2.933  14.655 -0.6169 -0.2096  1.6543
 5600TIP3    H238216   1.913   2.972  14.524  0.9771 -0.8393  0.6599
 5601TIP3   OH238217   6.169   1.636  13.347  0.4996 -0.1604  0.8155
 5601TIP3    H138218   6.264   1.623  13.349  0.7531  1.5299  1.3068
 5601TIP3    H238219   6.151   1.669  13.259  0.5654  0.7742  1.1462
 5602TIP3   OH238220   3.126   0.968  14.202  0.3404  0.4377 -0.0725
 5602TIP3    H138221   3.162   1.055  14.219 -2.1527  1.1839  2.0735
 5602TIP3    H238222   3.044   0.985  14.154 -1.1389 -0.4692  1.9794
 5603TIP3   OH238223   0.913   5.138   4.655 -0.5930 -0.0220 -0.0708
 5603TIP3    H138224   0.880   5.080   4.587  0.3635 -0.0952 -0.4898
 5603TIP3    H238225   0.954   5.211   4.607 -2.3176  1.3626  0.4327
 5604TIP3   OH238226   2.088   0.941   0.506 -0.3432  0.1688 -0.4226
 5604TIP3    H138227   2.058   0.909   0.591  1.0195 -1.8762 -0.6540
 5604TIP3    H238228   2.113   0.862   0.458  1.0956  1.4381 -1.8813
 5605TIP3   OH238229   0.697   0.317   4.018  0.4665 -0.1494 -0.2753
 5605TIP3    H138230   0.728   0.229   4.039  0.9902 -0.1755 -1.1224
 5605TIP3    H238231   0.608   0.321   4.054  0.6288 -0.8445  0.2141
 5606TIP3   OH238232   6.695   4.196   1.508 -0.7338  0.4722  0.0983
 5606TIP3    H138233   6.646   4.129   1.557 -0.9822  0.7166  0.1875
 5606TIP3    H238234   6.672   4.180   1.417  0.6744 -0.7637 -0.0794
 5607TIP3   OH238235   5.574   3.903   5.188  0.1960 -0.0969  0.1877
 5607TIP3    H138236   5.529   3.972   5.139  0.6349 -0.2063 -0.3784
 5607TIP3    H238237   5.530   3.822   5.160  0.2088 -0.1269  0.2535
 5608TIP3   OH238238   0.986   2.538  14.486  0.1414  0.5470 -0.2680
 5608TIP3    H138239   1.032   2.617  14.459  1.3821 -0.4288 -1.0934
 5608TIP3    H238240   0.940   2.509  14.407 -1.1429  0.9757  0.2961
 5609TIP3   OH238241   4.670   6.643  13.899 -0.4004 -0.0094  0.0671
 5609TIP3    H138242   4.632   6.583  13.964  1.7253  0.9452  2.3318
 5609TIP3    H238243   4.677   6.726  13.945  0.1141  1.0423 -1.8276
 5610TIP3   OH238244   5.556   0.788  11.547 -0.5485  0.1712 -0.4159
 5610TIP3    H138245   5.524   0.758  11.633  1.7050 -0.9342  0.1022
 5610TIP3    H238246   5.626   0.849  11.568 -1.4436  1.6415 -1.5260
 5611TIP3   OH238247   2.058   4.817   5.772  0.3269 -0.6165 -0.5083
 5611TIP3    H138248   2.040   4.822   5.866  0.4685  2.6677 -0.5245
 5611TIP3    H238249   2.154   4.824   5.767  0.4980 -2.7185 -0.8946
 5612TIP3   OH238250   1.644   0.944  14.647  0.1355 -0.3433 -0.2769
 5612TIP3    H138251   1.632   0.884  14.720  0.6722  1.3844  1.3134
 5612TIP3    H238252   1.570   0.927  14.589 -2.2715  0.5192  2.3440
 5613TIP3   OH238253   3.285   2.453  15.546 -0.5192  0.1732  0.7562
 5613TIP3    H138254   3.275   2.521  15.480 -2.3223 -0.2857  0.5091
 5613TIP3    H238255   3.355   2.485  15.603  0.2556  1.1301 -0.6803
 5614TIP3   OH238256   1.007   3.627  14.672 -0.4292 -0.1304  0.2407
 5614TIP3    H138257   1.069   3.688  14.633 -0.5237 -0.9230 -1.2457
 5614TIP3    H238258   0.921   3.655  14.640 -0.4737 -1.0076 -0.4606
 5615TIP3   OH238259   2.567   1.334  12.736 -0.4728 -0.1025 -1.0804
 5615TIP3    H138260   2.582   1.419  12.695  0.7689 -0.9976 -2.5752
 5615TIP3    H238261   2.480   1.307  12.704 -1.3720  1.0343  0.2748
 5616TIP3   OH238262   4.970   6.315   4.450  0.6367 -0.5058  0.4930
 5616TIP3    H138263   5.064   6.309   4.431  0.8922 -1.4397  1.8613
 5616TIP3    H238264   4.965   6.363   4.533 -0.0033 -1.2632  0.9132
 5617TIP3   OH238265   3.060   3.983  14.383 -0.5553  0.5304  0.5453
 5617TIP3    H138266   3.069   3.889  14.367  0.2883  0.4564  1.3473
 5617TIP3    H238267   3.149   4.017  14.376 -0.3638  0.7769  3.0337
 5618TIP3   OH238268   6.557   1.187  12.799 -0.7081 -0.0669 -0.8647
 5618TIP3    H138269   6.505   1.230  12.866 -0.4165 -1.2999  0.1895
 5618TIP3    H238270   6.492   1.153  12.737 -1.1233 -0.8382 -0.0249
 5619TIP3   OH238271   5.352   4.019  13.526 -0.2691 -0.2806 -0.8678
 5619TIP3    H138272   5.291   3.945  13.518  2.3169 -2.4643 -2.1311
 5619TIP3    H238273   5.430   3.981  13.566  1.3292  1.6644 -1.9903
 5620TIP3   OH238274   3.275   3.185   3.443 -0.3569  0.0915 -0.1296
 5620TIP3    H138275   3.277   3.100   3.488  1.8676  1.3032  2.3193
 5620TIP3    H238276   3.346   3.235   3.483  0.3760  2.1382 -3.5637
 5621TIP3   OH238277   4.768   2.362  14.044  0.2517 -0.1231  0.0071
 5621TIP3    H138278   4.683   2.404  14.029  0.5169  0.1420 -0.8033
 5621TIP3    H238279   4.746   2.278  14.085 -0.3358  0.3799  0.7613
 5622TIP3   OH238280   6.624   2.523   3.260 -0.5606 -0.1303  0.1485
 5622TIP3    H138281   6.611   2.612   3.229 -0.3865 -0.7674 -1.9036
 5622TIP3    H238282   6.713   2.521   3.294 -0.0043  0.1113 -1.2506
 5623TIP3   OH238283   1.950   0.361  12.161 -0.1384 -0.1242  0.3188
 5623TIP3    H138284   2.006   0.309  12.104 -1.1965 -1.0447  0.0936
 5623TIP3    H238285   1.927   0.438  12.109  0.3023 -0.1053  0.1472
 5624TIP3   OH238286   2.646   5.572   2.627  0.0486  0.2389  0.2666
 5624TIP3    H138287   2.693   5.532   2.700  1.6814 -1.4245 -1.5859
 5624TIP3    H238288   2.553   5.562   2.650  0.4255 -3.0365  0.8052
 5625TIP3   OH238289   3.602   0.652   5.135 -0.1016  0.5244  0.1512
 5625TIP3    H138290   3.675   0.691   5.183  1.9863 -1.0700 -1.5581
 5625TIP3    H238291   3.571   0.582   5.193 -1.4653  2.2026  1.5965
 5626TIP3   OH238292   2.675   4.249  14.208  0.2085 -0.5884  0.2049
 5626TIP3    H138293   2.719   4.166  14.192  0.7335  0.1542 -2.7097
 5626TIP3    H238294   2.598   4.247  14.151  0.5636  1.1370 -0.3925
 5627TIP3   OH238295   4.182   5.629   0.626 -0.0521 -0.1550  0.9409
 5627TIP3    H138296   4.206   5.537   0.617 -0.9985 -0.3455  0.2346
 5627TIP3    H238297   4.261   5.677   0.601  0.5127 -0.7662  1.5203
 5628TIP3   OH238298   2.422   6.641  15.494  0.3181  0.1900  0.1331
 5628TIP3    H138299   2.425   6.648  15.589 -0.7411 -0.8237  0.2660
 5628TIP3    H238300   2.514   6.642  15.467  0.6424  0.1821  1.1957
 5629TIP3   OH238301   0.725   2.284   0.541  0.0507 -0.3829 -0.0211
 5629TIP3    H138302   0.791   2.314   0.478  0.0454 -0.5782 -0.1219
 5629TIP3    H238303   0.656   2.350   0.537 -0.6333 -1.1291 -1.2999
 5630TIP3   OH238304   2.487   5.293  12.904  0.2523 -0.3842  0.4583
 5630TIP3    H138305   2.553   5.227  12.926 -0.4570 -1.5474 -0.7779
 5630TIP3    H238306   2.446   5.261  12.824  1.7575  2.9160 -1.8736
 5631TIP3   OH238307   4.165   4.741   4.321 -0.9819  0.2139 -0.1834
 5631TIP3    H138308   4.201   4.789   4.246 -0.4781 -0.0702 -0.1325
 5631TIP3    H238309   4.084   4.702   4.288 -0.4452 -0.4303 -0.7788
 5632TIP3   OH238310   3.863   3.964  11.344  0.7441 -0.1289  0.2742
 5632TIP3    H138311   3.802   3.980  11.272  1.6351 -0.1240 -0.4892
 5632TIP3    H238312   3.949   3.969  11.304  1.2775  0.4733  1.4619
 5633TIP3   OH238313   4.654   5.687   3.707 -0.2726 -0.2229 -0.0335
 5633TIP3    H138314   4.665   5.696   3.612 -0.3288  0.4606  0.0198
 5633TIP3    H238315   4.633   5.775   3.737  1.2331 -0.1224  0.8266
 5634TIP3   OH238316   1.842   6.243  16.417 -0.5631 -0.1829 -0.4197
 5634TIP3    H138317   1.807   6.331  16.433  0.5539  0.3141 -0.6476
 5634TIP3    H238318   1.840   6.201  16.503  0.8102  0.7938  0.1383
 5635TIP3   OH238319   1.487   2.685  14.787  0.0491 -0.5160 -0.1983
 5635TIP3    H138320   1.434   2.763  14.803  1.8840  0.7221  0.1494
 5635TIP3    H238321   1.489   2.676  14.691  0.9050  0.6872 -0.3174
 5636TIP3   OH238322   2.653   5.310   5.551 -0.0430  0.1010 -0.0541
 5636TIP3    H138323   2.635   5.258   5.628 -1.3503 -0.1526 -0.5133
 5636TIP3    H238324   2.568   5.323   5.509  0.3918  1.7207 -0.5115
 5637TIP3   OH238325   6.445   4.833   2.720  0.2536 -0.4213 -0.2556
 5637TIP3    H138326   6.383   4.898   2.688  1.8084  1.4551  0.3423
 5637TIP3    H238327   6.531   4.871   2.700  1.2136 -2.2627  0.2092
 5638TIP3   OH238328   4.145   6.504   1.056  0.7358  0.6752 -0.2957
 5638TIP3    H138329   4.148   6.493   0.961  0.3463  2.7282 -0.5869
 5638TIP3    H238330   4.054   6.485   1.079  0.8007  0.3053 -0.3253
 5639TIP3   OH238331   4.742   1.628   3.801  0.1630 -0.0481 -0.0430
 5639TIP3    H138332   4.656   1.586   3.809 -0.1306  0.4243 -0.6410
 5639TIP3    H238333   4.732   1.690   3.729  1.3332 -0.8437 -0.9557
 5640TIP3   OH238334   2.219   2.544   3.606  0.2785 -0.2746 -0.2111
 5640TIP3    H138335   2.142   2.495   3.579  1.4215 -1.0851 -2.1922
 5640TIP3    H238336   2.195   2.636   3.594 -0.7896 -0.4529  0.4413
 5641TIP3   OH238337   2.827   1.265   6.407  0.2781 -0.2829 -0.2175
 5641TIP3    H138338   2.804   1.341   6.460 -2.6568 -0.4060 -1.0897
 5641TIP3    H238339   2.917   1.244   6.431  0.8978  2.9091  0.6750
 5642TIP3   OH238340   3.940   3.254  16.694  0.1518  0.0339  0.0506
 5642TIP3    H138341   3.963   3.177  16.642  1.6337  1.5343 -1.6660
 5642TIP3    H238342   4.019   3.274  16.743  0.5153  1.5955 -1.0884
 5643TIP3   OH238343   6.127   4.921   3.602 -0.5110 -0.2472  0.1837
 5643TIP3    H138344   6.173   4.887   3.526 -1.5517 -2.4005  0.4235
 5643TIP3    H238345   6.054   4.860   3.615 -1.5659  1.2265  1.6828
 5644TIP3   OH238346   1.359   1.130   0.178 -0.4272 -0.7322  0.3367
 5644TIP3    H138347   1.345   1.170   0.264 -0.6593 -2.4870  1.1679
 5644TIP3    H238348   1.424   1.185   0.135 -2.4464  1.8952  0.4247
 5645TIP3   OH238349   0.927   6.693  16.948 -0.5432  0.2059 -0.4691
 5645TIP3    H138350   0.913   6.767  17.007 -0.9367  0.3731 -0.7668
 5645TIP3    H238351   0.902   6.616  16.999 -0.5285  0.3192 -0.2925
 5646TIP3   OH238352   4.977   4.398   5.168  0.2710  0.5394 -0.2288
 5646TIP3    H138353   4.992   4.303   5.164  3.9607  0.9743 -0.6809
 5646TIP3    H238354   4.977   4.427   5.077  0.4335  1.1108 -0.0525
 5647TIP3   OH238355   1.153   4.321   5.896  0.2416  0.0929 -0.5932
 5647TIP3    H138356   1.163   4.228   5.878  0.1979  0.3632 -2.1184
 5647TIP3    H238357   1.063   4.330   5.929  0.1786 -0.3871 -0.6366
 5648TIP3   OH238358   0.775   0.955  15.552  0.3220 -0.3401 -0.5392
 5648TIP3    H138359   0.736   0.991  15.632  0.4874 -0.2281 -0.5091
 5648TIP3    H238360   0.862   0.925  15.580  0.2348 -0.6479 -0.5914
 5649TIP3   OH238361   2.531   4.305   3.969  0.0921 -0.2881  0.7741
 5649TIP3    H138362   2.507   4.394   3.944 -0.1206 -0.6744 -0.4910
 5649TIP3    H238363   2.452   4.270   4.010 -1.0845 -0.9933 -1.8499
 5650TIP3   OH238364   5.789   0.377  15.833  0.2978 -1.3257  0.1485
 5650TIP3    H138365   5.863   0.403  15.778  0.2699 -2.2928 -0.3651
 5650TIP3    H238366   5.713   0.378  15.774 -0.1004 -0.4274  0.6497
 5651TIP3   OH238367   4.205   3.366   2.078  0.1969 -0.4701  0.3127
 5651TIP3    H138368   4.270   3.377   2.008 -0.2168 -1.4328 -0.2439
 5651TIP3    H238369   4.164   3.452   2.087  0.0481 -0.4082 -0.8412
 5652TIP3   OH238370   5.114   6.631  16.728  0.3539 -0.1816 -0.0142
 5652TIP3    H138371   5.059   6.572  16.675 -0.0240 -1.6997  1.9525
 5652TIP3    H238372   5.057   6.705  16.748 -0.2487 -0.6797  0.1377
 5653TIP3   OH238373   5.527   0.758  13.509  0.3054 -0.1939  0.2826
 5653TIP3    H138374   5.567   0.718  13.587  0.9141 -1.2266 -0.5374
 5653TIP3    H238375   5.436   0.728  13.511  0.6657 -1.3421 -0.1299
 5654TIP3   OH238376   3.271   2.907   3.540  0.4978  0.3170  0.2870
 5654TIP3    H138377   3.345   2.859   3.503  0.4964  1.4157 -1.2323
 5654TIP3    H238378   3.230   2.845   3.601  2.2827 -0.5128  0.7032
 5655TIP3   OH238379   4.954   5.975  15.679 -0.1262 -0.4094 -0.0436
 5655TIP3    H138380   4.909   6.053  15.709 -2.0060 -1.1837 -0.6411
 5655TIP3    H238381   5.047   5.991  15.696 -0.5639  1.5247  0.7056
 5656TIP3   OH238382   4.424   5.897   3.233  0.3066 -0.1328 -0.5171
 5656TIP3    H138383   4.361   5.824   3.225 -0.8989  0.9932 -1.8615
 5656TIP3    H238384   4.441   5.923   3.143  0.6970  1.2627 -0.0522
 5657TIP3   OH238385   3.777   2.192  11.687  0.6815 -0.2727  0.2322
 5657TIP3    H138386   3.797   2.111  11.734 -0.5188 -0.3939  0.5719
 5657TIP3    H238387   3.681   2.191  11.677  0.4606  1.8049  1.5681
 5658TIP3   OH238388   6.155   0.097  14.122 -0.4543 -0.3914 -0.1444
 5658TIP3    H138389   6.066   0.083  14.153  0.4141 -1.3089  2.1197
 5658TIP3    H238390   6.190   0.009  14.107  0.6227 -0.1367  0.7473
 5659TIP3   OH238391   4.795   2.719  12.403  0.2423  0.1050 -0.1637
 5659TIP3    H138392   4.788   2.812  12.421  2.7799  0.5997 -1.2620
 5659TIP3    H238393   4.857   2.686  12.468  0.3438 -0.5354 -0.5719
 5660TIP3   OH238394   3.101   0.372   2.922  0.4286  0.7328 -0.1722
 5660TIP3    H138395   3.089   0.289   2.969 -1.3192  0.8587 -0.3167
 5660TIP3    H238396   3.130   0.433   2.989  0.0806  0.3895  0.3029
 5661TIP3   OH238397   4.079   5.468   5.374 -0.2785  0.0742 -0.2084
 5661TIP3    H138398   4.155   5.475   5.431 -0.5405 -2.0591  0.4679
 5661TIP3    H238399   4.115   5.453   5.287  0.1020  2.7461 -0.6165
 5662TIP3   OH238400   1.349   1.824  15.525  0.4423  0.3333  0.0571
 5662TIP3    H138401   1.347   1.781  15.439  1.5681 -0.1946  0.2724
 5662TIP3    H238402   1.257   1.843  15.544 -0.3969 -3.5675  0.7424
 5663TIP3   OH238403   2.722   4.714   3.938 -0.1509 -0.2811  0.2927
 5663TIP3    H138404   2.678   4.634   3.964  0.3447 -0.6680 -0.0441
 5663TIP3    H238405   2.702   4.777   4.008 -1.1763 -0.4634  0.1679
 5664TIP3   OH238406   5.189   2.649   0.386 -0.2260 -0.4921 -0.7615
 5664TIP3    H138407   5.165   2.725   0.438  0.3226  0.2851 -1.6263
 5664TIP3    H238408   5.257   2.605   0.437  0.8626  0.6841 -1.1443
 5665TIP3   OH238409   0.327   5.633   0.482  0.1833  0.3505 -0.0749
 5665TIP3    H138410   0.383   5.600   0.411  0.1746 -0.0830  0.1141
 5665TIP3    H238411   0.369   5.601   0.562  0.4179  1.1819  0.1394
 5666TIP3   OH238412   4.527   5.295  12.703 -1.0602  0.1330  0.1961
 5666TIP3    H138413   4.483   5.245  12.772 -2.9745  0.6361 -0.5841
 5666TIP3    H238414   4.487   5.381  12.707  0.3563  0.8278 -0.1609
 5667TIP3   OH238415   2.820   2.927  12.199  0.0912 -0.4475  0.5702
 5667TIP3    H138416   2.762   2.901  12.127 -0.0453 -0.6962  0.7682
 5667TIP3    H238417   2.905   2.891  12.176 -0.0321 -0.8252  0.7027
 5668TIP3   OH238418   5.634   0.933  11.923  0.1421 -0.5079  0.0290
 5668TIP3    H138419   5.578   0.914  11.848 -1.3847  0.4998  0.8597
 5668TIP3    H238420   5.573   0.946  11.996  1.3068  2.2229  0.6465
 5669TIP3   OH238421   3.549   0.880   4.458  0.0113  0.3970  0.5766
 5669TIP3    H138422   3.587   0.965   4.481  2.2943 -0.1375 -0.8663
 5669TIP3    H238423   3.454   0.895   4.456  0.3785  3.1239 -0.4225
 5670TIP3   OH238424   4.191   1.087   2.123  0.1996 -0.2468 -0.0391
 5670TIP3    H138425   4.270   1.097   2.069  1.7475 -0.0404  2.1523
 5670TIP3    H238426   4.213   1.018   2.185 -1.2963 -0.0453  0.7575
 5671TIP3   OH238427   0.174   2.583   2.189 -0.4347 -0.3650  0.2138
 5671TIP3    H138428   0.179   2.665   2.239 -0.3284  0.6057 -1.3400
 5671TIP3    H238429   0.082   2.558   2.196 -0.3534 -0.4575  1.1941
 5672TIP3   OH238430   1.469   6.164   4.078 -0.0848 -0.3402  0.3809
 5672TIP3    H138431   1.421   6.086   4.106 -0.3803  0.3453  1.8485
 5672TIP3    H238432   1.488   6.147   3.985 -1.2405 -1.5881  0.3256
 5673TIP3   OH238433   4.574   6.026   3.459  0.4709  0.0436 -0.3366
 5673TIP3    H138434   4.515   6.007   3.386 -0.4847 -0.5161  0.5522
 5673TIP3    H238435   4.608   6.114   3.440 -0.6127  0.3619 -0.8977
 5674TIP3   OH238436   1.986   2.526   3.266  0.1940  0.1736 -0.2749
 5674TIP3    H138437   2.020   2.477   3.191  0.6701 -1.1533  0.7780
 5674TIP3    H238438   2.029   2.612   3.259  1.8444 -0.6227 -0.3987
 5675TIP3   OH238439   4.558   5.086  12.915 -0.5346 -0.0238  0.2534
 5675TIP3    H138440   4.611   5.040  12.979  0.1621  1.5734  0.8599
 5675TIP3    H238441   4.554   5.026  12.840 -1.1268 -1.7903  1.6421
 5676TIP3   OH238442   3.401   0.591  14.862  0.5988 -0.2891  0.6852
 5676TIP3    H138443   3.477   0.545  14.899 -0.0774 -2.4861 -0.4393
 5676TIP3    H238444   3.400   0.565  14.770 -1.0078  0.4207  0.4716
 5677TIP3   OH238445   2.379   2.616   3.333  0.5716  0.3034  0.0391
 5677TIP3    H138446   2.408   2.554   3.399  1.5839  1.0207  0.2919
 5677TIP3    H238447   2.342   2.689   3.383 -0.6176 -0.0822 -0.2535
 5678TIP3   OH238448   2.450   3.469  11.139  0.7955  0.3733 -0.0275
 5678TIP3    H138449   2.377   3.516  11.100 -1.1988 -1.1422  1.6423
 5678TIP3    H238450   2.468   3.398  11.078 -1.3647 -1.1490  0.9755
 5679TIP3   OH238451   1.592   4.310   0.392  0.6078 -0.0557  0.1228
 5679TIP3    H138452   1.557   4.286   0.478 -0.8096  0.3713 -0.3011
 5679TIP3    H238453   1.616   4.227   0.352 -0.1352 -0.3872  0.3574
 5680TIP3   OH238454   6.441   3.448   4.801 -0.1672  0.1660  0.2171
 5680TIP3    H138455   6.391   3.471   4.722  1.3896 -1.0404 -1.2020
 5680TIP3    H238456   6.439   3.527   4.854  0.0596  1.6044 -1.7827
 5681TIP3   OH238457   5.291   2.058  14.867 -0.3630  0.4482  0.3268
 5681TIP3    H138458   5.311   2.010  14.787 -0.2228  0.1801  0.5240
 5681TIP3    H238459   5.203   2.094  14.852 -0.5013  0.0623  0.2168
 5682TIP3   OH238460   1.631   6.135   0.898 -0.4890 -0.7567  0.2289
 5682TIP3    H138461   1.596   6.178   0.820 -1.5522 -1.4232  0.3165
 5682TIP3    H238462   1.719   6.107   0.873 -0.9729 -1.3393 -0.8855
 5683TIP3   OH238463   4.940   3.346   3.779 -0.5205  0.6506  0.3467
 5683TIP3    H138464   4.996   3.364   3.704  0.8289  2.1149  1.6230
 5683TIP3    H238465   4.857   3.389   3.758 -0.0598  1.2942 -0.1975
 5684TIP3   OH238466   2.164   2.044  13.474 -0.5579  0.1507  0.6565
 5684TIP3    H138467   2.180   2.089  13.392 -1.7267  0.5425  0.6325
 5684TIP3    H238468   2.222   1.968  13.471 -0.0321  0.5710 -0.1798
 5685TIP3   OH238469   3.696   3.280   3.659  0.1940 -0.2339  0.0390
 5685TIP3    H138470   3.769   3.291   3.598  0.3631  0.2982  0.3281
 5685TIP3    H238471   3.736   3.289   3.745 -0.2513  0.3034  0.1936
 5686TIP3   OH238472   0.791   3.388  12.947 -0.1422  0.5120  0.0201
 5686TIP3    H138473   0.797   3.295  12.928 -0.1392  0.8999 -2.2748
 5686TIP3    H238474   0.735   3.395  13.024 -2.3811 -1.2725 -1.3197
 5687TIP3   OH238475   2.169   3.074  11.789  0.3543 -0.1986 -0.2666
 5687TIP3    H138476   2.165   3.064  11.884  0.0393 -0.3774 -0.3002
 5687TIP3    H238477   2.094   3.129  11.767 -0.2471 -1.1152 -0.5468
 5688TIP3   OH238478   2.261   6.695   3.363  0.8004  0.1952  0.2902
 5688TIP3    H138479   2.168   6.710   3.347  0.8931 -0.6057 -1.2383
 5688TIP3    H238480   2.306   6.743   3.294  1.5086  0.2084  0.7443
 5689TIP3   OH238481   4.513   0.027   5.466 -0.1697  0.0682  0.4299
 5689TIP3    H138482   4.505  -0.006   5.555 -2.0749 -0.2913  0.1818
 5689TIP3    H238483   4.489  -0.048   5.411  0.4035  0.4524 -0.3685
 5690TIP3   OH238484   2.735   4.590   1.261  0.2981 -0.3092 -0.1425
 5690TIP3    H138485   2.695   4.672   1.291  0.7902 -0.6316  1.5332
 5690TIP3    H238486   2.806   4.617   1.204  2.2132  0.6476  2.4756
 5691TIP3   OH238487   5.418   3.755  15.449 -0.4805  0.4773  0.5444
 5691TIP3    H138488   5.469   3.680  15.416 -1.0319  0.8342 -1.2256
 5691TIP3    H238489   5.436   3.825  15.386 -2.1475  0.9884  0.6012
 5692TIP3   OH238490   6.556   3.167   6.091  0.2200 -0.2626 -0.0213
 5692TIP3    H138491   6.480   3.121   6.125  0.6637 -0.6881  0.4044
 5692TIP3    H238492   6.578   3.231   6.159  0.3874 -0.3081 -0.0301
 5693TIP3   OH238493   0.698   5.646   2.009 -0.2299  0.2123  0.2112
 5693TIP3    H138494   0.662   5.658   1.922 -2.0892  0.5097  0.9767
 5693TIP3    H238495   0.677   5.555   2.032  2.5427 -0.7328 -0.5979
 5694TIP3   OH238496   0.641   2.638   1.454  0.0527 -0.3700  0.8403
 5694TIP3    H138497   0.550   2.636   1.423  0.7154 -0.8315 -1.2671
 5694TIP3    H238498   0.689   2.590   1.387  1.9836  0.5992  1.4825
 5695TIP3   OH238499   0.228   2.470   3.043 -0.6900  0.2619 -0.0621
 5695TIP3    H138500   0.242   2.458   3.137 -1.1405  1.9804  0.2584
 5695TIP3    H238501   0.150   2.525   3.037 -1.2631 -0.6402 -1.4911
 5696TIP3   OH238502   3.702   3.973  14.657  0.2420 -0.3077  0.6307
 5696TIP3    H138503   3.721   3.965  14.750  1.6221  0.6839  0.4617
 5696TIP3    H238504   3.610   3.999  14.653  0.1328 -0.4945  1.6951
 5697TIP3   OH238505   2.486   6.521   2.161  0.2397  0.0483 -0.0460
 5697TIP3    H138506   2.550   6.537   2.230 -1.3902  1.0050  1.3238
 5697TIP3    H238507   2.532   6.467   2.098  1.3255 -2.3535  2.5976
 5698TIP3   OH238508   6.449   3.709  15.996 -0.6561  0.0654 -0.1921
 5698TIP3    H138509   6.458   3.632  16.051 -0.4717  1.8142  2.3800
 5698TIP3    H238510   6.534   3.752  15.998 -1.0405  0.8965 -0.7052
 5699TIP3   OH238511   1.828   4.683  12.767 -0.0151  0.2670 -0.4284
 5699TIP3    H138512   1.917   4.680  12.731 -0.5006 -0.4626 -1.6476
 5699TIP3    H238513   1.796   4.594  12.758 -0.7612  0.4497  0.3173
 5700TIP3   OH238514   6.506   5.650   3.269  0.1838 -0.4947  0.3149
 5700TIP3    H138515   6.473   5.635   3.181  0.4452 -0.5443  0.2248
 5700TIP3    H238516   6.577   5.588   3.279  1.6663  1.0180 -0.2715
 5701TIP3   OH238517   3.272   6.691   3.121 -0.2316  0.1677 -0.0093
 5701TIP3    H138518   3.358   6.725   3.146 -0.5463  1.3970 -0.5045
 5701TIP3    H238519   3.234   6.659   3.203  1.9212 -3.4864 -0.2185
 5702TIP3   OH238520   0.970   2.663   4.829  0.1905 -0.2717  0.2398
 5702TIP3    H138521   1.057   2.688   4.859  0.5556  0.3109 -1.2520
 5702TIP3    H238522   0.941   2.735   4.774 -1.1603 -0.5539  0.5231
 5703TIP3   OH238523   2.104   0.631   5.237 -0.0128 -0.1085 -0.2465
 5703TIP3    H138524   2.078   0.608   5.147  1.0812  2.3834 -1.2913
 5703TIP3    H238525   2.161   0.560   5.264  1.2620  0.0365 -2.3349
 5704TIP3   OH238526   0.581   5.589   2.911  0.1231 -0.1280 -0.2152
 5704TIP3    H138527   0.574   5.579   2.816  0.6943  0.9236 -0.3799
 5704TIP3    H238528   0.598   5.682   2.925 -2.3191  0.2144  1.0866
 5705TIP3   OH238529   1.949   1.983  11.514  0.3086  0.3364 -0.1393
 5705TIP3    H138530   1.870   1.984  11.461 -0.5198 -2.6160  0.8739
 5705TIP3    H238531   1.928   2.039  11.589 -0.7643 -0.2109 -0.0100
 5706TIP3   OH238532   0.048   4.304  12.758  0.6701 -0.2711 -0.1198
 5706TIP3    H138533  -0.028   4.359  12.737  1.0163 -0.2013 -1.2201
 5706TIP3    H238534   0.047   4.235  12.692  1.4633 -0.3739 -0.0271
 5707TIP3   OH238535   3.183   2.642   0.656 -0.1657  0.6067 -0.4334
 5707TIP3    H138536   3.174   2.573   0.590 -1.8348  1.5592 -1.2679
 5707TIP3    H238537   3.262   2.689   0.629  0.7860 -0.7215 -0.0625
 5708TIP3   OH238538   1.527   0.428  10.402  0.3887 -0.2646 -0.7152
 5708TIP3    H138539   1.527   0.333  10.410  1.1800 -0.3588 -1.6104
 5708TIP3    H238540   1.459   0.458  10.463 -0.2751 -1.4335 -0.8530
 5709TIP3   OH238541   4.770   6.274  13.550 -0.7338 -0.2187  0.7482
 5709TIP3    H138542   4.786   6.368  13.548 -1.1338 -0.0785  2.3380
 5709TIP3    H238543   4.753   6.250  13.459  1.0789  0.9185  0.0581
 5710TIP3   OH238544   6.233   0.477   3.307 -0.0347 -0.6807  0.7294
 5710TIP3    H138545   6.272   0.563   3.323 -0.6240 -0.5190  1.3324
 5710TIP3    H238546   6.305   0.416   3.317  0.3316 -0.2828  0.5638
 5711TIP3   OH238547   5.809   3.691   3.605 -0.2923 -0.0494  0.2159
 5711TIP3    H138548   5.720   3.693   3.571 -0.2167  1.1774  0.0607
 5711TIP3    H238549   5.800   3.665   3.697 -1.2670  4.1359  1.4760
 5712TIP3   OH238550   0.419   0.030  15.304 -0.2838 -0.3836 -0.2524
 5712TIP3    H138551   0.364   0.074  15.368 -0.1112 -1.9753  1.0433
 5712TIP3    H238552   0.508   0.051  15.330 -0.1336  2.5942 -2.6306
 5713TIP3   OH238553   5.340   6.443   1.199 -0.1644 -0.3905  1.3239
 5713TIP3    H138554   5.334   6.536   1.221  2.0567  0.1045  0.1486
 5713TIP3    H238555   5.256   6.422   1.158  0.0925  1.7194 -0.4666
 5714TIP3   OH238556   3.840   3.911   4.250  0.3336 -0.9672 -0.5930
 5714TIP3    H138557   3.748   3.931   4.232 -0.2199 -1.1162  1.7608
 5714TIP3    H238558   3.883   3.996   4.247 -1.0845  0.2462  4.2430
 5715TIP3   OH238559   6.349   1.805  14.629  0.2205 -0.2625  0.3843
 5715TIP3    H138560   6.337   1.770  14.541  1.7940  0.6293 -0.2174
 5715TIP3    H238561   6.268   1.854  14.646  0.5040  0.8402 -1.2009
 5716TIP3   OH238562   3.877   6.399  14.582  0.1068 -0.2906  0.2097
 5716TIP3    H138563   3.867   6.458  14.657 -0.6105  0.7658 -0.6687
 5716TIP3    H238564   3.788   6.366  14.566  0.4443 -1.3400  0.4734
 5717TIP3   OH238565   1.228   6.230   2.055 -0.2365 -0.5120 -0.5208
 5717TIP3    H138566   1.150   6.281   2.033  0.3511  0.0334 -1.3901
 5717TIP3    H238567   1.201   6.139   2.044 -0.8106 -0.3410 -0.5770
 5718TIP3   OH238568   1.804   5.133  11.501  0.0200 -0.4974  0.1256
 5718TIP3    H138569   1.780   5.055  11.451  0.3510 -0.9132  0.6129
 5718TIP3    H238570   1.770   5.117  11.589 -0.7959  0.3519 -0.0162
 5719TIP3   OH238571   0.528   3.804   3.445  0.0188  0.3963 -0.1060
 5719TIP3    H138572   0.520   3.864   3.372 -1.8233  0.6708  0.2646
 5719TIP3    H238573   0.471   3.841   3.513  0.2656 -0.7911  0.7879
 5720TIP3   OH238574   6.398   5.188  13.338 -0.3894 -0.8510 -0.0712
 5720TIP3    H138575   6.449   5.268  13.348 -0.4782 -0.8670  0.5310
 5720TIP3    H238576   6.421   5.156  13.251  2.1219 -1.9083  0.8985
 5721TIP3   OH238577   5.679   5.678   0.479 -0.0062 -0.3316  0.1491
 5721TIP3    H138578   5.757   5.625   0.497  1.1642  1.2726  0.0661
 5721TIP3    H238579   5.660   5.720   0.563 -0.6157 -0.5008  0.0959
 5722TIP3   OH238580   5.386   2.623   3.151  0.2375  0.2953  0.6501
 5722TIP3    H138581   5.367   2.536   3.114  0.8842 -0.4273  1.9342
 5722TIP3    H238582   5.334   2.626   3.231  1.4652  0.4074  1.4689
 5723TIP3   OH238583   6.236   2.615   4.064  0.2860 -0.2170  0.3427
 5723TIP3    H138584   6.203   2.533   4.101  1.5172 -1.1739 -0.5868
 5723TIP3    H238585   6.161   2.652   4.017 -0.8059  0.1466  2.2278
 5724TIP3   OH238586   1.124   2.492   2.491 -0.3865 -0.0366 -0.0992
 5724TIP3    H138587   1.047   2.489   2.547 -0.3426  3.3482  0.3488
 5724TIP3    H238588   1.183   2.427   2.527 -2.0798 -1.0017  1.0443
 5725TIP3   OH238589   5.039   0.854  11.585 -0.0008  0.3262  0.4175
 5725TIP3    H138590   5.087   0.869  11.667  1.2071 -1.1736  0.0235
 5725TIP3    H238591   5.101   0.877  11.516  0.2700 -1.7996 -0.1065
 5726TIP3   OH238592   2.393   0.567   3.453 -0.4701  0.8024 -0.2783
 5726TIP3    H138593   2.317   0.607   3.412 -1.2667 -1.2083 -0.8741
 5726TIP3    H238594   2.464   0.581   3.391 -0.9600  0.4660 -0.9293
 5727TIP3   OH238595   3.596   0.765   2.480 -0.2446 -0.3800  0.0237
 5727TIP3    H138596   3.627   0.847   2.519 -1.4612  0.1976 -0.1563
 5727TIP3    H238597   3.650   0.753   2.402 -0.8128  0.9097 -0.6064
 5728TIP3   OH238598   0.910   0.157  11.332 -0.8559  0.4308 -0.3289
 5728TIP3    H138599   0.942   0.139  11.420 -2.2214  1.3804  0.3956
 5728TIP3    H238600   0.969   0.225  11.299 -2.0175  2.1672  0.9974
 5729TIP3   OH238601   6.364   3.291  13.432  0.3159 -0.6493 -0.4488
 5729TIP3    H138602   6.298   3.344  13.477  0.6992 -2.4528  2.5052
 5729TIP3    H238603   6.425   3.355  13.394 -0.3914  1.0391  1.1154
 5730TIP3   OH238604   6.289   5.142   0.227  0.1277 -0.3197  0.6645
 5730TIP3    H138605   6.259   5.152   0.137  1.6211 -0.3210  0.1380
 5730TIP3    H238606   6.208   5.138   0.279 -0.7644 -0.8681 -0.7106
 5731TIP3   OH238607   4.654   1.082  15.928  0.3915  0.0466 -0.3210
 5731TIP3    H138608   4.609   1.081  15.843 -0.4442  0.3449  0.1049
 5731TIP3    H238609   4.638   1.169  15.962  1.5902  0.2731 -0.2911
 5732TIP3   OH238610   5.763   1.106   0.786 -0.5010 -0.2064 -0.0385
 5732TIP3    H138611   5.795   1.019   0.809  0.5769  0.2534  0.2379
 5732TIP3    H238612   5.676   1.090   0.749 -0.5119 -1.3534  0.4343
 5733TIP3   OH238613   5.762   0.155  14.739  0.2425  0.4169  0.3784
 5733TIP3    H138614   5.689   0.095  14.753 -0.5767  1.3363  0.1223
 5733TIP3    H238615   5.751   0.187  14.650  2.9949 -2.1151 -1.0779
 5734TIP3   OH238616   0.992   0.574   2.476 -0.4949 -0.4843  0.4779
 5734TIP3    H138617   1.086   0.570   2.492 -0.2371  3.2057  0.8116
 5734TIP3    H238618   0.984   0.579   2.380 -0.2225  0.2830  0.4852
 5735TIP3   OH238619   2.448   0.688   4.348  0.0724 -0.1734  0.0206
 5735TIP3    H138620   2.516   0.751   4.370  0.4357 -0.3265 -0.6496
 5735TIP3    H238621   2.479   0.645   4.268 -0.4859 -0.7267  0.0905
 5736TIP3   OH238622   4.589   6.242  11.946  0.2208 -0.0644 -0.1556
 5736TIP3    H138623   4.607   6.259  11.853  1.0760  0.1015  0.0365
 5736TIP3    H238624   4.627   6.316  11.992 -0.6130  0.0865  0.3033
 5737TIP3   OH238625   2.141   0.484  14.274 -0.2382  0.0316  0.5157
 5737TIP3    H138626   2.155   0.546  14.346 -0.9070 -0.7445  1.3285
 5737TIP3    H238627   2.229   0.457  14.249  0.0530  1.1058  0.3150
 5738TIP3   OH238628   5.004   2.445  17.052 -0.5012 -0.2195  0.7530
 5738TIP3    H138629   4.927   2.500  17.066 -0.7167 -0.3238  0.0083
 5738TIP3    H238630   4.985   2.397  16.971  1.2434  1.3396 -0.6679
 5739TIP3   OH238631   3.560   2.458   0.441  0.0738  0.4660 -0.1637
 5739TIP3    H138632   3.502   2.524   0.403 -0.6153  0.4580  0.8193
 5739TIP3    H238633   3.556   2.476   0.535  0.0184 -0.8677  0.0973
 5740TIP3   OH238634   4.026   5.478  13.981 -0.1021 -0.4487  0.7205
 5740TIP3    H138635   3.943   5.442  14.012 -1.8277  1.0331 -1.8076
 5740TIP3    H238636   4.049   5.424  13.905  1.1252 -0.6267  1.1868
 5741TIP3   OH238637   3.386   1.755   2.734 -0.2080  0.0843  0.1921
 5741TIP3    H138638   3.478   1.733   2.749  0.2722 -1.6739 -3.9893
 5741TIP3    H238639   3.387   1.848   2.710  0.8480 -0.2982 -1.4485
 5742TIP3   OH238640   3.865   2.499  14.991  0.6666  0.3575  0.7354
 5742TIP3    H138641   3.929   2.440  14.952  2.1312  3.2448 -1.5864
 5742TIP3    H238642   3.781   2.455  14.977  1.3997 -0.0851 -3.3950
 5743TIP3   OH238643   0.808   3.433  16.946 -0.5380 -0.2464 -0.0620
 5743TIP3    H138644   0.724   3.465  16.913 -0.8423 -1.4020 -0.4524
 5743TIP3    H238645   0.787   3.388  17.028 -0.2181 -0.0403  0.1349
 5744TIP3   OH238646   2.411   2.838  15.712 -0.2126  0.4050  0.4740
 5744TIP3    H138647   2.374   2.782  15.780 -1.7638  0.9975  0.1568
 5744TIP3    H238648   2.335   2.871  15.664  0.7380  1.5927 -0.2759
 5745TIP3   OH238649   2.981   2.491  16.478 -0.3061 -0.0742  0.4983
 5745TIP3    H138650   2.953   2.406  16.511 -0.5491 -0.8183 -1.4605
 5745TIP3    H238651   2.928   2.505  16.400 -0.0443  1.7524  0.5954
 5746TIP3   OH238652   5.807   6.573   5.432 -0.0591  0.3485 -0.5869
 5746TIP3    H138653   5.776   6.486   5.457  1.0449 -0.2645 -1.2312
 5746TIP3    H238654   5.811   6.570   5.336  0.3651  0.9666 -0.5968
 5747TIP3   OH238655   0.771   1.388   5.786  0.1017 -0.2948 -0.0304
 5747TIP3    H138656   0.819   1.306   5.800  1.1687  0.1679 -0.8497
 5747TIP3    H238657   0.771   1.431   5.872  0.3172 -0.7461  0.1950
 5748TIP3   OH238658   3.115   0.971  14.993  0.4850 -0.3927 -0.2585
 5748TIP3    H138659   3.077   0.980  14.906  0.2214  1.9852  0.0568
 5748TIP3    H238660   3.127   0.876  15.004 -0.8980 -0.8503 -2.2443
 5749TIP3   OH238661   3.911   2.544   2.394  0.1939  0.0097  0.7569
 5749TIP3    H138662   3.936   2.572   2.481 -1.8156 -2.1952  2.1778
 5749TIP3    H238663   3.834   2.488   2.408  0.8997 -1.9564 -2.2344
 5750TIP3   OH238664   2.291   5.864   3.035  0.1200  0.2553 -0.2349
 5750TIP3    H138665   2.316   5.838   3.124 -1.9231 -0.2131  0.2495
 5750TIP3    H238666   2.315   5.956   3.029  1.1905  0.0432  0.4328
 5751TIP3   OH238667   5.125   1.682  14.235  0.1432 -0.1398  0.4774
 5751TIP3    H138668   5.149   1.691  14.142 -0.2020 -1.6483  0.2054
 5751TIP3    H238669   5.037   1.718  14.240 -0.6753 -1.9063 -0.2626
 5752TIP3   OH238670   1.193   4.885  16.412 -1.1475  0.0730 -0.3851
 5752TIP3    H138671   1.189   4.816  16.478 -1.8513  0.6628  0.2076
 5752TIP3    H238672   1.195   4.966  16.463  2.0604  0.5013 -0.9636
 5753TIP3   OH238673   2.930   3.140   5.656 -0.2731 -0.9510 -0.4199
 5753TIP3    H138674   2.983   3.164   5.580 -0.8801 -1.2552 -0.9551
 5753TIP3    H238675   2.875   3.216   5.672 -0.9888 -1.3199 -1.0467
 5754TIP3   OH238676   4.567   6.512   3.478  0.0211 -0.1586 -0.2246
 5754TIP3    H138677   4.584   6.492   3.570 -1.1210 -2.3797 -0.4318
 5754TIP3    H238678   4.480   6.552   3.477 -0.2677 -0.7772 -0.3831
 5755TIP3   OH238679   6.028   2.157   0.227  0.2457  0.2700  0.4221
 5755TIP3    H138680   6.118   2.170   0.198  0.6189  1.2803  1.9147
 5755TIP3    H238681   5.990   2.245   0.228 -0.5900 -0.0839  0.3093
 5756TIP3   OH238682   0.195   1.239   3.396  0.1802  0.2238  0.4452
 5756TIP3    H138683   0.140   1.161   3.402 -1.0837  0.8478 -1.7002
 5756TIP3    H238684   0.141   1.309   3.431 -0.0757  0.6771 -0.7882
 5757TIP3   OH238685   5.581   6.729  10.827  0.4567 -0.1227  0.4070
 5757TIP3    H138686   5.590   6.815  10.868  0.5113 -0.7358  1.7416
 5757TIP3    H238687   5.609   6.667  10.895 -0.3538 -1.2362 -0.2400
 5758TIP3   OH238688   0.962   2.155  12.929  0.1886 -0.5252 -0.0638
 5758TIP3    H138689   1.000   2.237  12.898  0.2791 -0.2861  0.6613
 5758TIP3    H238690   1.033   2.092  12.925  0.3473 -0.3605  0.1956
 5759TIP3   OH238691   1.468   4.270   3.781  0.1792  0.4000  0.2700
 5759TIP3    H138692   1.486   4.364   3.787 -0.6451  0.5336  0.8463
 5759TIP3    H238693   1.420   4.249   3.862  1.6767 -0.8400  0.8977
 5760TIP3   OH238694   4.052   3.326  13.333 -0.1884 -0.1163 -0.3606
 5760TIP3    H138695   3.976   3.267  13.330 -0.1971 -0.1416  0.2329
 5760TIP3    H238696   4.023   3.398  13.388 -0.6857  1.1821 -2.2425
 5761TIP3   OH238697   3.801   6.116  16.756  0.0242 -0.1842  0.9502
 5761TIP3    H138698   3.861   6.057  16.711  0.1179  0.0296  0.7923
 5761TIP3    H238699   3.810   6.095  16.849 -0.9376 -1.3686  0.8122
 5762TIP3   OH238700   4.408   1.169  14.006 -0.5280  0.6005  0.7474
 5762TIP3    H138701   4.399   1.186  13.913  0.9481  0.2023  0.5102
 5762TIP3    H238702   4.319   1.147  14.035 -0.6469 -1.8253 -1.0907
 5763TIP3   OH238703   4.937   3.106  14.235  0.4166  0.4405  0.4381
 5763TIP3    H138704   4.979   3.025  14.206  0.1290 -0.3594  2.1150
 5763TIP3    H238705   4.846   3.082  14.249  0.6253  0.6365  2.3594
 5764TIP3   OH238706   6.014   5.359   5.726  0.8899 -0.2650 -0.3782
 5764TIP3    H138707   6.030   5.438   5.674  1.1267 -0.5209 -0.7015
 5764TIP3    H238708   5.920   5.344   5.719  0.4477  1.2633  1.5442
 5765TIP3   OH238709   4.262   1.290   6.071  0.2458 -0.0410 -0.6684
 5765TIP3    H138710   4.181   1.249   6.100  1.0073 -0.8723  0.3332
 5765TIP3    H238711   4.320   1.217   6.050  0.7540  0.5462 -1.3659
 5766TIP3   OH238712   3.521   5.454  16.068  0.3040 -0.0606 -0.1781
 5766TIP3    H138713   3.547   5.433  15.978 -1.3099  0.3250 -0.7611
 5766TIP3    H238714   3.602   5.443  16.119  1.0494 -1.1362 -1.5205
 5767TIP3   OH238715   3.051   4.563  14.187  0.2303 -0.1217  0.2042
 5767TIP3    H138716   3.083   4.645  14.224  1.6207 -0.5507  0.0442
 5767TIP3    H238717   2.997   4.525  14.257  0.4137  0.4440  0.6646
 5768TIP3   OH238718   2.053   2.527  16.561  0.4617 -0.1204 -0.2805
 5768TIP3    H138719   2.051   2.613  16.519  0.5046 -0.5847 -1.2689
 5768TIP3    H238720   2.070   2.466  16.489 -0.4386 -1.0405  0.2580
 5769TIP3   OH238721   3.694   1.214   4.264 -0.6107 -0.1096  0.5985
 5769TIP3    H138722   3.688   1.129   4.220  1.2770 -0.2648  0.5412
 5769TIP3    H238723   3.697   1.192   4.357 -0.2544 -0.0955  0.5904
 5770TIP3   OH238724   2.371   5.105  12.392  0.5459 -0.7217  0.2777
 5770TIP3    H138725   2.459   5.073  12.411  0.8796 -0.3926 -0.6596
 5770TIP3    H238726   2.356   5.173  12.457  1.8015  0.6294 -0.7807
 5771TIP3   OH238727   4.080   3.127  14.047 -0.5683  0.2732  0.2370
 5771TIP3    H138728   4.097   3.060  13.980 -1.4623 -0.2045  0.4700
 5771TIP3    H238729   4.019   3.188  14.006 -1.2315 -0.0976  0.6464
 5772TIP3   OH238730   3.240   1.239  14.234 -0.0422  0.5319  0.2534
 5772TIP3    H138731   3.271   1.282  14.314 -1.8276  1.1633  0.6443
 5772TIP3    H238732   3.299   1.270  14.166  0.6922  1.0386  1.0972
 5773TIP3   OH238733   1.776   5.504  15.296  0.5915 -0.1789 -0.1804
 5773TIP3    H138734   1.730   5.456  15.228 -0.7237 -0.6482  0.9870
 5773TIP3    H238735   1.820   5.437  15.349 -0.5057 -0.0683  0.9192
 5774TIP3   OH238736   6.761   4.242  15.129  0.2081 -0.2852 -0.3714
 5774TIP3    H138737   6.699   4.205  15.192 -0.7268  0.0201 -1.0998
 5774TIP3    H238738   6.826   4.173  15.115 -0.1524 -0.7321  0.1360
 5775TIP3   OH238739   4.273   0.449   0.661  0.6006 -0.0675  0.2286
 5775TIP3    H138740   4.363   0.438   0.691  0.5274  1.2202  1.0188
 5775TIP3    H238741   4.272   0.534   0.617 -0.0152 -0.5281 -0.7002
 5776TIP3   OH238742   1.181   0.370  13.704  0.0899  0.1085  0.2849
 5776TIP3    H138743   1.205   0.365  13.797  1.8272  1.5893 -0.0401
 5776TIP3    H238744   1.160   0.279  13.681  2.2026 -0.7614  1.4820
 5777TIP3   OH238745   0.264   4.202   4.286 -0.4274  0.1982  0.5861
 5777TIP3    H138746   0.292   4.198   4.378  0.5526 -0.7202  0.2652
 5777TIP3    H238747   0.341   4.174   4.236 -0.6366  1.5989 -0.5858
 5778TIP3   OH238748   5.241   0.848  11.384  0.7121  0.0221 -0.2074
 5778TIP3    H138749   5.300   0.875  11.455  0.2862 -0.7136  0.4513
 5778TIP3    H238750   5.201   0.929  11.354  0.0684  0.2608  1.1817
 5779TIP3   OH238751   2.268   1.448   1.249 -0.0347 -0.0234 -0.2898
 5779TIP3    H138752   2.274   1.390   1.172  1.5903 -0.2319 -0.0520
 5779TIP3    H238753   2.354   1.441   1.290 -0.7301  0.4482  1.3053
 5780TIP3   OH238754   6.283   4.157   5.119  0.2841 -0.2317  1.0595
 5780TIP3    H138755   6.277   4.221   5.048 -0.4457 -1.5854 -0.1503
 5780TIP3    H238756   6.367   4.175   5.160 -0.5814  2.5224  1.8071
 5781TIP3   OH238757   3.592   6.505  16.449 -0.0037 -0.0778  0.6619
 5781TIP3    H138758   3.527   6.566  16.482 -1.2748 -0.7515 -0.5197
 5781TIP3    H238759   3.546   6.452  16.385  1.5512 -1.0148  0.2504
 5782TIP3   OH238760   2.230   0.251   1.500 -0.5551  0.2663  0.1309
 5782TIP3    H138761   2.260   0.160   1.506 -1.1822  0.0493  0.1035
 5782TIP3    H238762   2.306   0.300   1.468 -0.5233 -0.4251 -0.8988
 5783TIP3   OH238763   4.140   1.148   2.799  0.1161  0.5717 -0.3088
 5783TIP3    H138764   4.129   1.093   2.876 -1.7501  3.1238  1.4320
 5783TIP3    H238765   4.063   1.130   2.745 -0.3244  1.1788  0.1021
 5784TIP3   OH238766   3.838   4.774  11.148 -0.1445 -0.5160  0.1323
 5784TIP3    H138767   3.800   4.852  11.187  0.5195 -1.0278  1.8731
 5784TIP3    H238768   3.878   4.727  11.221 -0.2890 -2.3526 -0.8998
 5785TIP3   OH238769   4.845   5.814   3.003 -0.6862  0.1502  0.1059
 5785TIP3    H138770   4.833   5.766   3.085  0.0927 -1.6677 -0.7863
 5785TIP3    H238771   4.940   5.815   2.989 -0.7447  1.3033 -0.2941
 5786TIP3   OH238772   6.616   4.212  13.754 -0.4865  0.1069 -0.3072
 5786TIP3    H138773   6.643   4.176  13.669 -2.4265  0.1869 -0.9985
 5786TIP3    H238774   6.616   4.136  13.813 -0.9636 -0.3280 -0.8550
 5787TIP3   OH238775   1.738   1.601   4.971 -0.1925  0.4196  0.1077
 5787TIP3    H138776   1.712   1.642   4.888  0.2683 -0.8768 -0.7048
 5787TIP3    H238777   1.809   1.656   5.003  0.5245  0.2126 -1.0481
 5788TIP3   OH238778   6.101   5.559   5.550  0.1222  0.2470 -0.5609
 5788TIP3    H138779   6.184   5.525   5.584 -0.6812  0.2300  1.5091
 5788TIP3    H238780   6.127   5.611   5.474  1.8651 -0.9670 -0.8782
 5789TIP3   OH238781   1.844   4.406  15.188 -0.2963 -1.0106 -0.3918
 5789TIP3    H138782   1.827   4.464  15.263  2.8505  1.6517 -1.4907
 5789TIP3    H238783   1.910   4.345  15.219  2.4948  1.3306 -1.3020
 5790TIP3   OH238784   1.769   2.790   1.964  0.3305 -0.4542 -0.0977
 5790TIP3    H138785   1.715   2.711   1.965 -0.4245  0.0560  1.0468
 5790TIP3    H238786   1.844   2.768   2.019 -0.1342 -0.2209  0.6459
 5791TIP3   OH238787   3.494   6.724  15.748 -0.3374  0.2789 -0.0660
 5791TIP3    H138788   3.503   6.630  15.760 -0.5070  0.4199  1.2940
 5791TIP3    H238789   3.577   6.760  15.779 -0.3628  0.6028 -0.3670
 5792TIP3   OH238790   1.326   2.007  10.221 -0.5613  0.1845 -0.0874
 5792TIP3    H138791   1.336   2.098  10.247 -1.3044  0.6413 -1.3560
 5792TIP3    H238792   1.301   1.962  10.302 -2.2297  1.4734  0.1626
 5793TIP3   OH238793   0.725   0.764  15.153  0.4373  0.1350  0.1356
 5793TIP3    H138794   0.677   0.683  15.138 -0.8965  1.0921 -1.1273
 5793TIP3    H238795   0.712   0.815  15.072  1.9031  1.2844  0.5636
 5794TIP3   OH238796   2.749   4.789   4.405 -0.6886  0.4677 -0.0482
 5794TIP3    H138797   2.841   4.761   4.409 -0.1923  1.3724 -2.6667
 5794TIP3    H238798   2.744   4.862   4.466 -0.3648 -1.1684  2.0259
 5795TIP3   OH238799   6.061   1.541  12.720 -0.6874  0.1515 -0.4133
 5795TIP3    H138800   6.062   1.624  12.673  0.9499 -0.3058 -1.2340
 5795TIP3    H238801   6.100   1.560  12.804  1.0392 -0.0516 -1.1358
 5796TIP3   OH238802   4.791   6.676   4.529  0.1373 -0.1831  0.7046
 5796TIP3    H138803   4.755   6.626   4.455  0.1134  0.4279  0.3033
 5796TIP3    H238804   4.822   6.757   4.491 -1.4718  0.9174  1.6263
 5797TIP3   OH238805   1.794   1.809  10.471 -0.0633 -0.7621 -0.2428
 5797TIP3    H138806   1.757   1.889  10.509 -0.5807 -1.7673  1.4588
 5797TIP3    H238807   1.888   1.828  10.463 -0.2498  0.1776 -0.3161
 5798TIP3   OH238808   3.368   4.684  12.052 -0.1948  0.8021  0.1663
 5798TIP3    H138809   3.410   4.615  12.000  0.2958  0.8896  0.4473
 5798TIP3    H238810   3.290   4.708  12.001 -0.6611 -0.3303  0.3152
 5799TIP3   OH238811   1.929   5.662  13.747  0.2923 -0.1910 -0.2598
 5799TIP3    H138812   1.999   5.630  13.804  0.6025  0.8042 -0.0695
 5799TIP3    H238813   1.868   5.705  13.807 -0.6163 -1.2539 -0.3960
 5800TIP3   OH238814   3.383   4.693   2.078 -0.3174  0.1792  0.1716
 5800TIP3    H138815   3.306   4.690   2.022  0.4639  1.2052 -1.0029
 5800TIP3    H238816   3.405   4.786   2.084  0.4392 -0.0380  1.0394
 5801TIP3   OH238817   2.694   0.488   2.270  0.3140  0.0122  0.8483
 5801TIP3    H138818   2.764   0.544   2.303  3.8192 -1.0366 -3.7217
 5801TIP3    H238819   2.645   0.544   2.210  0.5103 -0.4581  0.2360
 5802TIP3   OH238820   6.474   4.969   3.250  0.1209 -0.1675  0.3301
 5802TIP3    H138821   6.449   5.060   3.232 -2.7187 -1.0615 -0.7929
 5802TIP3    H238822   6.396   4.929   3.288  1.9038 -1.7300  2.6334
 5803TIP3   OH238823   1.757   4.212   4.409  0.7381 -0.0343  0.1794
 5803TIP3    H138824   1.699   4.200   4.334 -0.8644  0.0749  1.3617
 5803TIP3    H238825   1.751   4.129   4.457 -0.3203  0.7919  1.5500
 5804TIP3   OH238826   1.241   2.954  15.946  1.0033  0.2920  0.5034
 5804TIP3    H138827   1.301   3.000  16.005 -0.9169  1.8418  1.3758
 5804TIP3    H238828   1.158   2.952  15.993  0.1387 -1.0605 -0.9786
 5805TIP3   OH238829   0.533   3.053   2.068 -0.2629  0.6338 -0.4700
 5805TIP3    H138830   0.557   2.961   2.053  2.2590  1.3830 -1.4268
 5805TIP3    H238831   0.484   3.078   1.990 -0.0644  0.4002 -0.6693
 5806TIP3   OH238832   4.554   3.371  11.767 -0.5737  0.0471  1.1962
 5806TIP3    H138833   4.547   3.284  11.729 -2.4320  0.4090  0.6032
 5806TIP3    H238834   4.613   3.419  11.708 -0.2609 -0.5521  1.0219
 5807TIP3   OH238835   0.332   0.190   6.515 -0.3444 -0.0251 -0.4259
 5807TIP3    H138836   0.273   0.225   6.449 -0.3402 -2.6335 -1.9911
 5807TIP3    H238837   0.280   0.125   6.562  0.7871 -1.3424 -0.8829
 5808TIP3   OH238838   1.866   3.206   1.773  0.2412  0.0826  0.6586
 5808TIP3    H138839   1.807   3.150   1.824  1.4809 -2.6132 -0.6934
 5808TIP3    H238840   1.945   3.212   1.826  0.0977  0.6496  0.8199
 5809TIP3   OH238841   1.908   4.054   3.554 -0.1774  0.0370  0.3056
 5809TIP3    H138842   1.816   4.042   3.579 -0.1795 -0.6712 -0.0198
 5809TIP3    H238843   1.905   4.067   3.459  0.0634 -0.0684  0.2840
 5810TIP3   OH238844   5.026   4.025  15.456  0.0919  0.2191 -0.1903
 5810TIP3    H138845   4.981   3.978  15.526 -0.1553  0.7295  0.0001
 5810TIP3    H238846   5.083   4.088  15.501  0.5368  0.0012 -0.4372
 5811TIP3   OH238847   3.414   3.324   3.658  0.1346  0.4779 -0.7224
 5811TIP3    H138848   3.382   3.406   3.697 -0.9569 -0.0779 -0.4306
 5811TIP3    H238849   3.508   3.340   3.645  0.1623  1.3628  0.3880
 5812TIP3   OH238850   3.258   2.955   0.937 -0.0906 -0.0650  0.4421
 5812TIP3    H138851   3.253   3.041   0.895  0.6493 -1.0427 -1.7944
 5812TIP3    H238852   3.318   2.968   1.010 -0.8430  1.5346  0.8376
 5813TIP3   OH238853   0.570   1.396   4.365  0.2143 -0.2412 -0.1213
 5813TIP3    H138854   0.524   1.478   4.384  1.4652  0.7249 -1.0746
 5813TIP3    H238855   0.557   1.342   4.443 -0.9891  0.6939  0.3550
 5814TIP3   OH238856   5.410   2.495  12.546  0.2997 -0.6410  0.2551
 5814TIP3    H138857   5.361   2.489  12.464 -1.2875  3.3967  0.6449
 5814TIP3    H238858   5.367   2.432  12.604 -1.5817 -0.3798 -0.7629
 5815TIP3   OH238859   3.885   3.440  10.321  0.3037 -0.1704 -0.2311
 5815TIP3    H138860   3.913   3.363  10.370 -0.3494  1.3503  2.8066
 5815TIP3    H238861   3.892   3.415  10.229  1.0417 -3.4703  0.6107
 5816TIP3   OH238862   0.533   4.266   2.841 -0.3515  0.1244 -0.5965
 5816TIP3    H138863   0.583   4.311   2.773 -1.1592 -0.2319 -1.4423
 5816TIP3    H238864   0.581   4.284   2.922  1.0045 -0.0063 -1.3448
 5817TIP3   OH238865   4.996   2.067   2.852 -0.5596  0.0030  0.4071
 5817TIP3    H138866   5.032   2.103   2.933 -2.6310 -0.9880  1.8809
 5817TIP3    H238867   5.034   2.120   2.782  1.1744  1.0017  2.0203
 5818TIP3   OH238868   2.263   3.092  14.459  0.1453 -0.3641  0.4595
 5818TIP3    H138869   2.312   3.067  14.380 -1.8232 -1.1753 -0.5819
 5818TIP3    H238870   2.211   3.014  14.479 -2.1009  1.0354  0.3783
 5819TIP3   OH238871   3.255   1.041  16.364  0.5480 -0.0413  0.0134
 5819TIP3    H138872   3.287   1.119  16.410  0.3872 -0.3468  0.6550
 5819TIP3    H238873   3.246   0.975  16.432  0.8103 -0.6684 -0.5519
 5820TIP3   OH238874   1.373   5.896   2.355 -0.1432  0.6201 -0.0414
 5820TIP3    H138875   1.296   5.871   2.405 -0.1385 -1.6935 -1.0350
 5820TIP3    H238876   1.342   5.905   2.265  0.7585 -0.6835 -0.5114
 5821TIP3   OH238877   0.995   0.336  15.580 -0.1427  0.1392 -0.0597
 5821TIP3    H138878   0.961   0.304  15.663 -0.2895  0.5859  0.0509
 5821TIP3    H238879   1.075   0.284  15.566 -1.9835 -2.5762 -1.4382
 5822TIP3   OH238880   5.631   6.112  10.717  0.1472 -0.2503 -0.2286
 5822TIP3    H138881   5.635   6.202  10.748  1.2560 -0.8991  1.6970
 5822TIP3    H238882   5.688   6.110  10.640 -0.1203  0.7326 -0.4625
 5823TIP3   OH238883   4.280   3.741  16.121 -0.3208 -0.6525 -0.0858
 5823TIP3    H138884   4.368   3.713  16.094 -0.0799  0.3714 -0.4143
 5823TIP3    H238885   4.261   3.816  16.065 -1.6925 -1.2557 -0.4860
 5824TIP3   OH238886   1.447   5.154  13.077  0.2953  0.0684  0.3509
 5824TIP3    H138887   1.411   5.243  13.076  0.3434  0.0894 -0.7769
 5824TIP3    H238888   1.385   5.103  13.026  0.9518 -0.2724 -0.1106
 5825TIP3   OH238889   0.731   0.731   4.122  0.6237  0.2308 -0.5909
 5825TIP3    H138890   0.722   0.827   4.124 -1.1826  0.0912 -0.5430
 5825TIP3    H238891   0.738   0.710   4.030 -1.1202  0.2827 -0.7701
 5826TIP3   OH238892   1.726   4.657   3.680  0.1960 -0.6307 -0.1861
 5826TIP3    H138893   1.641   4.628   3.647 -0.3466 -1.0512  1.4777
 5826TIP3    H238894   1.738   4.745   3.644 -0.3908 -1.0234 -1.3714
 5827TIP3   OH238895   2.414   2.955  14.729 -0.0024 -0.0473  0.3337
 5827TIP3    H138896   2.418   2.869  14.772 -5.4453 -0.2798  1.0909
 5827TIP3    H238897   2.380   3.014  14.796 -1.5114  1.4006 -1.5803
 5828TIP3   OH238898   5.299   2.900   2.920 -0.3474  0.1220  0.1335
 5828TIP3    H138899   5.284   2.885   2.826 -3.0582 -1.9246  0.7632
 5828TIP3    H238900   5.391   2.877   2.933  0.2393  0.9498 -2.0671
 5829TIP3   OH238901   2.207   1.067   4.862  0.7884  0.0270  0.1567
 5829TIP3    H138902   2.237   1.132   4.925  1.5269 -1.2818  1.2162
 5829TIP3    H238903   2.142   1.016   4.910 -1.1104  1.0350 -1.2195
 5830TIP3   OH238904   0.860   4.467  10.730 -0.4325  0.2725 -0.1069
 5830TIP3    H138905   0.937   4.413  10.713 -0.7432  0.2507 -1.4900
 5830TIP3    H238906   0.786   4.413  10.701 -0.8640  0.8234 -0.0361
 5831TIP3   OH238907   1.197   4.021  14.844  0.1091  0.2727 -1.3720
 5831TIP3    H138908   1.139   3.982  14.778 -0.7312  0.6719 -0.8865
 5831TIP3    H238909   1.260   4.072  14.794  0.2635 -0.4411 -1.9268
 5832TIP3   OH238910   3.936   4.384   1.121  0.2878 -0.3495  0.2555
 5832TIP3    H138911   3.953   4.298   1.161  3.4154 -0.8347 -1.7153
 5832TIP3    H238912   3.987   4.445   1.173  2.1840 -0.5755 -1.2103
 5833TIP3   OH238913   6.191   1.113  14.318  0.2904  0.3995  0.2362
 5833TIP3    H138914   6.238   1.068  14.248 -0.1459 -0.3362  0.4004
 5833TIP3    H238915   6.168   1.198  14.281 -2.0573 -0.8435 -1.4403
 5834TIP3   OH238916   1.146   1.869   3.334  0.2680  0.3012 -0.5865
 5834TIP3    H138917   1.110   1.874   3.423  0.5676  0.8627 -0.4931
 5834TIP3    H238918   1.076   1.829   3.283 -0.5217  1.4196 -0.4152
 5835TIP3   OH238919   1.022   0.022  13.830  0.3571  0.0960  0.4266
 5835TIP3    H138920   0.993  -0.048  13.771  1.0920  1.8030 -2.1289
 5835TIP3    H238921   0.941   0.059  13.865 -0.5074  1.8760 -3.0774
 5836TIP3   OH238922   1.803   6.772  15.472  0.4173  0.0705 -0.0611
 5836TIP3    H138923   1.893   6.763  15.504  0.1743 -1.4727  0.2826
 5836TIP3    H238924   1.763   6.835  15.532  0.8480 -0.3907  0.7328
 5837TIP3   OH238925   3.766   0.788  13.761 -0.1321  0.1420 -0.4136
 5837TIP3    H138926   3.743   0.853  13.694 -1.3931 -1.3757 -1.5434
 5837TIP3    H238927   3.860   0.776  13.751 -0.1659  0.5532 -1.3637
 5838TIP3   OH238928   5.276   0.462   5.306 -0.1660 -0.3769 -0.0519
 5838TIP3    H138929   5.261   0.385   5.251 -1.5174 -0.3618  0.2759
 5838TIP3    H238930   5.213   0.526   5.275 -0.2387 -0.0095  0.8417
 5839TIP3   OH238931   1.462   5.010   2.691  0.3030 -0.3554  0.0950
 5839TIP3    H138932   1.490   5.079   2.630 -0.9454 -1.5713 -1.9801
 5839TIP3    H238933   1.508   4.932   2.661 -0.3625 -0.9901  0.7015
 5840TIP3   OH238934   1.517   0.062  13.303 -0.2819  0.5167 -0.0078
 5840TIP3    H138935   1.546   0.028  13.219  0.6860 -0.2618  0.6234
 5840TIP3    H238936   1.591   0.049  13.361 -0.7769  1.4466  0.8748
 5841TIP3   OH238937   3.812   6.208  11.969 -0.0759 -0.0606 -0.1777
 5841TIP3    H138938   3.787   6.300  11.964 -2.9199 -0.7036  0.8151
 5841TIP3    H238939   3.838   6.194  12.060 -1.4567 -0.6241  0.1484
 5842TIP3   OH238940   3.808   0.538   0.849 -0.0164 -0.5722  0.4158
 5842TIP3    H138941   3.811   0.577   0.761 -1.5936 -2.1286 -0.3982
 5842TIP3    H238942   3.891   0.490   0.856  0.9166  0.9823  0.5268
 5843TIP3   OH238943   5.067   4.409  11.464 -0.6096  0.0945 -0.3619
 5843TIP3    H138944   5.091   4.331  11.515  0.6045  0.1599 -0.7946
 5843TIP3    H238945   4.974   4.399  11.447 -0.1671 -2.1230 -1.8430
 5844TIP3   OH238946   1.362   2.709   0.974  0.1448  0.4938  0.2659
 5844TIP3    H138947   1.294   2.720   1.040  0.5673 -1.7841  1.1927
 5844TIP3    H238948   1.322   2.738   0.893 -1.9976 -0.7981  0.7862
 5845TIP3   OH238949   2.539   6.593   0.304  0.2896  0.1163  0.3823
 5845TIP3    H138950   2.447   6.569   0.319  0.1906  0.7037  0.7474
 5845TIP3    H238951   2.564   6.542   0.227  0.1751 -1.3388  1.2745
 5846TIP3   OH238952   3.923   5.031  17.021 -0.1830 -0.2255  0.0369
 5846TIP3    H138953   3.952   5.031  17.112  1.6741 -0.0633 -0.5184
 5846TIP3    H238954   3.980   4.968  16.978  2.7401  3.4170 -2.0435
 5847TIP3   OH238955   6.808   3.250   2.604 -0.0606  0.2341 -0.5582
 5847TIP3    H138956   6.785   3.231   2.513 -1.4066 -1.2571  0.0481
 5847TIP3    H238957   6.863   3.328   2.599 -2.1149  1.6940 -2.4865
 5848TIP3   OH238958   1.090   1.332   6.595  0.3416 -0.4192 -0.5638
 5848TIP3    H138959   1.114   1.265   6.659 -0.1727 -0.0119  0.0548
 5848TIP3    H238960   1.013   1.296   6.550  0.0013 -0.1989 -0.1590
 5849TIP3   OH238961   2.718   2.380  12.193  0.3036 -0.6229 -0.3676
 5849TIP3    H138962   2.678   2.294  12.201 -0.7508 -0.1516 -0.3859
 5849TIP3    H238963   2.791   2.379  12.255 -0.6990 -0.9660  0.8369
 5850TIP3   OH238964   2.243   0.959  12.044  0.1624  0.6114  0.5223
 5850TIP3    H138965   2.297   1.037  12.054  0.6680  0.1509  1.5568
 5850TIP3    H238966   2.177   0.966  12.112  0.1100  0.2194  0.5161
 5851TIP3   OH238967   1.271   3.534  16.941  0.0207 -0.2890  0.4580
 5851TIP3    H138968   1.324   3.567  17.013  0.6668 -1.3419  0.4949
 5851TIP3    H238969   1.243   3.447  16.970 -0.2809 -0.4499 -0.2821
 5852TIP3   OH238970   4.086   6.073   3.872 -0.2006 -0.6058  0.7107
 5852TIP3    H138971   4.099   6.026   3.955 -1.7633 -0.9486  0.7893
 5852TIP3    H238972   4.105   6.008   3.805  3.4813  0.2935  0.6525
 5853TIP3   OH238973   5.445   4.067  11.849  0.0495  0.5581  0.3059
 5853TIP3    H138974   5.366   4.014  11.847 -1.0956  2.1454  0.9495
 5853TIP3    H238975   5.446   4.111  11.764 -0.0891  0.9889  0.5258
 5854TIP3   OH238976   1.118   3.500  14.019  0.2187  1.3258 -0.2161
 5854TIP3    H138977   1.022   3.504  14.023 -0.0232 -2.0210  0.4135
 5854TIP3    H238978   1.144   3.477  14.109  1.1477 -1.8883 -1.1669
 5855TIP3   OH238979   0.693   2.056  11.347 -0.2236  0.0378  0.1233
 5855TIP3    H138980   0.766   1.995  11.346  1.5946  2.0115  1.8982
 5855TIP3    H238981   0.634   2.022  11.414 -1.4548 -1.9891 -1.8525
 5856TIP3   OH238982   3.732   2.637  13.601 -0.0722  0.3616  0.1824
 5856TIP3    H138983   3.752   2.622  13.509 -0.5946 -0.1723  0.1536
 5856TIP3    H238984   3.636   2.637  13.606 -0.0957  1.8687  0.4859
 5857TIP3   OH238985   6.446   5.934   4.007  0.0523 -0.1014 -0.3375
 5857TIP3    H138986   6.498   5.874   3.953  1.6795  2.0112 -1.2842
 5857TIP3    H238987   6.506   5.964   4.075 -0.8786  0.0458  0.4344
 5858TIP3   OH238988   6.251   3.889  12.593  0.2241  0.7724  0.1079
 5858TIP3    H138989   6.339   3.883  12.554 -0.3454  4.8755 -2.4081
 5858TIP3    H238990   6.264   3.944  12.670 -0.0913  1.5320 -0.3669
 5859TIP3   OH238991   5.379   0.329  15.280 -0.4928 -0.5509 -0.1308
 5859TIP3    H138992   5.372   0.234  15.277 -0.5604 -0.5991  1.0726
 5859TIP3    H238993   5.391   0.355  15.189 -0.5940 -1.6975 -0.4877
 5860TIP3   OH238994   2.327   1.865  12.670  0.2011 -0.0850  0.9215
 5860TIP3    H138995   2.253   1.925  12.661  0.9400  0.9588  1.5705
 5860TIP3    H238996   2.306   1.810  12.746 -1.8492 -2.7506 -1.3622
 5861TIP3   OH238997   0.398   5.387   1.207  0.5469  0.5239  0.5713
 5861TIP3    H138998   0.474   5.445   1.213  0.5360  0.5160  0.8020
 5861TIP3    H238999   0.390   5.367   1.114 -0.8988  2.8201  0.1382
 5862TIP3   OH239000   4.805   2.287  11.839  0.1855 -0.2262 -0.1547
 5862TIP3    H139001   4.828   2.285  11.746  1.6202  1.3668  0.1149
 5862TIP3    H239002   4.784   2.196  11.861 -2.9989 -0.2540 -2.6444
 5863TIP3   OH239003   2.827   4.581   0.771  0.0510 -0.2550  0.0190
 5863TIP3    H139004   2.773   4.557   0.696 -1.2240  0.1486  0.7733
 5863TIP3    H239005   2.849   4.673   0.756 -0.6254 -0.0300  0.3736
 5864TIP3   OH239006   0.303   1.899   1.377  0.2638 -0.0948  0.1531
 5864TIP3    H139007   0.321   1.986   1.343 -0.7777 -0.1083 -0.5022
 5864TIP3    H239008   0.385   1.851   1.368  0.5179  0.4681 -0.6258
 5865TIP3   OH239009   0.188   5.307   1.370 -0.0300 -0.4189 -0.1052
 5865TIP3    H139010   0.267   5.339   1.326 -1.1700  0.2869 -1.7492
 5865TIP3    H239011   0.216   5.227   1.415  2.0496  0.8904  1.0393
 5866TIP3   OH239012   2.404   1.704  16.788 -0.0985  0.2729  0.1480
 5866TIP3    H139013   2.382   1.729  16.699  2.5749  3.0067  0.0979
 5866TIP3    H239014   2.471   1.637  16.779  0.9987  1.3501  0.0003
 5867TIP3   OH239015   1.734   3.967   0.658 -0.0203 -0.4769  0.3209
 5867TIP3    H139016   1.818   4.001   0.627 -0.0346  0.2644  1.0674
 5867TIP3    H239017   1.676   4.042   0.657 -0.9627 -1.1829 -1.1068
 5868TIP3   OH239018   1.122   1.998   4.015 -0.4644 -0.2072  0.2465
 5868TIP3    H139019   1.183   1.968   3.948 -0.8019 -1.6828  0.5711
 5868TIP3    H239020   1.159   1.964   4.097 -1.3377 -0.4934  0.5267
 5869TIP3   OH239021   4.353   6.226   4.640  0.3129  0.0237 -0.1046
 5869TIP3    H139022   4.287   6.157   4.634  0.4482 -0.0187 -1.2492
 5869TIP3    H239023   4.347   6.273   4.557  1.8966 -0.1605 -0.3541
 5870TIP3   OH239024   6.340   6.195   6.259  0.1642  0.3359 -0.0626
 5870TIP3    H139025   6.394   6.182   6.181  1.1163  2.0254  0.2658
 5870TIP3    H239026   6.272   6.256   6.230 -0.4566 -0.2986  0.0301
 5871TIP3   OH239027   3.186   2.852  13.176 -0.0641 -0.0668  0.1061
 5871TIP3    H139028   3.148   2.922  13.229  1.5152 -0.0438  1.2737
 5871TIP3    H239029   3.229   2.795  13.239 -1.6547 -2.3948 -0.7543
 5872TIP3   OH239030   1.260   4.265   3.408 -0.1776  0.0383  0.5915
 5872TIP3    H139031   1.209   4.278   3.487 -0.6547  0.7598  0.1812
 5872TIP3    H239032   1.214   4.195   3.361 -1.0956  1.0182 -0.0070
 5873TIP3   OH239033   2.051   5.953  12.406 -0.2984 -0.5046  0.3838
 5873TIP3    H139034   2.046   5.867  12.448  0.7090 -1.1292 -0.6910
 5873TIP3    H239035   2.047   6.015  12.478 -0.2736 -1.4851  1.2583
 5874TIP3   OH239036   3.194   1.345  11.816 -0.4864 -0.1378  0.1481
 5874TIP3    H139037   3.123   1.400  11.782 -0.3563  0.7028  1.1739
 5874TIP3    H239038   3.274   1.385  11.782 -0.4958 -1.9268 -2.2089
 5875TIP3   OH239039   3.364   3.238   5.639  0.1015 -0.5254  0.4905
 5875TIP3    H139040   3.374   3.298   5.712 -1.4779 -1.0394  1.1727
 5875TIP3    H239041   3.399   3.155   5.672  0.9753 -0.3422  0.0451
 5876TIP3   OH239042   4.202   2.068  15.114  0.1407  0.1531  0.0353
 5876TIP3    H139043   4.214   1.978  15.147 -0.4474  0.3590  0.8565
 5876TIP3    H239044   4.290   2.100  15.098  0.4629  0.0819  1.5560
 5877TIP3   OH239045   0.963   6.263   6.337  0.1873  0.0227 -0.3923
 5877TIP3    H139046   1.019   6.256   6.414 -0.5522 -0.9435  0.0832
 5877TIP3    H239047   1.023   6.279   6.265  1.0145 -0.3515  0.1942
 5878TIP3   OH239048   2.363   4.153  11.829 -0.3926  0.0902  0.2405
 5878TIP3    H139049   2.342   4.142  11.736 -3.2616  0.1971  0.7764
 5878TIP3    H239050   2.326   4.238  11.852  3.5084  1.8270  0.7647
 5879TIP3   OH239051   0.325   2.390  11.608 -0.2488 -0.2645 -0.4045
 5879TIP3    H139052   0.342   2.297  11.595 -0.7858 -0.4683  0.3037
 5879TIP3    H239053   0.235   2.403  11.577 -0.9597 -0.4379  1.4784
 5880TIP3   OH239054   2.782   5.405   1.074 -0.2503 -0.2924  0.0672
 5880TIP3    H139055   2.773   5.412   1.169  1.3775  1.2504  0.1619
 5880TIP3    H239056   2.708   5.456   1.039 -0.0562  0.3233  0.5415
 5881TIP3   OH239057   5.473   4.134  15.442 -0.1893 -0.4291 -0.0976
 5881TIP3    H139058   5.532   4.074  15.396  1.6397  1.1719  0.0102
 5881TIP3    H239059   5.418   4.171  15.374 -0.6092 -1.3918 -0.3078
 5882TIP3   OH239060   0.693   0.405  16.031 -0.1596  0.4327 -0.0608
 5882TIP3    H139061   0.616   0.436  16.079 -1.5450 -1.4396 -0.9677
 5882TIP3    H239062   0.684   0.444  15.943  1.3146  2.2283  0.5091
 5883TIP3   OH239063   3.491   0.447   5.307 -0.2331 -0.5191 -0.0780
 5883TIP3    H139064   3.405   0.481   5.283  0.1553 -0.2078 -1.1103
 5883TIP3    H239065   3.481   0.416   5.397 -1.5327 -0.8774 -0.3263
 5884TIP3   OH239066   5.541   2.374   1.855 -0.6445 -0.5107 -0.5469
 5884TIP3    H139067   5.459   2.421   1.841 -0.8253 -0.4029  0.8038
 5884TIP3    H239068   5.521   2.284   1.829 -0.9715 -0.3419 -0.8952
 5885TIP3   OH239069   6.407   5.922   5.104 -0.3012  0.0052  0.3044
 5885TIP3    H139070   6.502   5.927   5.113 -0.3887 -0.7547  2.1232
 5885TIP3    H239071   6.390   5.829   5.087 -0.8025 -0.1959  1.7720
 5886TIP3   OH239072   6.507   2.491  14.860 -0.6279  0.1635  0.3593
 5886TIP3    H139073   6.478   2.402  14.879  0.4607  0.0820  1.8250
 5886TIP3    H239074   6.466   2.545  14.928 -1.1841  0.7879 -0.4431
 5887TIP3   OH239075   1.770   1.224  15.524  0.0748 -0.2977  0.6751
 5887TIP3    H139076   1.815   1.140  15.530 -0.1141 -0.5339 -0.8090
 5887TIP3    H239077   1.677   1.203  15.523  0.0215 -0.3328 -1.8996
 5888TIP3   OH239078   6.159   5.949   1.070 -0.4750 -0.2554  0.1485
 5888TIP3    H139079   6.177   5.996   1.151 -3.6425  0.0205  0.8274
 5888TIP3    H239080   6.199   5.863   1.082  3.9356  1.4626 -0.4082
 5889TIP3   OH239081   1.504   5.597   0.753  0.0985  0.1117 -0.1591
 5889TIP3    H139082   1.415   5.565   0.743  0.0603 -0.4768  1.7441
 5889TIP3    H239083   1.546   5.577   0.669 -0.8183 -2.0432 -0.1660
 5890TIP3   OH239084   6.591   4.013   1.694 -0.2352  0.0031 -1.0414
 5890TIP3    H139085   6.575   3.922   1.717 -3.1226  0.7905  0.5133
 5890TIP3    H239086   6.623   4.053   1.775 -1.1823  0.8175 -1.0601
 5891TIP3   OH239087   6.617   1.531   0.088 -0.0538 -0.1641 -0.0721
 5891TIP3    H139088   6.595   1.494   0.002 -1.3703 -0.0686  0.2133
 5891TIP3    H239089   6.565   1.611   0.094  1.4213  0.8406  0.0664
 5892TIP3   OH239090   4.688   4.285  14.348  0.6934  0.7710 -0.5574
 5892TIP3    H139091   4.668   4.346  14.419 -1.2643  0.1350 -0.5114
 5892TIP3    H239092   4.659   4.200  14.381  0.2830  0.3687 -1.8998
 5893TIP3   OH239093   4.465   4.019   1.494 -0.6569  0.1611  0.2819
 5893TIP3    H139094   4.484   4.057   1.580  1.2624  1.5481 -0.6590
 5893TIP3    H239095   4.530   3.950   1.483 -1.1842 -0.3137  0.1179
 5894TIP3   OH239096   0.373   1.668  11.331  0.0183 -0.4666  0.2714
 5894TIP3    H139097   0.451   1.694  11.282  0.3166 -0.4313  0.7631
 5894TIP3    H239098   0.311   1.739  11.317 -0.2363 -0.8902 -0.8191
 5895TIP3   OH239099   2.627   4.840  15.889 -0.0216 -0.7609  0.4286
 5895TIP3    H139100   2.697   4.900  15.863 -0.2531 -1.8591 -3.2581
 5895TIP3    H239101   2.582   4.886  15.961  1.7279  1.9832 -0.0657
 5896TIP3   OH239102   5.834   6.527   3.318  0.1854 -0.0567  0.0281
 5896TIP3    H139103   5.824   6.433   3.332 -2.7980  0.1316 -0.2697
 5896TIP3    H239104   5.773   6.567   3.380  1.1378  1.7061 -0.0946
 5897TIP3   OH239105   4.638   0.405  14.857 -0.3170  0.4712 -0.9025
 5897TIP3    H139106   4.580   0.407  14.933 -0.1517  0.6798 -0.7817
 5897TIP3    H239107   4.690   0.326  14.869 -0.4542  0.3785 -0.9203
 5898TIP3   OH239108   2.445   1.954   2.204 -0.4195  0.6216 -0.6019
 5898TIP3    H139109   2.536   1.962   2.232 -0.3187 -1.5880 -0.1407
 5898TIP3    H239110   2.415   1.870   2.241 -2.3572  0.8446 -1.5166
 5899TIP3   OH239111   1.066   4.456  11.239  0.2325 -0.7373  0.5252
 5899TIP3    H139112   0.984   4.419  11.271  1.1999 -2.5322  1.0711
 5899TIP3    H239113   1.106   4.385  11.189  0.7442  0.6357 -1.0846
 5900TIP3   OH239114   6.564   1.357  16.605  0.2104 -0.1393  0.4310
 5900TIP3    H139115   6.647   1.389  16.640  0.4089 -1.2957  1.0588
 5900TIP3    H239116   6.518   1.436  16.576  1.4906  0.5221  0.1418
 5901TIP3   OH239117   2.310   3.404   4.824 -0.0530 -0.0579  0.5799
 5901TIP3    H139118   2.342   3.478   4.773  0.8361 -0.9299 -0.1669
 5901TIP3    H239119   2.315   3.433   4.915  2.5634  0.0038  0.4911
 5902TIP3   OH239120   5.498   3.524  12.265  0.4467  0.6580 -0.1849
 5902TIP3    H139121   5.588   3.494  12.276  0.2320 -0.2319 -0.7588
 5902TIP3    H239122   5.489   3.540  12.171  0.3347  1.8559  0.0151
 5903TIP3   OH239123   4.773   3.284  16.799 -0.0685  0.3120  0.4168
 5903TIP3    H139124   4.866   3.268  16.820 -0.2971  0.1874  1.3841
 5903TIP3    H239125   4.774   3.357  16.738  0.7167 -0.2125 -0.2287
 5904TIP3   OH239126   5.041   0.618   0.421  0.2495  0.1326  0.1925
 5904TIP3    H139127   4.971   0.576   0.470  0.9081  0.4602  1.4715
 5904TIP3    H239128   4.998   0.691   0.376 -0.9270 -1.8580 -2.1554
 5905TIP3   OH239129   3.500   6.281   2.362  0.1798 -0.0221  0.3794
 5905TIP3    H139130   3.481   6.305   2.272 -1.8536  0.6933  0.9401
 5905TIP3    H239131   3.501   6.364   2.410 -0.7302 -0.5277  1.3258
 5906TIP3   OH239132   1.245   1.092  14.602 -0.2203 -0.8795 -0.1136
 5906TIP3    H139133   1.287   1.041  14.534  1.6180  1.8698 -1.2288
 5906TIP3    H239134   1.317   1.132  14.651 -1.4156  1.9108 -0.3907
 5907TIP3   OH239135   4.989   3.858  11.214  0.0191  0.3185 -0.7039
 5907TIP3    H139136   4.894   3.869  11.208 -0.2185 -0.4503  0.9041
 5907TIP3    H239137   5.014   3.812  11.134 -0.8674  1.0198 -1.4049
 5908TIP3   OH239138   0.836   2.991   2.049 -0.2696  0.5854 -0.4212
 5908TIP3    H139139   0.805   3.077   2.022 -0.9004  0.8317  1.0201
 5908TIP3    H239140   0.877   2.955   1.970  0.8831  2.5775 -0.8054
 5909TIP3   OH239141   5.088   6.473  12.788 -0.0025 -0.5496 -0.1900
 5909TIP3    H139142   5.029   6.406  12.823 -2.8027  1.4842 -0.6049
 5909TIP3    H239143   5.083   6.544  12.852  0.0180  0.6372 -1.4517
 5910TIP3   OH239144   5.455   0.996  10.463  0.2417  0.6241  0.1155
 5910TIP3    H139145   5.363   0.970  10.459  0.2895  0.2196  1.2612
 5910TIP3    H239146   5.481   0.978  10.553  1.5381  0.4419 -0.2765
 5911TIP3   OH239147   5.004   3.030  11.192  0.6354 -0.5737  0.4686
 5911TIP3    H139148   5.043   3.048  11.277  0.0414 -0.1954  0.6687
 5911TIP3    H239149   4.935   2.967  11.210 -0.1559  0.2578  0.4324
 5912TIP3   OH239150   3.740   0.058   1.381  0.1904  0.0159  0.0794
 5912TIP3    H139151   3.813   0.119   1.393 -0.1806  0.3736  0.5767
 5912TIP3    H239152   3.672   0.111   1.340  0.0229 -0.1785  0.1036
 5913TIP3   OH239153   1.727   4.306   4.781 -0.3650  0.0605  0.0883
 5913TIP3    H139154   1.729   4.373   4.713 -1.7018  1.0054  0.9221
 5913TIP3    H239155   1.819   4.280   4.792  0.0868  1.1854 -0.7982
 5914TIP3   OH239156   6.286   1.070  11.202 -0.3202  0.2397  0.2710
 5914TIP3    H139157   6.316   1.041  11.288 -1.3473  0.2372  0.6419
 5914TIP3    H239158   6.327   1.156  11.190  1.3047 -0.5369 -0.0629
 5915TIP3   OH239159   1.644   0.588   1.006  0.0628 -0.9180  0.0338
 5915TIP3    H139160   1.588   0.588   1.083  1.2482 -0.5438  0.9295
 5915TIP3    H239161   1.691   0.504   1.010  1.0253 -0.3682  0.4053
 5916TIP3   OH239162   6.623   3.690  16.759 -0.1695 -0.1146 -0.1267
 5916TIP3    H139163   6.686   3.703  16.688  0.2799  0.8264  0.4144
 5916TIP3    H239164   6.562   3.625  16.726  0.6840 -0.5268 -0.9352
 5917TIP3   OH239165   2.089   5.649  16.114 -0.2026  0.8915 -0.2826
 5917TIP3    H139166   2.020   5.714  16.116 -1.6733 -0.6131  1.0244
 5917TIP3    H239167   2.171   5.699  16.115 -1.2626  2.6889  1.0823
 5918TIP3   OH239168   4.296   4.020   4.712 -0.1961 -0.1599 -0.1487
 5918TIP3    H139169   4.266   4.103   4.750  0.4416  1.0868 -2.1997
 5918TIP3    H239170   4.253   3.953   4.765 -2.3172  1.4874  0.3678
 5919TIP3   OH239171   5.799   6.424   1.489  0.1087  0.9383  0.0762
 5919TIP3    H139172   5.814   6.444   1.582 -0.3521 -1.1218  0.6454
 5919TIP3    H239173   5.711   6.457   1.471  0.3339  1.6583  0.2704
 5920TIP3   OH239174   0.732   1.298  11.805 -1.0131 -0.5713  0.4267
 5920TIP3    H139175   0.713   1.226  11.745  0.0080 -0.0727 -0.5282
 5920TIP3    H239176   0.649   1.313  11.850 -2.1369 -0.2830 -1.5965
 5921TIP3   OH239177   2.526   5.048   2.576 -0.1997 -0.3063 -0.3612
 5921TIP3    H139178   2.510   5.092   2.493  0.5561 -0.3439 -0.5406
 5921TIP3    H239179   2.520   5.117   2.642  0.1131 -0.0912 -0.5511
 5922TIP3   OH239180   2.414   2.552  14.326 -0.3461  0.4953  0.6222
 5922TIP3    H139181   2.423   2.463  14.292  3.6507  1.2642 -0.8945
 5922TIP3    H239182   2.372   2.601  14.255  2.3034  0.7865 -0.8771
 5923TIP3   OH239183   3.208   1.221  16.820  0.2216  0.2123 -0.1554
 5923TIP3    H139184   3.213   1.213  16.915  0.2464 -0.5776 -0.2166
 5923TIP3    H239185   3.280   1.280  16.797  0.0163  0.6612  0.3422
 5924TIP3   OH239186   4.942   3.414  14.596  0.3635 -0.5991 -0.0953
 5924TIP3    H139187   4.974   3.395  14.508 -0.7604 -0.5397 -0.5242
 5924TIP3    H239188   5.010   3.471  14.634 -0.1215  1.1378 -1.6811
 5925TIP3   OH239189   1.506   5.081  16.321  0.2421 -0.0883 -0.6479
 5925TIP3    H139190   1.419   5.105  16.354  0.9311 -0.6541  1.8058
 5925TIP3    H239191   1.542   5.163  16.287 -0.4790  0.6190  0.2335
 5926TIP3   OH239192   4.245   2.100   2.330  0.2993 -0.1251  0.1654
 5926TIP3    H139193   4.234   2.011   2.295 -1.2810  0.0002  0.3084
 5926TIP3    H239194   4.252   2.087   2.425 -2.5046  0.0293  0.4813
 5927TIP3   OH239195   2.522   6.017   4.521  0.7230  0.0062 -0.0189
 5927TIP3    H139196   2.431   5.991   4.513  0.3648  0.8109  1.0827
 5927TIP3    H239197   2.545   6.053   4.435  0.0928 -0.4500 -0.3818
 5928TIP3   OH239198   0.492   6.260  13.941  0.1039 -0.1456 -0.0054
 5928TIP3    H139199   0.586   6.276  13.940  0.2041 -0.7116  0.0529
 5928TIP3    H239200   0.482   6.172  13.903 -0.1225 -1.4281  2.8117
 5929TIP3   OH239201   0.583   0.602   2.208  0.3576  0.8127  0.1890
 5929TIP3    H139202   0.554   0.541   2.276  1.5764  1.4818  1.3476
 5929TIP3    H239203   0.600   0.546   2.132  0.0744 -0.0925  0.7698
 5930TIP3   OH239204   1.105   1.186  16.772  0.2157 -0.2138 -0.2901
 5930TIP3    H139205   1.120   1.163  16.680  0.4486 -1.5123  0.0570
 5930TIP3    H239206   1.053   1.267  16.768  1.4313  0.5636 -1.5520
 5931TIP3   OH239207   6.639   5.668   6.070 -0.4099  0.0670  0.2136
 5931TIP3    H139208   6.732   5.660   6.091 -0.1927  1.8439  0.0958
 5931TIP3    H239209   6.633   5.744   6.012 -1.6112 -1.7317 -2.1862
 5932TIP3   OH239210   5.892   6.651   2.474  0.5648  0.3429 -0.0146
 5932TIP3    H139211   5.811   6.699   2.458  0.0578 -0.6678 -0.5223
 5932TIP3    H239212   5.961   6.711   2.444 -0.0315  0.9241 -0.2464
 5933TIP3   OH239213   6.221   4.286   2.503  0.1713 -0.0082 -0.3564
 5933TIP3    H139214   6.147   4.294   2.562 -0.0577 -0.4826 -0.5742
 5933TIP3    H239215   6.298   4.288   2.561 -0.0667 -0.8441 -0.0030
 5934TIP3   OH239216   0.007   3.017   0.272  0.2647  0.4954 -0.1951
 5934TIP3    H139217   0.011   3.090   0.334  0.5965 -0.5306  1.0320
 5934TIP3    H239218  -0.076   2.973   0.291  0.4028  0.1294 -0.4292
 5935TIP3   OH239219   5.301   5.483   1.227  0.4171  0.3774 -0.5828
 5935TIP3    H139220   5.397   5.482   1.236  0.2869  0.7697  1.4808
 5935TIP3    H239221   5.281   5.573   1.201  0.5780  0.5241 -0.2181
 5936TIP3   OH239222   3.869   6.162  13.160 -0.0751 -0.3113  0.3527
 5936TIP3    H139223   3.913   6.134  13.241  0.4171 -2.8827 -0.7261
 5936TIP3    H239224   3.929   6.138  13.090 -1.5006 -0.2750 -0.9350
 5937TIP3   OH239225   6.512   0.613   0.004  0.2279  0.4310  0.2505
 5937TIP3    H139226   6.439   0.610   0.065 -2.4275  1.6755 -2.6294
 5937TIP3    H239227   6.547   0.524   0.005 -1.3979 -0.2504  1.6259
 5938TIP3   OH239228   4.746   6.671   6.116 -0.7020 -0.2749  0.4923
 5938TIP3    H139229   4.799   6.593   6.100 -0.2120  0.3485 -1.1829
 5938TIP3    H239230   4.796   6.722   6.180  0.5428  0.0710 -0.6911
 5939TIP3   OH239231   1.285   4.518  10.968 -0.5101 -0.1218 -0.6668
 5939TIP3    H139232   1.379   4.532  10.960  0.1681 -1.9448  2.5430
 5939TIP3    H239233   1.254   4.593  11.019 -0.8476  0.4547 -1.6838
 5940TIP3   OH239234   5.958   6.701  13.941  0.3222  0.0691 -0.7932
 5940TIP3    H139235   6.044   6.716  13.981  0.3579  1.1398 -1.2473
 5940TIP3    H239236   5.969   6.724  13.849 -0.0961 -1.1583 -1.1733
 5941TIP3   OH239237   3.092   2.109   4.219 -0.1403  0.1398 -0.0090
 5941TIP3    H139238   3.186   2.128   4.216 -0.4700  1.9915  0.4615
 5941TIP3    H239239   3.081   2.034   4.161  1.8016 -0.9221  0.8836
 5942TIP3   OH239240   1.240   0.482   2.097  0.0062  0.3783 -0.6444
 5942TIP3    H139241   1.195   0.398   2.104  0.8945  0.0218  1.4524
 5942TIP3    H239242   1.273   0.483   2.007 -1.5863 -0.6598 -1.2953
 5943TIP3   OH239243   2.862   3.180  11.692  0.1401 -0.1183 -0.0847
 5943TIP3    H139244   2.811   3.184  11.772  0.8998  1.8435  0.3747
 5943TIP3    H239245   2.807   3.132  11.630 -2.1221  1.5492  0.5013
 5944TIP3   OH239246   1.684   2.540   5.161  0.5124 -0.3629 -0.1398
 5944TIP3    H139247   1.767   2.567   5.199  1.4522  1.6215 -3.2038
 5944TIP3    H239248   1.660   2.460   5.208  1.7119  1.4644  4.0173
 5945TIP3   OH239249   4.840   5.170   1.166  0.6083  0.3262  0.1187
 5945TIP3    H139250   4.886   5.101   1.214 -0.4987 -1.6845 -1.5539
 5945TIP3    H239251   4.908   5.214   1.115  1.1589 -0.3192  0.2868
 5946TIP3   OH239252   1.411   6.546   3.960 -0.2103 -0.2678 -0.0619
 5946TIP3    H139253   1.431   6.524   4.051  0.3171 -0.4994 -0.2312
 5946TIP3    H239254   1.327   6.503   3.943 -0.4174 -0.0491  0.3729
 5947TIP3   OH239255   1.218   1.137   1.402  0.6153 -0.0075  0.0561
 5947TIP3    H139256   1.293   1.194   1.419  1.3118 -1.1847  1.1175
 5947TIP3    H239257   1.236   1.097   1.317 -0.0972  1.6334 -0.9126
 5948TIP3   OH239258   1.524   5.674  15.085  0.1489 -0.0688 -0.0529
 5948TIP3    H139259   1.518   5.581  15.107 -0.8192 -0.0094 -0.0119
 5948TIP3    H239260   1.558   5.675  14.995 -0.4253 -0.4943 -0.2833
 5949TIP3   OH239261   0.234   2.727   3.590  0.3287  0.2970  0.0386
 5949TIP3    H139262   0.143   2.709   3.567  0.2060 -1.2668  1.5246
 5949TIP3    H239263   0.246   2.819   3.570 -1.5834  0.5267 -0.2249
 5950TIP3   OH239264   5.916   0.522   4.223  0.3894  0.3061  0.2908
 5950TIP3    H139265   5.848   0.526   4.290  0.7093  3.3662  0.5766
 5950TIP3    H239266   5.870   0.539   4.141  0.7301  2.3845  0.4850
 5951TIP3   OH239267   4.119   4.176  13.737 -0.4724  0.2927 -0.1725
 5951TIP3    H139268   4.203   4.155  13.698 -0.0255 -1.7113  1.6857
 5951TIP3    H239269   4.055   4.153  13.669  0.3930  0.9114 -1.2350
 5952TIP3   OH239270   0.316   2.712   0.870  0.0783  0.2494  0.2301
 5952TIP3    H139271   0.256   2.732   0.942 -0.6025  0.9312 -0.5158
 5952TIP3    H239272   0.309   2.786   0.811 -0.7082 -1.0774 -1.4220
 5953TIP3   OH239273   4.933   3.997   1.672 -0.1530  0.1093 -0.7272
 5953TIP3    H139274   4.941   3.983   1.767  0.5098  1.1754 -0.6025
 5953TIP3    H239275   4.969   4.085   1.658  1.3000 -0.6647 -2.1884
 5954TIP3   OH239276   2.053   0.605   5.776  0.2470  0.0971  0.1385
 5954TIP3    H139277   2.068   0.553   5.855 -3.3796 -0.3148  0.7388
 5954TIP3    H239278   2.089   0.552   5.705  2.3935 -0.1340  1.3408
 5955TIP3   OH239279   3.343   2.400   4.896  0.0907  0.0701 -0.2831
 5955TIP3    H139280   3.297   2.439   4.971 -0.3044  0.4820 -0.7322
 5955TIP3    H239281   3.409   2.466   4.872  1.2434 -0.7126  0.6441
 5956TIP3   OH239282   4.280   0.084  11.399 -0.3458 -0.3782  0.1695
 5956TIP3    H139283   4.321   0.059  11.482  0.2767  0.4460  0.1262
 5956TIP3    H239284   4.202   0.134  11.424 -0.7792 -1.0811  0.2506
 5957TIP3   OH239285   3.418   4.763  13.688  0.4535  0.3645 -0.0727
 5957TIP3    H139286   3.452   4.726  13.607 -1.5899 -1.3964 -0.2266
 5957TIP3    H239287   3.466   4.718  13.757  0.4948  0.0408 -0.3080
 5958TIP3   OH239288   4.877   4.370   3.147  0.2487 -0.1010  0.2504
 5958TIP3    H139289   4.789   4.405   3.133  0.0442 -0.9990 -0.7989
 5958TIP3    H239290   4.889   4.306   3.078  2.8129  1.9537 -1.4080
 5959TIP3   OH239291   0.504   4.027  16.003  0.2229 -0.1639  0.0843
 5959TIP3    H139292   0.494   4.098  15.939  0.9972  1.0374  1.2350
 5959TIP3    H239293   0.599   4.020  16.016  0.1013 -0.7678  0.6966
 5960TIP3   OH239294   4.074   3.164  12.641 -0.1503  0.7067 -0.1886
 5960TIP3    H139295   4.125   3.127  12.713 -0.3760  1.3198  0.2909
 5960TIP3    H239296   4.106   3.118  12.563  0.3075  0.2544  0.2580
 5961TIP3   OH239297   5.328   6.497  16.146 -0.0514 -0.0865 -0.0581
 5961TIP3    H139298   5.308   6.419  16.198  0.3931  0.2172  0.5644
 5961TIP3    H239299   5.405   6.473  16.095 -0.2955 -0.2701 -0.3497
 5962TIP3   OH239300   2.605   1.290   3.487  0.1198  0.3673 -1.0516
 5962TIP3    H139301   2.628   1.383   3.485 -2.0541  0.9956 -0.1030
 5962TIP3    H239302   2.680   1.248   3.529  0.7717  1.8042 -0.6996
 5963TIP3   OH239303   4.802   1.825   6.112  0.8356 -0.1870  0.4800
 5963TIP3    H139304   4.864   1.895   6.131  0.4844  0.1755  0.3110
 5963TIP3    H239305   4.750   1.859   6.039  0.0061 -0.2167  1.0456
 5964TIP3   OH239306   2.435   2.952   2.269 -0.4010  0.5327 -0.1574
 5964TIP3    H139307   2.401   3.035   2.235 -1.4355 -0.3827 -1.4416
 5964TIP3    H239308   2.435   2.893   2.194  1.3013 -0.3690  0.4851
 5965TIP3   OH239309   0.813   4.586  11.021  0.0976  0.0217 -0.9111
 5965TIP3    H139310   0.849   4.620  10.939  0.1897  0.9271 -0.5050
 5965TIP3    H239311   0.889   4.572  11.077 -0.1242  2.7421  0.2538
 5966TIP3   OH239312   1.355   2.923  13.776 -0.2918  0.0973 -0.7016
 5966TIP3    H139313   1.360   2.979  13.854 -2.7089 -0.8922  0.2766
 5966TIP3    H239314   1.432   2.866  13.782  0.7443  1.4846 -0.2774
 5967TIP3   OH239315   5.172   5.011   0.374 -0.1752 -0.0533  0.0275
 5967TIP3    H139316   5.198   5.051   0.291  0.8206 -0.3821  0.1588
 5967TIP3    H239317   5.238   5.041   0.436 -2.0843  1.9094  1.2268
 5968TIP3   OH239318   2.206   4.290   3.822  0.0226 -0.1824  0.3559
 5968TIP3    H139319   2.111   4.296   3.836 -0.2212 -0.5473 -1.0078
 5968TIP3    H239320   2.218   4.208   3.776  0.8380  0.5494 -0.7891
 5969TIP3   OH239321   0.218   1.016  11.041 -0.5143  0.1308 -0.1631
 5969TIP3    H139322   0.284   1.027  10.973  0.2225 -0.9352  0.3427
 5969TIP3    H239323   0.148   0.966  10.999  0.2000 -1.0341 -0.0141
 5970TIP3   OH239324   2.380   3.395   2.835  0.7773  0.2315 -0.4739
 5970TIP3    H139325   2.330   3.450   2.775  0.8732 -0.4480 -1.2013
 5970TIP3    H239326   2.467   3.436   2.839  0.2041  1.3749  0.7428
 5971TIP3   OH239327   6.440   1.824  16.815 -0.2028  0.1031  0.2868
 5971TIP3    H139328   6.494   1.903  16.812 -0.7490  0.5673  1.6569
 5971TIP3    H239329   6.427   1.808  16.908 -2.6523  0.1739  0.0170
 5972TIP3   OH239330   3.111   0.118   3.010 -0.2164  0.1575 -0.1240
 5972TIP3    H139331   3.172   0.058   3.052 -0.3187  0.9701  1.2138
 5972TIP3    H239332   3.038   0.062   2.982  0.0065 -0.4516  0.4918
 5973TIP3   OH239333   6.259   0.480  16.291  0.2336  0.0376  0.6730
 5973TIP3    H139334   6.290   0.521  16.371  1.2100 -1.2252  0.9712
 5973TIP3    H239335   6.245   0.552  16.230 -0.8015  1.0469  2.0489
 5974TIP3   OH239336   2.769   0.679  15.548 -0.2191  0.1634  0.4794
 5974TIP3    H139337   2.695   0.632  15.586 -1.2507  0.5459 -0.9728
 5974TIP3    H239338   2.813   0.718  15.623 -2.0041  0.6465  1.3416
 5975TIP3   OH239339   0.202   6.002   1.296 -0.5251  0.6207 -0.1344
 5975TIP3    H139340   0.118   5.997   1.341 -1.1099  3.0628 -0.8032
 5975TIP3    H239341   0.255   6.059   1.351 -0.0017  0.7081 -0.7205
 5976TIP3   OH239342   4.289   5.638  16.714 -0.1651  0.5712  0.1825
 5976TIP3    H139343   4.343   5.565  16.745 -1.9675 -0.6350  0.6092
 5976TIP3    H239344   4.212   5.637  16.770 -0.7213  2.1651 -0.5000
 5977TIP3   OH239345   3.173   4.849  14.850  0.0861  0.6762  0.2821
 5977TIP3    H139346   3.202   4.761  14.870 -0.8938  0.7644  2.3786
 5977TIP3    H239347   3.163   4.851  14.755  0.0981 -1.4630  0.2056
 5978TIP3   OH239348   6.122   5.368  15.788  0.0272 -0.1026  0.2016
 5978TIP3    H139349   6.192   5.353  15.725  0.2799  0.7418  0.2749
 5978TIP3    H239350   6.058   5.299  15.770  0.7863 -0.7701  0.0181
 5979TIP3   OH239351   3.129   1.481   3.349  0.4015  0.1372 -0.2477
 5979TIP3    H139352   3.095   1.486   3.259  0.4905  1.3344 -0.2215
 5979TIP3    H239353   3.186   1.557   3.357  1.3698 -0.6323  0.4364
 5980TIP3   OH239354   2.376   4.049   2.406  0.1452 -0.5423 -0.2618
 5980TIP3    H139355   2.333   4.005   2.333  1.0106 -1.3335 -0.3220
 5980TIP3    H239356   2.401   4.135   2.371 -1.3570 -0.0701 -0.2144
 5981TIP3   OH239357   6.066   3.778  10.581 -0.2116  0.0004  0.7313
 5981TIP3    H139358   6.016   3.829  10.646  1.1330 -0.2583  2.0199
 5981TIP3    H239359   6.042   3.818  10.497 -0.9135  1.2982  1.4998
 5982TIP3   OH239360   6.677   6.445   3.221  0.2024  0.3556  0.3490
 5982TIP3    H139361   6.586   6.474   3.232 -0.4358 -1.7326  1.1736
 5982TIP3    H239362   6.688   6.438   3.126 -1.0736 -0.8781  0.2512
 5983TIP3   OH239363   3.193   3.942   2.604  0.1855  0.0740 -0.3644
 5983TIP3    H139364   3.279   3.952   2.563  0.6440 -1.3310  0.1928
 5983TIP3    H239365   3.210   3.890   2.683 -1.0272  0.6680  0.3105
 5984TIP3   OH239366   6.343   0.164  10.588  0.1355  0.3254 -0.0499
 5984TIP3    H139367   6.278   0.110  10.634 -1.0933  1.9667  0.2276
 5984TIP3    H239368   6.407   0.187  10.655  0.1919 -0.0571  0.0318
 5985TIP3   OH239369   3.074   5.659   2.227 -0.0209  0.0020 -0.3906
 5985TIP3    H139370   3.042   5.604   2.298  1.1479 -0.8838 -0.5245
 5985TIP3    H239371   3.012   5.733   2.223 -0.1988 -0.0295  1.3937
 5986TIP3   OH239372   4.150   4.268   3.468  0.0578  0.7630 -0.3683
 5986TIP3    H139373   4.175   4.242   3.379  0.2940 -0.9541  0.1784
 5986TIP3    H239374   4.221   4.327   3.496  0.2771  0.8543 -1.0904
 5987TIP3   OH239375   4.791   3.573  11.903  0.0290  0.1685 -0.8816
 5987TIP3    H139376   4.742   3.613  11.831 -0.2377  1.6840  0.1054
 5987TIP3    H239377   4.861   3.524  11.859 -0.3644  0.7271 -2.1953
 5988TIP3   OH239378   6.257   0.037   0.683  0.3980  0.0335 -0.1827
 5988TIP3    H139379   6.336   0.020   0.734 -0.0468 -0.8276  0.2409
 5988TIP3    H239380   6.188   0.050   0.748  0.5591  3.1112 -0.4635
 5989TIP3   OH239381   3.264   5.745   3.737 -0.2607  0.1490 -0.1740
 5989TIP3    H139382   3.203   5.763   3.666 -0.0905  0.1986 -0.3073
 5989TIP3    H239383   3.227   5.669   3.782  1.1715 -1.8437 -2.1362
 5990TIP3   OH239384   4.744   3.135   2.230 -0.6628 -0.0976 -0.5525
 5990TIP3    H139385   4.725   3.043   2.214  0.0130 -0.1680 -0.9669
 5990TIP3    H239386   4.775   3.169   2.147  0.3095  0.1908 -0.0862
 5991TIP3   OH239387   1.528   2.199   1.842 -0.4327  0.1452 -0.7116
 5991TIP3    H139388   1.587   2.269   1.867 -0.3549  0.6187 -2.1523
 5991TIP3    H239389   1.466   2.192   1.916  0.4297  0.7184  0.0826
 5992TIP3   OH239390   6.795   6.189   1.849  0.2578  0.1911  0.3307
 5992TIP3    H139391   6.706   6.178   1.817  0.4070 -0.9495  0.2603
 5992TIP3    H239392   6.802   6.282   1.870 -1.1601  0.1637  1.0049
 5993TIP3   OH239393   1.005   3.730  12.598 -0.3546 -0.0639  0.0446
 5993TIP3    H139394   0.974   3.645  12.628 -2.5522 -0.1097 -2.0569
 5993TIP3    H239395   0.991   3.788  12.673 -1.2553 -1.0438  0.6676
 5994TIP3   OH239396   3.821   2.650  15.787  0.2716 -0.2674  0.4106
 5994TIP3    H139397   3.841   2.687  15.700 -3.7706 -0.3942 -0.7772
 5994TIP3    H239398   3.778   2.722  15.833 -1.0541 -1.3222  0.8475
 5995TIP3   OH239399   1.799   6.320  13.470 -0.0680  0.3302 -0.4625
 5995TIP3    H139400   1.887   6.353  13.455  0.2953 -1.0154 -1.5056
 5995TIP3    H239401   1.809   6.224  13.472 -1.1714  0.1935  1.6107
 5996TIP3   OH239402   5.822   4.405   5.486 -0.7050  0.2322 -0.5696
 5996TIP3    H139403   5.771   4.480   5.517 -1.5872 -0.0950 -1.2056
 5996TIP3    H239404   5.901   4.444   5.447 -1.1363  0.8243 -0.8582
 5997TIP3   OH239405   0.357   5.092   3.108 -0.1690  0.0590  0.5254
 5997TIP3    H139406   0.354   5.176   3.062  0.6229  0.0378  0.4289
 5997TIP3    H239407   0.442   5.055   3.086 -0.2773 -0.5097  1.0355
 5998TIP3   OH239408   5.530   6.163  11.669  0.3844  0.1348  0.0901
 5998TIP3    H139409   5.579   6.223  11.613 -1.2916  1.0911 -0.4158
 5998TIP3    H239410   5.520   6.209  11.751  0.4797 -0.1260  0.2496
 5999TIP3   OH239411   1.738   5.458   2.261 -0.5962 -0.0447 -0.3910
 5999TIP3    H139412   1.703   5.451   2.349 -0.0789 -0.3613 -0.2082
 5999TIP3    H239413   1.700   5.539   2.226 -1.3358 -0.2772 -0.1248
 6000TIP3   OH239414   4.793   6.101   4.522 -0.4968  0.2167 -0.7591
 6000TIP3    H139415   4.837   6.165   4.466 -1.2111  1.7381  0.3523
 6000TIP3    H239416   4.761   6.152   4.596 -2.0759 -1.2531 -0.3777
 6001TIP3   OH239417   3.131   4.472   5.268  0.3776 -0.8130  0.0955
 6001TIP3    H139418   3.152   4.559   5.302  1.2298 -0.3979 -1.4243
 6001TIP3    H239419   3.175   4.412   5.328  0.5706 -0.1657  0.6146
 6002TIP3   OH239420   1.030   5.516  15.880  0.0667  0.5481 -0.1753
 6002TIP3    H139421   0.966   5.473  15.938  0.8578  0.1815  0.4511
 6002TIP3    H239422   1.046   5.452  15.810  1.3681 -0.3090  0.8437
 6003TIP3   OH239423   2.356   1.881   5.222  0.7962 -0.1463 -0.0043
 6003TIP3    H139424   2.424   1.929   5.174  0.6471  0.9060  0.8181
 6003TIP3    H239425   2.403   1.831   5.288  0.9794 -1.4152 -1.0409
 6004TIP3   OH239426   6.710   0.938  12.369  0.5697  0.0959 -0.3417
 6004TIP3    H139427   6.757   1.015  12.337 -1.6572  1.8311  0.3982
 6004TIP3    H239428   6.726   0.937  12.463  1.6977 -1.2012 -0.5092
 6005TIP3   OH239429   1.571   4.247   3.542  0.1265 -0.6748  0.0403
 6005TIP3    H139430   1.529   4.185   3.483  1.7975 -2.4540  0.6124
 6005TIP3    H239431   1.524   4.237   3.625  0.2479 -1.0383  0.0680
 6006TIP3   OH239432   4.593   4.205  12.336 -0.4612 -0.1481  0.5840
 6006TIP3    H139433   4.628   4.173  12.253  0.5785  0.4120  0.7932
 6006TIP3    H239434   4.534   4.277  12.312 -1.1840 -0.8291  0.2585
 6007TIP3   OH239435   5.202   3.173  16.353 -0.5831 -0.8754 -0.2040
 6007TIP3    H139436   5.160   3.155  16.269 -0.0224  0.2119 -0.7409
 6007TIP3    H239437   5.294   3.188  16.331  0.0865 -2.9164  0.9046
 6008TIP3   OH239438   5.992   0.809  13.516 -0.0285 -0.1136 -0.0463
 6008TIP3    H139439   5.913   0.862  13.534 -0.5864 -0.9830  0.1136
 6008TIP3    H239440   5.981   0.780  13.426  0.5201  0.4380 -0.2973
 6009TIP3   OH239441   0.882   2.800  15.043 -0.0819  0.4666  0.1463
 6009TIP3    H139442   0.923   2.713  15.039  0.1919  0.4926  1.5972
 6009TIP3    H239443   0.893   2.827  15.134 -1.6825  1.3051  0.1212
 6010TIP3   OH239444   6.258   1.220   3.201 -0.2295 -0.0359  0.2519
 6010TIP3    H139445   6.239   1.288   3.136 -1.2584  0.2480  0.8206
 6010TIP3    H239446   6.248   1.264   3.285 -0.2016 -0.7145  0.6198
 6011TIP3   OH239447   5.139   3.625   3.033  0.7888 -0.4641 -0.1338
 6011TIP3    H139448   5.164   3.538   3.002 -0.9624 -1.1184  0.1976
 6011TIP3    H239449   5.142   3.618   3.128  1.3694  0.0737 -0.1066
 6012TIP3   OH239450   1.268   4.885   3.764  0.3134  0.0024 -0.0131
 6012TIP3    H139451   1.197   4.893   3.828  0.1896  1.0879 -0.2724
 6012TIP3    H239452   1.344   4.924   3.807  0.6187 -0.6459  0.0476
 6013TIP3   OH239453   2.286   5.764  15.187 -0.8600 -0.0591  0.2625
 6013TIP3    H139454   2.221   5.729  15.248 -1.1099 -1.1179 -0.5737
 6013TIP3    H239455   2.288   5.700  15.115 -1.7486  1.9021 -1.6432
 6014TIP3   OH239456   2.955   5.801   5.936  0.1503  0.3424 -0.1963
 6014TIP3    H139457   2.985   5.745   6.008 -1.0542 -0.4925 -0.3091
 6014TIP3    H239458   2.969   5.749   5.857  0.2959  0.7489 -0.4386
 6015TIP3   OH239459   2.841   2.601   4.921  0.5884  0.1462  0.0291
 6015TIP3    H139460   2.749   2.602   4.895  0.5042  1.7780  0.2815
 6015TIP3    H239461   2.888   2.573   4.843 -0.0894 -0.2216 -0.2497
 6016TIP3   OH239462   0.652   5.129  12.347  0.3815 -0.3471 -0.0564
 6016TIP3    H139463   0.746   5.129  12.363  0.3822 -0.3176 -0.0608
 6016TIP3    H239464   0.639   5.064  12.279 -0.0000 -2.9998  2.3511
 6017TIP3   OH239465   0.964   6.479   0.593 -0.5874  0.2309  0.0671
 6017TIP3    H139466   0.988   6.387   0.591 -0.4667  0.2596  0.1358
 6017TIP3    H239467   1.045   6.525   0.569 -0.3035  0.3744  1.2437
 6018TIP3   OH239468   2.260   4.292   1.705 -0.7329 -0.0844  0.0362
 6018TIP3    H139469   2.312   4.252   1.775  3.6823  2.8570 -1.2002
 6018TIP3    H239470   2.205   4.356   1.750 -1.4359 -1.3747  1.1151
 6019TIP3   OH239471   2.959   1.894   3.998  0.3839  0.4991  0.1509
 6019TIP3    H139472   2.892   1.937   4.051 -0.7299 -1.5491  0.5133
 6019TIP3    H239473   2.933   1.911   3.908 -0.1614  0.4379  0.2921
 6020TIP3   OH239474   3.189   1.319   3.632  0.4642 -0.3473  0.2030
 6020TIP3    H139475   3.127   1.378   3.590 -0.3309 -0.0401  1.7037
 6020TIP3    H239476   3.155   1.231   3.613 -0.8768 -0.1719  1.5487
 6021TIP3   OH239477   0.797   0.739   0.429  0.5381  0.4225 -0.8675
 6021TIP3    H139478   0.834   0.699   0.508 -0.6222  0.1812 -0.4212
 6021TIP3    H239479   0.822   0.831   0.435  0.0000  0.5275  0.0964
 6022TIP3   OH239480   3.502   2.053  13.014 -0.2152  0.2284 -0.2108
 6022TIP3    H139481   3.514   2.094  13.100  0.9201 -1.4668  0.5131
 6022TIP3    H239482   3.418   2.086  12.982 -0.5871  1.0130  1.4789
 6023TIP3   OH239483   6.253   4.808   3.353 -0.4176  0.1664 -0.5945
 6023TIP3    H139484   6.297   4.723   3.340 -0.3448  0.1802 -0.4402
 6023TIP3    H239485   6.160   4.786   3.354 -0.3765 -0.0016  0.0904
 6024TIP3   OH239486   0.461   2.817  13.606 -0.5125 -0.5083 -0.1534
 6024TIP3    H139487   0.543   2.842  13.648 -0.2953 -1.6988  0.1595
 6024TIP3    H239488   0.436   2.894  13.555  0.5740  0.0203  0.0820
 6025TIP3   OH239489   4.424   0.015   2.788 -0.1002  0.0882  0.6707
 6025TIP3    H139490   4.445   0.037   2.697 -0.0432  1.6712  1.0387
 6025TIP3    H239491   4.339   0.058   2.804  0.1068  0.2070  1.4895
 6026TIP3   OH239492   0.027   0.380   5.839 -0.0774 -0.1664  0.2758
 6026TIP3    H139493   0.030   0.475   5.837  3.6207 -0.1165 -0.2270
 6026TIP3    H239494   0.005   0.357   5.929  0.0521  1.1761  0.6556
 6027TIP3   OH239495   5.422   4.531  11.900 -0.1498  0.0719 -0.0693
 6027TIP3    H139496   5.382   4.590  11.963  0.1726 -2.1799  2.4130
 6027TIP3    H239497   5.514   4.526  11.927 -0.0724 -1.1574 -0.4984
 6028TIP3   OH239498   2.060   5.454  15.921  0.5783  0.4997  0.0151
 6028TIP3    H139499   2.080   5.508  15.845 -1.7170  0.1063 -0.9423
 6028TIP3    H239500   2.055   5.516  15.994 -3.3284  2.0256 -1.2582
 6029TIP3   OH239501   4.429   2.619  16.607 -0.7801  0.7841  0.4096
 6029TIP3    H139502   4.495   2.682  16.578 -0.6567  1.3468  1.8639
 6029TIP3    H239503   4.396   2.580  16.525  0.9406  0.8777 -0.3692
 6030TIP3   OH239504   5.408   3.982   4.286 -0.2275  0.1454 -0.7846
 6030TIP3    H139505   5.326   3.937   4.306  0.8502 -1.8165 -0.5087
 6030TIP3    H239506   5.383   4.073   4.271 -2.1753  0.0621  1.4528
 6031TIP3   OH239507   1.197   4.315  15.469 -0.3599 -0.0440  0.2805
 6031TIP3    H139508   1.241   4.270  15.397 -1.9802  0.2228 -0.9408
 6031TIP3    H239509   1.130   4.254  15.498 -1.5307  0.9031 -0.3300
 6032TIP3   OH239510   0.409   2.648  14.623 -0.3540  0.4645 -0.3138
 6032TIP3    H139511   0.460   2.596  14.561  1.6222  1.9361 -0.0191
 6032TIP3    H239512   0.364   2.584  14.677  2.6175 -1.0618  0.5686
 6033TIP3   OH239513   6.664   3.787  12.724  0.2213 -0.1003 -0.2137
 6033TIP3    H139514   6.605   3.847  12.678  1.2856  0.2663 -1.1481
 6033TIP3    H239515   6.607   3.718  12.757 -0.6029 -0.3713 -2.0808
 6034TIP3   OH239516   3.899   1.516  12.564  0.0201  0.4395  0.5881
 6034TIP3    H139517   3.877   1.562  12.483  4.8890  2.0891 -0.1501
 6034TIP3    H239518   3.897   1.584  12.631  1.2217  0.3541  0.7306
 6035TIP3   OH239519   3.734   4.619  16.525 -0.0483 -0.2079 -0.0725
 6035TIP3    H139520   3.692   4.607  16.610 -1.8163 -0.4726 -0.9346
 6035TIP3    H239521   3.679   4.570  16.464  0.4568  0.9982 -1.5659
 6036TIP3   OH239522   4.407   1.463  16.518 -0.5688 -0.4149 -0.2917
 6036TIP3    H139523   4.440   1.442  16.605  1.9859  0.1941 -1.0344
 6036TIP3    H239524   4.351   1.539  16.531 -0.8864 -0.8239  0.8893
 6037TIP3   OH239525   2.627   4.789  16.961  0.0179 -0.3279 -0.2821
 6037TIP3    H139526   2.597   4.734  16.890 -1.6286 -0.5462  0.5390
 6037TIP3    H239527   2.597   4.744  17.041 -0.7673  1.3714  0.4317
 6038TIP3   OH239528   1.275   1.717   2.095 -0.1890 -0.8499  0.0591
 6038TIP3    H139529   1.257   1.689   2.185  0.2257 -2.4262 -0.3184
 6038TIP3    H239530   1.248   1.642   2.041 -0.9482  0.2819 -1.1863
 6039TIP3   OH239531   3.683   5.263   1.672 -0.3343  0.3690  0.0742
 6039TIP3    H139532   3.700   5.339   1.617  0.8973  0.2320  0.2288
 6039TIP3    H239533   3.727   5.282   1.755 -1.5747  0.2690  0.7744
 6040TIP3   OH239534   0.678   4.000   4.653  0.3222  0.0332  0.6637
 6040TIP3    H139535   0.675   4.017   4.559 -0.7061 -1.4599  0.3866
 6040TIP3    H239536   0.730   4.072   4.689  1.7875 -0.0350 -1.1875
 6041TIP3   OH239537   0.070   5.831  15.291 -0.0868 -0.4734 -0.3486
 6041TIP3    H139538   0.099   5.838  15.382 -2.3508 -1.8348  0.5682
 6041TIP3    H239539   0.022   5.912  15.275  1.0396  0.1470 -0.6368
 6042TIP3   OH239540   0.280   3.229  13.780  0.2532  0.5075 -0.2119
 6042TIP3    H139541   0.319   3.315  13.769 -0.5328  1.0721  1.2210
 6042TIP3    H239542   0.330   3.188  13.851 -0.3186  0.3708  0.1228
 6043TIP3   OH239543   6.810   6.743   3.381  0.5588 -0.5797  0.4252
 6043TIP3    H139544   6.901   6.722   3.402  1.3191  1.1252 -0.9151
 6043TIP3    H239545   6.780   6.670   3.328  1.9560 -0.0544 -1.1596
 6044TIP3   OH239546   3.053   2.122  10.908  0.8332  0.0442 -0.3019
 6044TIP3    H139547   3.123   2.106  10.845 -1.0033 -0.6806 -2.2772
 6044TIP3    H239548   3.066   2.055  10.975  3.0787  1.1005  0.4246
 6045TIP3   OH239549   6.645   0.531  13.776 -0.1946 -0.2584  0.2690
 6045TIP3    H139550   6.725   0.489  13.742  0.6364  1.9286 -0.6823
 6045TIP3    H239551   6.574   0.476  13.743  0.8672 -1.6395  0.1781
 6046TIP3   OH239552   2.607   3.707   1.815 -0.0943  0.1663  0.0779
 6046TIP3    H139553   2.659   3.639   1.772 -1.4833 -1.1789  0.4321
 6046TIP3    H239554   2.521   3.667   1.826 -0.0654  0.7258  3.3426
 6047TIP3   OH239555   3.988   3.768   3.885 -0.0049  0.1922  0.5869
 6047TIP3    H139556   4.049   3.840   3.872  1.8788 -1.3078  0.5879
 6047TIP3    H239557   3.980   3.761   3.980 -0.0704  0.3112  0.5900
 6048TIP3   OH239558   1.127   3.311  12.679 -0.5407  0.2729 -0.3133
 6048TIP3    H139559   1.136   3.303  12.584 -0.5359  1.1688 -0.3958
 6048TIP3    H239560   1.073   3.389  12.692  0.5021  0.8991  0.4390
 6049TIP3   OH239561   5.229   2.058   5.873  0.4905 -0.3149 -0.1743
 6049TIP3    H139562   5.162   1.994   5.848  1.0806 -0.2865 -1.9410
 6049TIP3    H239563   5.290   2.009   5.927  0.5419 -1.0781 -0.9047
 6050TIP3   OH239564   6.165   0.553  14.720 -0.6611 -0.6038 -0.2277
 6050TIP3    H139565   6.080   0.570  14.761 -1.4217  0.2055 -2.0179
 6050TIP3    H239566   6.155   0.467  14.679 -0.5794 -0.5701 -0.3210
 6051TIP3   OH239567   4.567   5.968  14.565 -0.3954  0.1032  0.3073
 6051TIP3    H139568   4.586   6.028  14.637 -1.4507  0.5941  0.2048
 6051TIP3    H239569   4.576   6.022  14.486 -1.2519  0.1164  0.2095
 6052TIP3   OH239570   4.081   0.991   5.765 -0.0390 -0.0940 -0.5248
 6052TIP3    H139571   4.052   0.919   5.820 -1.1508  0.2174 -0.6830
 6052TIP3    H239572   4.017   0.995   5.694  1.3471 -0.4733 -1.8454
 6053TIP3   OH239573   2.479   3.588  16.006  0.3538  0.8001 -0.1458
 6053TIP3    H139574   2.414   3.547  16.063  1.1143  0.0170  0.1906
 6053TIP3    H239575   2.437   3.667  15.974 -0.4113  0.8034  0.8187
 6054TIP3   OH239576   1.685   0.156  12.028  0.7929  0.3323 -0.0980
 6054TIP3    H139577   1.719   0.209  11.956 -1.3869  2.0506  0.0387
 6054TIP3    H239578   1.648   0.078  11.985  3.0129 -0.6315 -0.3988
 6055TIP3   OH239579   5.434   1.722   1.429  0.0823  0.0590  0.1796
 6055TIP3    H139580   5.527   1.730   1.408  0.3667 -2.7629 -0.0228
 6055TIP3    H239581   5.429   1.647   1.488 -1.7627  2.2177  3.0021
 6056TIP3   OH239582   5.565   5.350   3.015  0.1507  0.4183  0.3189
 6056TIP3    H139583   5.588   5.407   3.088  0.3390 -0.7500  1.1920
 6056TIP3    H239584   5.562   5.262   3.052 -1.0826 -0.0544 -0.7879
 6057TIP3   OH239585   1.924   3.557   4.153 -0.3914  0.1625 -0.7788
 6057TIP3    H139586   1.951   3.631   4.208 -2.0267  0.4541 -0.3298
 6057TIP3    H239587   1.889   3.597   4.074 -0.2381 -0.1760 -1.0203
 6058TIP3   OH239588   2.313   5.482  16.077  0.1106 -0.0031  1.0550
 6058TIP3    H139589   2.233   5.498  16.028  0.6330 -1.1132 -0.2350
 6058TIP3    H239590   2.379   5.537  16.034  0.2128  0.3098  1.6091
 6059TIP3   OH239591   3.939   4.596   1.518  0.5291  0.0641  0.8712
 6059TIP3    H139592   3.952   4.687   1.543  0.2840  0.0921  0.9034
 6059TIP3    H239593   3.980   4.589   1.431 -0.8687  0.6311  0.1266
 6060TIP3   OH239594   5.455   5.388   3.922  0.0914  0.1516 -0.5517
 6060TIP3    H139595   5.457   5.304   3.967 -1.5566 -0.4284 -1.4442
 6060TIP3    H239596   5.525   5.439   3.962 -1.4812 -0.1400  2.9909
 6061TIP3   OH239597   5.370   4.381  15.273 -0.2584 -0.1350 -0.3206
 6061TIP3    H139598   5.428   4.403  15.345 -0.0028 -1.1831 -0.1941
 6061TIP3    H239599   5.429   4.357  15.201 -0.5245 -0.6092 -0.3830
 6062TIP3   OH239600   3.830   5.581  10.531 -0.2076  0.0230 -0.4122
 6062TIP3    H139601   3.748   5.570  10.484 -0.0181 -1.4080 -0.4423
 6062TIP3    H239602   3.815   5.658  10.587 -1.1174  0.5353 -1.3150
 6063TIP3   OH239603   1.720   4.968   2.841  0.5982  0.1581  0.4636
 6063TIP3    H139604   1.709   5.063   2.829  0.1339  0.0726  0.1668
 6063TIP3    H239605   1.685   4.952   2.929  0.3342  0.2078  0.3682
 6064TIP3   OH239606   3.713   4.744  12.850  0.1268 -0.2469 -0.7725
 6064TIP3    H139607   3.710   4.839  12.845 -0.5728 -0.2522 -0.5164
 6064TIP3    H239608   3.800   4.724  12.886  0.2525  0.2886 -0.7794
 6065TIP3   OH239609   1.333   4.694   0.314 -0.0179  0.1233 -0.3928
 6065TIP3    H139610   1.424   4.666   0.310  0.8346  2.5490  0.2619
 6065TIP3    H239611   1.337   4.790   0.310 -2.3552  0.4562  2.0376
 6066TIP3   OH239612   2.090   5.676  14.005 -0.0156  0.3788 -0.2696
 6066TIP3    H139613   2.183   5.680  13.981  0.2217 -0.9435  0.3665
 6066TIP3    H239614   2.070   5.765  14.035  0.9033  0.8156 -0.8815
 6067TIP3   OH239615   6.569   5.336  16.226 -0.2951 -0.1335 -0.3080
 6067TIP3    H139616   6.654   5.295  16.244 -0.4317  0.6061  2.5135
 6067TIP3    H239617   6.590   5.412  16.172  1.1043  0.9131  1.5855
 6068TIP3   OH239618   3.818   0.139  13.026  0.1798  0.2322 -0.0747
 6068TIP3    H139619   3.898   0.110  12.982  0.9566  2.4744 -0.2780
 6068TIP3    H239620   3.749   0.125  12.961  1.0265  1.7551 -1.3722
 6069TIP3   OH239621   3.490   3.054   3.191  0.5762 -0.2802  0.0950
 6069TIP3    H139622   3.456   3.016   3.271 -0.6176  0.5852  0.0284
 6069TIP3    H239623   3.512   3.144   3.214  2.7359 -0.7552  0.0912
 6070TIP3   OH239624   4.989   1.947   5.789  0.8434 -0.2720  0.2990
 6070TIP3    H139625   4.902   1.970   5.821  1.9230  2.6595  1.3442
 6070TIP3    H239626   4.978   1.941   5.694 -0.2491  1.4618  0.2770
 6071TIP3   OH239627   2.833   4.031   5.584  0.5018 -0.0718  0.0866
 6071TIP3    H139628   2.835   3.964   5.652 -0.9665  0.6196  0.8461
 6071TIP3    H239629   2.893   4.099   5.615  0.0938  0.0875  0.5286
 6072TIP3   OH239630   4.068   1.266  10.827 -0.4459  0.1931 -0.1002
 6072TIP3    H139631   4.118   1.188  10.852 -0.2880 -0.1160 -1.3033
 6072TIP3    H239632   3.996   1.232  10.773 -1.3283  0.7380  0.6988
 6073TIP3   OH239633   4.318   5.122   3.613  0.5981 -0.2354 -0.2926
 6073TIP3    H139634   4.358   5.075   3.541  2.2239  1.0189 -0.2460
 6073TIP3    H239635   4.371   5.200   3.625 -1.8604  1.5663 -0.2242
 6074TIP3   OH239636   3.709   2.300  15.721  0.4037  0.0242 -0.0457
 6074TIP3    H139637   3.662   2.379  15.748  1.8668  0.9566 -0.1252
 6074TIP3    H239638   3.779   2.290  15.786 -0.4866 -1.9416  0.6931
 6075TIP3   OH239639   2.422   0.050   3.223 -0.3240 -0.2435 -0.0324
 6075TIP3    H139640   2.459   0.120   3.277 -0.6402 -0.1826  0.1046
 6075TIP3    H239641   2.397   0.093   3.142 -2.3032  0.2062  0.7606
 6076TIP3   OH239642   1.309   6.629   2.506  0.4769 -0.0896 -0.0402
 6076TIP3    H139643   1.253   6.687   2.557 -0.2250 -0.2225 -0.6477
 6076TIP3    H239644   1.287   6.541   2.538  0.3453 -0.1429 -0.2831
 6077TIP3   OH239645   3.382   4.417  11.243  0.3990  0.2183  0.0669
 6077TIP3    H139646   3.464   4.452  11.207  0.9605 -0.0412  1.0682
 6077TIP3    H239647   3.351   4.356  11.175  1.5162 -0.3703  0.0541
 6078TIP3   OH239648   3.466   5.465  12.142 -0.0929  0.3030  0.4356
 6078TIP3    H139649   3.476   5.533  12.208 -0.1018  0.3499  0.3881
 6078TIP3    H239650   3.377   5.433  12.154  0.3297 -0.6168  1.3449
 6079TIP3   OH239651   3.058   4.037   2.249 -0.6268  1.2148 -0.5323
 6079TIP3    H139652   3.133   4.022   2.307  0.9198  0.2974 -2.6105
 6079TIP3    H239653   3.013   4.112   2.287 -0.6861 -0.2800  2.7186
 6080TIP3   OH239654   3.551   4.062   0.012 -0.0425 -0.2187 -0.3566
 6080TIP3    H139655   3.587   3.981   0.047 -1.9314 -0.9174  0.0710
 6080TIP3    H239656   3.471   4.035  -0.034 -0.4723  1.3489 -0.5769
 6081TIP3   OH239657   3.963   5.656   3.593 -0.1519  0.2997  0.3901
 6081TIP3    H139658   4.020   5.715   3.643  0.5101 -0.0485  0.0590
 6081TIP3    H239659   3.993   5.568   3.617 -1.2854  0.0772  1.0627
 6082TIP3   OH239660   6.608   3.392  11.726  0.2452  0.2773  0.5640
 6082TIP3    H139661   6.641   3.480  11.745 -0.4387  0.7091 -0.1852
 6082TIP3    H239662   6.624   3.380  11.633 -0.0066 -0.2450  0.5849
 6083TIP3   OH239663   0.073   2.206   4.530 -0.2990 -0.2380  0.2843
 6083TIP3    H139664   0.027   2.123   4.523 -0.6984 -0.0226  0.3277
 6083TIP3    H239665   0.004   2.271   4.542  0.0208  0.0799  0.4260
 6084TIP3   OH239666   1.446   1.637   5.909 -0.6226  0.5892  0.1372
 6084TIP3    H139667   1.430   1.635   5.814 -0.0290  2.2659 -0.0205
 6084TIP3    H239668   1.366   1.676   5.945 -1.0954 -0.5894  0.4154
 6085TIP3   OH239669   2.197   5.085   5.563  0.5248  0.7826 -0.2551
 6085TIP3    H139670   2.135   5.028   5.517  0.5383  0.9420 -0.4746
 6085TIP3    H239671   2.281   5.039   5.556 -0.0044 -0.7381  2.3032
 6086TIP3   OH239672   1.798   6.776   5.465  0.5964 -0.2648 -0.3947
 6086TIP3    H139673   1.891   6.754   5.479  0.9349  2.9018  4.7145
 6086TIP3    H239674   1.751   6.705   5.508  1.0327  0.9218  2.2008
 6087TIP3   OH239675   6.440   4.802  12.512  0.3852  0.0185 -0.1228
 6087TIP3    H139676   6.514   4.742  12.517 -0.9965 -1.7865 -0.2312
 6087TIP3    H239677   6.389   4.784  12.591 -1.2972 -0.7195 -1.3133
 6088TIP3   OH239678   3.706   6.123  12.573 -0.5825 -0.2257 -0.0950
 6088TIP3    H139679   3.702   6.136  12.478  0.9237  0.8678 -0.0529
 6088TIP3    H239680   3.798   6.100  12.589 -0.3630  1.4358  1.2721
 6089TIP3   OH239681   1.043   5.440  14.292  0.1427 -0.5037  0.1897
 6089TIP3    H139682   1.128   5.483  14.301 -0.4548  0.6240  0.7745
 6089TIP3    H239683   0.988   5.506  14.249 -0.8680 -0.5744  1.3217
 6090TIP3   OH239684   0.466   2.740  10.714 -0.2960  0.0716 -0.0750
 6090TIP3    H139685   0.377   2.765  10.737 -1.4586 -1.3618 -2.5751
 6090TIP3    H239686   0.478   2.771  10.624  1.8286  0.4372  0.2851
 6091TIP3   OH239687   0.419   6.157   5.271  0.1918 -0.3916 -0.1877
 6091TIP3    H139688   0.427   6.214   5.194 -0.0833  2.1585  1.5543
 6091TIP3    H239689   0.509   6.151   5.304  0.1213 -0.4413 -0.0108
 6092TIP3   OH239690   1.250   2.108   1.721 -0.6766  0.3966  0.1242
 6092TIP3    H139691   1.328   2.153   1.690 -2.4127  2.4402 -1.5965
 6092TIP3    H239692   1.282   2.025   1.757  2.2274  1.1314 -0.5515
 6093TIP3   OH239693   2.015   0.684   6.076  0.0526 -0.3379 -0.0970
 6093TIP3    H139694   1.994   0.750   6.142  0.5583 -0.3794  0.1116
 6093TIP3    H239695   2.078   0.626   6.118  0.6495 -0.1619 -0.7207
 6094TIP3   OH239696   1.782   0.237   6.358 -0.8165 -0.8531 -0.7777
 6094TIP3    H139697   1.861   0.185   6.374 -0.7395 -0.4823  0.1099
 6094TIP3    H239698   1.710   0.181   6.387 -0.7349 -0.4815  0.1616
 6095TIP3   OH239699   2.247   4.686  12.951 -0.3387 -0.5986  0.1445
 6095TIP3    H139700   2.323   4.740  12.928  0.0401 -0.6710  1.1553
 6095TIP3    H239701   2.280   4.627  13.018 -0.7271 -2.1574 -0.9934
 6096TIP3   OH239702   2.432   1.144   5.736  0.4278 -0.8831 -0.4247
 6096TIP3    H139703   2.507   1.175   5.788 -1.6482 -1.4695  3.2646
 6096TIP3    H239704   2.355   1.181   5.780 -1.5885  0.5251 -4.6176
 6097TIP3   OH239705   3.670   3.658  10.379 -0.2228 -0.0804  0.3727
 6097TIP3    H139706   3.736   3.590  10.393 -0.4436 -0.7672 -1.6742
 6097TIP3    H239707   3.592   3.626  10.425  0.2601 -0.2190  1.1144
 6098TIP3   OH239708   1.069   0.374  16.592 -0.8272 -0.2042  0.3619
 6098TIP3    H139709   1.071   0.385  16.687 -0.3314 -1.8777  0.5802
 6098TIP3    H239710   1.104   0.456  16.558  2.8158 -0.9549  1.7898
 6099TIP3   OH239711   2.364   0.460  16.855  0.7565 -0.0947 -0.1950
 6099TIP3    H139712   2.371   0.411  16.773  1.8317 -0.5869  0.1703
 6099TIP3    H239713   2.326   0.544  16.829  0.9125 -0.3064 -1.1755
 6100TIP3   OH239714   6.450   3.254   1.338  0.7272 -0.3865  0.1345
 6100TIP3    H139715   6.542   3.228   1.351  0.0870 -2.4466  1.0612
 6100TIP3    H239716   6.404   3.213   1.411 -0.9153  0.8061 -0.1917
 6101TIP3   OH239717   6.309   1.482   2.263 -0.0399  0.2654  0.4179
 6101TIP3    H139718   6.372   1.411   2.253  0.6959  1.1035 -1.2438
 6101TIP3    H239719   6.334   1.525   2.345  1.1373  0.1634  0.1307
 6102TIP3   OH239720   1.906   3.361  13.003  0.1735  0.5600 -0.2764
 6102TIP3    H139721   1.891   3.290  12.941 -1.1057 -1.8769  2.5513
 6102TIP3    H239722   1.867   3.438  12.961 -2.5477 -1.3769 -1.6791
 6103TIP3   OH239723   0.314   3.817  16.364 -0.0502  0.1002  0.5484
 6103TIP3    H139724   0.241   3.803  16.303  0.2979 -0.7324  0.3209
 6103TIP3    H239725   0.277   3.876  16.430 -0.9325 -0.2882  0.4256
 6104TIP3   OH239726   1.017   6.652   3.717 -0.2705 -0.2520 -0.0464
 6104TIP3    H139727   0.940   6.678   3.667 -0.1807 -1.5304 -0.8953
 6104TIP3    H239728   1.091   6.667   3.658 -0.2549 -2.7772 -0.7811
 6105TIP3   OH239729   3.375   4.377   3.812  0.4293 -0.4414  0.4849
 6105TIP3    H139730   3.469   4.365   3.828  1.2974  2.1741 -1.9148
 6105TIP3    H239731   3.364   4.352   3.720 -1.3020 -0.8496  0.7787
 6106TIP3   OH239732   5.546   3.738   3.575 -0.0352  0.0953 -0.3490
 6106TIP3    H139733   5.513   3.827   3.584  0.0582 -0.0534  2.5189
 6106TIP3    H239734   5.525   3.697   3.659 -0.8145 -2.8642 -1.8480
 6107TIP3   OH239735   6.665   3.345   5.378 -0.0306 -0.8236 -0.1299
 6107TIP3    H139736   6.590   3.344   5.318 -0.1916 -0.9777  0.0703
 6107TIP3    H239737   6.727   3.283   5.340  0.8023  0.6660 -1.2977
 6108TIP3   OH239738   2.691   5.359   0.329  0.3463  0.7267  0.2866
 6108TIP3    H139739   2.604   5.369   0.369 -0.0898  0.0683 -0.4745
 6108TIP3    H239740   2.678   5.386   0.238  0.5883 -0.7955 -0.2145
 6109TIP3   OH239741   3.963   6.371  12.841  0.0965  0.1942 -0.0854
 6109TIP3    H139742   3.949   6.414  12.925  1.1007 -1.6774  1.1180
 6109TIP3    H239743   3.892   6.307  12.835  0.4509 -0.1828 -0.3032
 6110TIP3   OH239744   6.663   1.116   0.457 -0.4018 -0.4197 -0.0592
 6110TIP3    H139745   6.654   1.024   0.480 -1.2437 -0.0005  1.3772
 6110TIP3    H239746   6.579   1.140   0.418 -0.2024 -0.2396 -0.3880
 6111TIP3   OH239747   5.586   1.767   3.868  0.7165  0.1164 -1.3947
 6111TIP3    H139748   5.502   1.729   3.843  0.4094 -1.1393  1.2357
 6111TIP3    H239749   5.572   1.862   3.861 -0.3801 -0.1016 -2.4873
 6112TIP3   OH239750   2.394   4.699   1.098  0.2943  0.1703  0.0674
 6112TIP3    H139751   2.465   4.691   1.034 -0.0062  0.5274 -0.3095
 6112TIP3    H239752   2.382   4.609   1.130 -0.6076 -0.3167 -1.5206
 6113TIP3   OH239753   4.545   6.183   4.442 -0.1818 -0.7280 -0.6074
 6113TIP3    H139754   4.598   6.118   4.488 -1.5895 -1.0895  0.5713
 6113TIP3    H239755   4.525   6.250   4.508 -2.0948 -1.1719 -0.6699
 6114TIP3   OH239756   2.842   3.886  14.758 -0.3426  0.2066 -0.0016
 6114TIP3    H139757   2.894   3.960  14.726 -2.0691  0.7438 -1.7678
 6114TIP3    H239758   2.788   3.924  14.828  1.5883 -0.3717  1.8939
 6115TIP3   OH239759   6.307   3.897  15.160 -0.0384 -0.0129  1.1322
 6115TIP3    H139760   6.374   3.852  15.108 -0.4160 -0.4668  1.0358
 6115TIP3    H239761   6.226   3.882  15.113  0.0265  2.0832  0.2428
 6116TIP3   OH239762   3.928   2.572  16.758 -0.2548 -0.1743  0.2465
 6116TIP3    H139763   3.997   2.535  16.702 -0.2334 -1.6983  1.2281
 6116TIP3    H239764   3.969   2.647  16.801 -0.0224  0.5209 -1.1273
 6117TIP3   OH239765   0.977   2.036   5.342  0.2236 -0.1373  0.3735
 6117TIP3    H139766   1.043   2.058   5.277  1.2213 -1.2433  0.9685
 6117TIP3    H239767   0.928   2.117   5.356  0.6639  0.3842 -0.9658
 6118TIP3   OH239768   2.888   6.551  14.988  0.0629  0.1577  0.0610
 6118TIP3    H139769   2.851   6.636  14.968 -0.8322 -0.4669 -1.0214
 6118TIP3    H239770   2.860   6.533  15.078 -0.1965  0.7634  0.1036
 6119TIP3   OH239771   5.544   4.938  12.767  0.0203  0.3397  1.0993
 6119TIP3    H139772   5.633   4.928  12.732 -0.6621  0.1782 -0.7062
 6119TIP3    H239773   5.508   4.849  12.765 -0.5010  0.5526  0.9075
 6120TIP3   OH239774   0.643   6.361  11.599 -0.3823  0.6085  0.0347
 6120TIP3    H139775   0.687   6.285  11.563  1.8108  1.2760  1.1188
 6120TIP3    H239776   0.587   6.326  11.669 -3.4470 -0.4949 -2.7196
 6121TIP3   OH239777   0.021   4.349  11.456 -0.3248 -0.5844  0.2892
 6121TIP3    H139778   0.046   4.426  11.507 -2.4591  0.5487 -0.2649
 6121TIP3    H239779   0.051   4.369  11.368 -2.3393  0.4564 -0.2230
 6122TIP3   OH239780   4.641   1.733  10.844  0.5187  0.0913 -0.0419
 6122TIP3    H139781   4.605   1.709  10.759 -3.0192 -1.0475  1.6180
 6122TIP3    H239782   4.678   1.652  10.878 -1.0563 -0.3143  0.7977
 6123TIP3   OH239783   4.780   4.337   4.399  0.6860 -0.3250  0.6707
 6123TIP3    H139784   4.752   4.427   4.381  3.1854  0.0637 -2.1813
 6123TIP3    H239785   4.710   4.282   4.364  1.2874  0.6066 -2.3454
 6124TIP3   OH239786   6.577   2.271  10.224  0.3327 -0.3137  0.0834
 6124TIP3    H139787   6.656   2.309  10.263  0.1059 -0.6709  0.9316
 6124TIP3    H239788   6.509   2.337  10.237  0.0222 -0.8319  1.2348
 6125TIP3   OH239789   1.439   0.574   1.186  0.0907  0.1368 -0.1922
 6125TIP3    H139790   1.438   0.483   1.158 -0.4279  0.2929 -0.7048
 6125TIP3    H239791   1.354   0.608   1.158 -0.1551  0.4974  0.9300
 6126TIP3   OH239792   5.124   5.629   2.724  0.4148  0.0370 -0.2870
 6126TIP3    H139793   5.204   5.669   2.760 -0.1683 -0.3948  1.5934
 6126TIP3    H239794   5.094   5.570   2.793 -1.2923 -0.1486 -1.1420
 6127TIP3   OH239795   4.144   2.638   3.789  0.5249  0.7077  0.0892
 6127TIP3    H139796   4.050   2.637   3.767  0.0274  0.6926  2.0521
 6127TIP3    H239797   4.147   2.672   3.878  2.2872 -0.6588  0.5976
 6128TIP3   OH239798   6.663   0.952   2.399  0.2799 -0.1911 -0.7154
 6128TIP3    H139799   6.624   0.943   2.312 -1.0626  0.0201 -0.1570
 6128TIP3    H239800   6.697   1.042   2.400 -0.3425  0.0542 -0.7891
 6129TIP3   OH239801   0.159   4.204  15.348 -0.1061  0.3552  0.1465
 6129TIP3    H139802   0.252   4.181  15.357 -0.3581 -0.8384 -0.1629
 6129TIP3    H239803   0.116   4.121  15.326 -0.9229  1.3188 -2.1003
 6130TIP3   OH239804   2.547   4.285  12.267  0.1186 -0.1352 -0.2269
 6130TIP3    H139805   2.572   4.333  12.346  0.6243  0.0273 -0.4808
 6130TIP3    H239806   2.579   4.196  12.281 -0.1778 -0.2177 -0.0652
 6131TIP3   OH239807   5.772   1.652  16.225  0.0443 -0.0211 -0.2145
 6131TIP3    H139808   5.791   1.575  16.279 -0.1491 -1.1934 -1.7432
 6131TIP3    H239809   5.687   1.683  16.256 -0.1650 -0.8026  0.0049
 6132TIP3   OH239810   0.867   6.795   4.815 -0.2535  1.1277 -0.3392
 6132TIP3    H139811   0.957   6.806   4.786  0.3331 -0.5532  0.6844
 6132TIP3    H239812   0.832   6.727   4.758  0.1336 -0.4131  1.1584
 6133TIP3   OH239813   0.787   4.959   4.501 -0.6694  0.4679 -0.0766
 6133TIP3    H139814   0.850   4.887   4.503 -0.2241  0.8533 -0.0659
 6133TIP3    H239815   0.702   4.917   4.513 -0.4162 -0.0595 -0.1156
 6134TIP3   OH239816   1.735   4.927   0.234  0.3211  0.4407 -0.1082
 6134TIP3    H139817   1.690   4.867   0.292  0.3096 -2.3925 -2.7612
 6134TIP3    H239818   1.826   4.929   0.266 -0.0828  0.5080  1.0761
 6135TIP3   OH239819   1.195   5.789   1.553 -0.0816  0.1386 -0.1769
 6135TIP3    H139820   1.185   5.755   1.464 -2.9296  0.9619 -0.2655
 6135TIP3    H239821   1.239   5.872   1.542 -1.7617  0.9691 -1.0686
 6136TIP3   OH239822   0.361   1.019  14.635 -0.3029  0.4570 -0.0588
 6136TIP3    H139823   0.434   1.070  14.601 -0.8104  1.7647  0.7453
 6136TIP3    H239824   0.308   0.998  14.558  1.3476 -1.3103 -0.7920
 6137TIP3   OH239825   0.250   1.658   3.594  0.0874 -0.5434  0.7495
 6137TIP3    H139826   0.218   1.594   3.529  2.4003 -0.7865 -0.2246
 6137TIP3    H239827   0.194   1.735   3.581 -0.6125 -1.2007 -0.3265
 6138TIP3   OH239828   0.875   5.866  11.243  0.2405 -0.2966 -0.1102
 6138TIP3    H139829   0.966   5.871  11.213  0.6337  0.0595  1.0807
 6138TIP3    H239830   0.823   5.874  11.163  1.2206  1.6707 -0.6100
 6139TIP3   OH239831   4.459   3.033  14.151  0.4620  0.2209 -0.3253
 6139TIP3    H139832   4.495   2.992  14.230  0.0194  0.6961  0.1335
 6139TIP3    H239833   4.535   3.049  14.095  0.5002 -2.5317 -1.1751
 6140TIP3   OH239834   2.256   5.070  16.453 -0.3374  0.3453 -0.2416
 6140TIP3    H139835   2.191   5.097  16.389 -1.7343 -1.0292  0.5041
 6140TIP3    H239836   2.263   5.144  16.513 -0.6108  0.8266 -0.8004
 6141TIP3   OH239837   4.992   3.248  15.510 -0.5369  0.5079 -1.0668
 6141TIP3    H139838   4.914   3.203  15.476 -1.8056  3.0344 -1.7162
 6141TIP3    H239839   5.058   3.235  15.442 -1.3749  0.9543 -1.9863
 6142TIP3   OH239840   1.033   3.656  11.961  0.4979  0.6153 -0.1143
 6142TIP3    H139841   1.055   3.595  11.890  0.1044  2.2692 -1.7333
 6142TIP3    H239842   1.116   3.698  11.983  1.0770 -1.3939  2.0254
 6143TIP3   OH239843   4.937   4.649  16.787  0.4245 -0.7120  0.0633
 6143TIP3    H139844   4.890   4.668  16.867 -0.3286  0.0807 -0.5499
 6143TIP3    H239845   5.009   4.592  16.814  1.9195  1.7971  1.7856
 6144TIP3   OH239846   2.968   1.324  14.402  0.0403 -0.1970 -0.1472
 6144TIP3    H139847   3.005   1.254  14.456  2.9189 -0.4001 -2.1541
 6144TIP3    H239848   2.914   1.279  14.338 -1.6663 -0.1232  1.1648
 6145TIP3   OH239849   0.561   6.393   2.817 -0.4356  0.3313 -0.1646
 6145TIP3    H139850   0.651   6.361   2.824 -1.2283 -1.8184  1.3706
 6145TIP3    H239851   0.538   6.378   2.725  1.3494  2.8623 -1.1382
 6146TIP3   OH239852   4.455   2.120   5.737  0.2538 -0.0217  0.1921
 6146TIP3    H139853   4.419   2.035   5.760 -0.2956  0.3169  0.6061
 6146TIP3    H239854   4.464   2.166   5.820 -0.7839  0.8353 -0.1554
 6147TIP3   OH239855   0.496   1.134   0.775  0.2269 -0.3172  0.6448
 6147TIP3    H139856   0.474   1.200   0.841  1.9696  2.6495 -1.5015
 6147TIP3    H239857   0.433   1.148   0.705  0.4667 -1.1334  0.2523
 6148TIP3   OH239858   2.832   2.894  12.961  0.2021 -0.2700 -0.1615
 6148TIP3    H139859   2.768   2.894  12.890 -1.0678 -1.2602  0.9481
 6148TIP3    H239860   2.852   2.987  12.976  0.7730 -0.0545 -2.0299
 6149TIP3   OH239861   3.772   4.682  16.044 -0.0891  0.0702 -0.3169
 6149TIP3    H139862   3.836   4.658  16.112  1.1544 -0.1136 -1.4956
 6149TIP3    H239863   3.694   4.709  16.092  0.5990 -0.4802  1.1681
 6150TIP3   OH239864   5.676   5.581  14.033  0.4773 -0.1728  0.9650
 6150TIP3    H139865   5.692   5.504  14.087 -1.8050 -0.8545  0.7877
 6150TIP3    H239866   5.627   5.640  14.090  0.2604  0.1691  0.4356
 6151TIP3   OH239867   6.537   2.219   5.102  1.3001 -0.4278  0.1598
 6151TIP3    H139868   6.570   2.292   5.154  3.3433  1.5595 -3.5213
 6151TIP3    H239869   6.467   2.256   5.049  3.1179 -0.5957 -2.6233
 6152TIP3   OH239870   0.996   3.660   2.461  0.4028  0.0440  0.1250
 6152TIP3    H139871   0.925   3.650   2.524  1.2218  1.9123  1.4418
 6152TIP3    H239872   1.051   3.730   2.498  2.3394 -0.6010 -1.3676
 6153TIP3   OH239873   5.872   3.514   4.344  0.1419 -0.4500 -0.9556
 6153TIP3    H139874   5.878   3.602   4.307  1.0025  0.4147  1.0880
 6153TIP3    H239875   5.779   3.490   4.334  0.1271  0.1991 -2.5541
 6154TIP3   OH239876   2.908   3.387   4.716 -0.9208  0.1629  0.1277
 6154TIP3    H139877   2.931   3.329   4.789 -1.4791  0.1814  0.3239
 6154TIP3    H239878   2.841   3.445   4.752 -2.6893 -1.1271 -0.9426
 6155TIP3   OH239879   1.061   2.454  13.808 -0.2116  0.3067 -0.2878
 6155TIP3    H139880   1.081   2.422  13.896  0.8839  0.2043 -0.5546
 6155TIP3    H239881   0.970   2.484  13.813 -0.5476 -0.7878  0.5609
 6156TIP3   OH239882   0.824   0.482  14.827 -0.0748 -0.0117  0.2091
 6156TIP3    H139883   0.742   0.513  14.865  0.5273  0.6398  1.0297
 6156TIP3    H239884   0.798   0.440  14.745 -1.1161  1.1116 -0.0704
 6157TIP3   OH239885   6.660   1.653   4.363  0.4264  0.4127 -0.1912
 6157TIP3    H139886   6.633   1.587   4.300 -1.3450  3.0156 -2.4143
 6157TIP3    H239887   6.736   1.695   4.323 -0.5232  1.8905 -0.5515
 6158TIP3   OH239888   4.833   3.744  13.901 -0.3534  0.2248  0.0993
 6158TIP3    H139889   4.845   3.829  13.860 -0.9349  0.2835  0.0337
 6158TIP3    H239890   4.897   3.741  13.972  1.0902 -0.1136 -1.1655
 6159TIP3   OH239891   0.615   0.716   1.507  0.2927  0.7554  0.3559
 6159TIP3    H139892   0.700   0.674   1.498  1.6242  3.0886  1.0758
 6159TIP3    H239893   0.626   0.802   1.465 -1.3955  1.5060  1.3196
 6160TIP3   OH239894   2.858   0.775  10.794 -0.4473  1.2156  0.7374
 6160TIP3    H139895   2.920   0.709  10.824 -0.6500  0.3592 -0.6470
 6160TIP3    H239896   2.782   0.764  10.850  0.3885  1.8830  2.0649
 6161TIP3   OH239897   5.485   2.552  13.137  0.3846 -0.2532  0.2923
 6161TIP3    H139898   5.537   2.474  13.116  4.7510  1.8627  2.0194
 6161TIP3    H239899   5.499   2.565  13.231 -1.1644  2.0235  0.2809
 6162TIP3   OH239900   4.405   2.279  16.874 -0.1983  0.1783  0.1020
 6162TIP3    H139901   4.337   2.345  16.889 -0.2431  0.1387  0.0734
 6162TIP3    H239902   4.440   2.260  16.961  0.3445  0.8072  0.0300
 6163TIP3   OH239903   1.599   1.551  13.860 -0.3766  0.0677 -0.2756
 6163TIP3    H139904   1.546   1.572  13.783 -0.7931  0.9488  0.2388
 6163TIP3    H239905   1.585   1.625  13.920  1.6958  0.4913 -0.2488
 6164TIP3   OH239906   3.649   4.196  12.029 -0.3242  0.6723 -0.3942
 6164TIP3    H139907   3.734   4.240  12.028 -0.9159  1.8454 -1.2665
 6164TIP3    H239908   3.617   4.209  12.118  0.1961  0.6507 -0.2002
 6165TIP3   OH239909   3.979   5.683   2.796  0.2769  0.5461  0.2100
 6165TIP3    H139910   3.887   5.657   2.787  0.2488  0.8443 -0.3915
 6165TIP3    H239911   3.982   5.731   2.878  0.4134 -1.7089  1.6201
 6166TIP3   OH239912   0.126   1.322   4.157  0.1226  0.2702  0.2708
 6166TIP3    H139913   0.207   1.351   4.115 -0.3688 -0.9116 -1.5926
 6166TIP3    H239914   0.153   1.252   4.215  0.4202 -0.3619 -0.6103
 6167TIP3   OH239915   2.927   3.666   0.873 -0.2531  0.0458  0.1861
 6167TIP3    H139916   2.878   3.584   0.880 -0.9375  0.4957  0.7474
 6167TIP3    H239917   2.860   3.734   0.866  0.3068  0.5804 -0.0537
 6168TIP3   OH239918   1.353   5.701   3.945 -0.3801  0.7016  0.5958
 6168TIP3    H139919   1.265   5.671   3.923  0.0554 -1.5893  1.6654
 6168TIP3    H239920   1.339   5.780   3.998 -1.7711  0.5438  0.4980
 6169TIP3   OH239921   2.912   5.879   2.179  0.0224 -0.6932  0.0360
 6169TIP3    H139922   2.943   5.953   2.231  0.8482 -2.4900  2.3044
 6169TIP3    H239923   2.822   5.864   2.210 -0.3333 -0.3210 -0.8018
 6170TIP3   OH239924   5.768   3.661  14.367  0.3691 -0.3496  0.4394
 6170TIP3    H139925   5.718   3.603  14.309  1.4851  1.2738 -2.3224
 6170TIP3    H239926   5.856   3.623  14.370  1.2585  1.2873 -1.8138
 6171TIP3   OH239927   2.545   6.216  12.932  0.3475 -0.4693  0.7207
 6171TIP3    H139928   2.574   6.249  13.017 -0.0505 -1.4724  1.2638
 6171TIP3    H239929   2.449   6.220  12.936  0.3332 -0.0501  0.1159
 6172TIP3   OH239930   6.550   4.982   5.263 -0.2916  0.2752  0.9551
 6172TIP3    H139931   6.580   5.072   5.247 -1.6796  0.9814  2.0272
 6172TIP3    H239932   6.458   4.992   5.289 -0.0778 -1.3006  2.5372
 6173TIP3   OH239933   6.589   5.469  10.788  1.0077 -0.1074 -0.2903
 6173TIP3    H139934   6.536   5.451  10.711 -1.0815  0.0668  1.0075
 6173TIP3    H239935   6.635   5.550  10.767  0.4325 -0.0327 -1.3376
 6174TIP3   OH239936   0.580   6.096   3.182  0.3643 -0.2730 -0.2241
 6174TIP3    H139937   0.487   6.087   3.205  0.3470  0.4585 -0.0080
 6174TIP3    H239938   0.595   6.190   3.176  1.5031 -0.3006  1.4331
 6175TIP3   OH239939   5.444   6.136  16.876  0.2713  0.2798  0.2237
 6175TIP3    H139940   5.435   6.048  16.840 -0.4851  0.6077 -0.4144
 6175TIP3    H239941   5.446   6.123  16.971  0.9255 -0.4835  0.1185
 6176TIP3   OH239942   0.409   5.643  16.828  0.4362  0.4798  0.0124
 6176TIP3    H139943   0.456   5.650  16.745  0.0467  0.2829 -0.2292
 6176TIP3    H239944   0.468   5.594  16.885 -0.6261 -2.4078 -1.1838
 6177TIP3   OH239945   1.012   3.764  13.770  0.0510  0.1535 -0.2217
 6177TIP3    H139946   0.992   3.826  13.841 -2.5102  1.0641 -1.6113
 6177TIP3    H239947   1.035   3.819  13.696 -0.1246 -0.6549 -0.8854
 6178TIP3   OH239948   3.296   5.574  16.797  0.2545 -0.2241 -0.0834
 6178TIP3    H139949   3.230   5.639  16.821 -1.0225 -1.5756  0.1922
 6178TIP3    H239950   3.314   5.527  16.878 -1.2627 -2.3078 -0.8576
 6179TIP3   OH239951   1.138   0.346  12.856  0.2776 -0.3528  0.0572
 6179TIP3    H139952   1.075   0.346  12.784 -0.4645 -0.0457  0.6946
 6179TIP3    H239953   1.111   0.273  12.911  0.7900 -0.5318  0.0738
 6180TIP3   OH239954   5.299   6.073   3.394 -0.1015  0.0145  0.4863
 6180TIP3    H139955   5.204   6.066   3.386  0.0452 -3.7326 -0.1062
 6180TIP3    H239956   5.329   6.098   3.307 -0.5003  1.5443  0.7613
 6181TIP3   OH239957   0.285   3.358  12.475 -0.0603 -0.3893 -0.5072
 6181TIP3    H139958   0.293   3.270  12.439 -1.9702 -1.1975  0.8377
 6181TIP3    H239959   0.304   3.348  12.568 -0.8541  0.4816 -0.2307
 6182TIP3   OH239960   4.301   6.256  15.916  0.4785  0.7198 -0.5361
 6182TIP3    H139961   4.396   6.253  15.904  0.3311  0.6705 -1.7695
 6182TIP3    H239962   4.268   6.182  15.865 -0.1847  0.3821  0.3584
 6183TIP3   OH239963   5.050   0.587  13.203  0.0848 -0.2842 -0.0585
 6183TIP3    H139964   4.959   0.599  13.228 -0.1007 -0.2495 -0.7516
 6183TIP3    H239965   5.047   0.547  13.116  0.7195 -1.0282  0.2363
 6184TIP3   OH239966   3.031   6.655   1.478 -0.3981 -0.3627  0.0677
 6184TIP3    H139967   3.043   6.574   1.528  0.3703 -0.5059 -0.3366
 6184TIP3    H239968   2.951   6.640   1.427  0.8318 -1.7370 -1.6027
 6185TIP3   OH239969   5.995   5.943   0.849 -0.2972 -0.0602  0.1551
 6185TIP3    H139970   5.905   5.952   0.880  0.3227  1.8000  1.5637
 6185TIP3    H239971   6.049   5.961   0.926  1.2987  0.8050 -1.1108
 6186TIP3   OH239972   0.947   1.387   5.559  0.5986  0.3014 -0.3609
 6186TIP3    H139973   0.924   1.302   5.521 -0.7288  1.0071 -1.1990
 6186TIP3    H239974   0.880   1.403   5.626  0.9775  0.5827 -0.0429
 6187TIP3   OH239975   5.379   6.512  14.899  0.0841 -0.1519  0.2291
 6187TIP3    H139976   5.341   6.425  14.885  0.2355 -0.0268 -1.1512
 6187TIP3    H239977   5.436   6.525  14.824  1.3434  0.4819  1.2661
 6188TIP3   OH239978   5.973   3.871  16.513  0.1481 -0.1931 -0.4863
 6188TIP3    H139979   6.066   3.855  16.496  0.2054 -0.3649 -0.0357
 6188TIP3    H239980   5.932   3.864  16.427  0.4283 -0.9966 -0.5668
 6189TIP3   OH239981   6.327   5.549   2.431  0.2082 -0.3246  0.3019
 6189TIP3    H139982   6.323   5.545   2.336 -4.4928  2.0382  0.1144
 6189TIP3    H239983   6.334   5.642   2.451  0.2373 -0.7076  2.2763
 6190TIP3   OH239984   5.327   2.426   4.029  0.8117  0.0777  0.7419
 6190TIP3    H139985   5.378   2.347   4.046  0.1446 -0.7133 -0.6655
 6190TIP3    H239986   5.345   2.446   3.937  0.4690  1.1992  0.9076
 6191TIP3   OH239987   1.684   1.788  11.742  0.1927 -0.2422  0.0094
 6191TIP3    H139988   1.735   1.729  11.687  0.3138 -0.1475  0.0217
 6191TIP3    H239989   1.742   1.809  11.816  0.4905  0.6287 -0.4603
 6192TIP3   OH239990   0.856   2.781  14.258 -0.0979 -0.7806 -0.0656
 6192TIP3    H139991   0.783   2.756  14.203 -0.2518 -0.1649 -0.1433
 6192TIP3    H239992   0.828   2.758  14.347  0.1230 -1.7058 -0.2275
 6193TIP3   OH239993   2.972   4.994  14.982  0.5753 -0.1369 -0.1136
 6193TIP3    H139994   3.031   4.945  14.925 -0.8199 -1.3992 -0.5156
 6193TIP3    H239995   2.890   5.000  14.934 -0.2384 -0.0882  1.2191
 6194TIP3   OH239996   4.393   1.173   1.857  0.0565 -0.3658  0.1062
 6194TIP3    H139997   4.485   1.159   1.880  0.4165 -2.5045 -2.2480
 6194TIP3    H239998   4.388   1.266   1.833  1.2184  0.1417  1.6738
 6195TIP3   OH239999   2.959   0.564  15.084 -0.1516  0.2698 -0.1222
 6195TIP3    H140000   2.888   0.585  15.024 -0.4996  0.3567  0.3180
 6195TIP3    H240001   2.975   0.470  15.070 -0.1782  0.3068 -0.4043
 6196TIP3   OH240002   1.254   0.688  13.288  0.6331  0.0066  0.1742
 6196TIP3    H140003   1.159   0.693  13.285  0.6703  1.6454  0.2915
 6196TIP3    H240004   1.274   0.653  13.375  0.1372 -0.1983  0.2055
 6197TIP3   OH240005   3.222   1.605  12.237 -0.4650 -0.5652 -0.0851
 6197TIP3    H140006   3.183   1.527  12.277  1.1039 -0.9229  0.8154
 6197TIP3    H240007   3.170   1.678  12.272  0.5771 -0.9014  2.3704
 6198TIP3   OH240008   4.871   3.214   5.620  0.4891 -0.8509 -0.3443
 6198TIP3    H140009   4.806   3.170   5.565 -0.2373  1.5687 -1.5939
 6198TIP3    H240010   4.928   3.258   5.558  0.8976  0.2966  0.8044
 6199TIP3   OH240011   5.611   0.903   4.207  0.2193  0.5870  0.6805
 6199TIP3    H140012   5.569   0.823   4.174  1.0466  0.0747  0.8399
 6199TIP3    H240013   5.609   0.963   4.133  0.3158  0.1244  0.2968
 6200TIP3   OH240014   5.222   6.483   6.362 -0.6932  0.3338  0.1863
 6200TIP3    H140015   5.250   6.573   6.377  0.1548  0.9847 -4.0450
 6200TIP3    H240016   5.128   6.490   6.343 -0.3830  0.5902 -1.3804
 6201TIP3   OH240017   6.746   5.651  15.726 -0.4149 -0.1855  0.1482
 6201TIP3    H140018   6.681   5.587  15.756 -0.8725  0.3697  0.3554
 6201TIP3    H240019   6.779   5.691  15.806 -0.4528  0.1547 -0.0085
 6202TIP3   OH240020   2.279   4.172  13.515  0.0644  0.4316  0.3668
 6202TIP3    H140021   2.314   4.091  13.553 -0.1970 -0.6618 -1.5598
 6202TIP3    H240022   2.190   4.150  13.489  0.0242  1.3072 -0.2913
 6203TIP3   OH240023   1.329   5.074   3.469 -0.3127  0.3009  0.5878
 6203TIP3    H140024   1.278   5.012   3.520 -0.7872  0.5395  0.4122
 6203TIP3    H240025   1.264   5.124   3.421  0.1460 -0.1337 -0.5041
 6204TIP3   OH240026   0.561   4.344   5.011 -0.3148 -0.1951  0.5572
 6204TIP3    H140027   0.540   4.398   5.088 -4.2810  0.7176 -0.9326
 6204TIP3    H240028   0.513   4.262   5.026 -0.2804 -0.4108 -0.4787
 6205TIP3   OH240029   3.415   3.023  12.488 -0.0303 -0.4577 -0.1899
 6205TIP3    H140030   3.389   3.105  12.529  1.5161  1.3878 -2.5524
 6205TIP3    H240031   3.458   2.973  12.558 -2.8553 -0.2782  1.8230
 6206TIP3   OH240032   2.211   5.738   1.961 -0.3774 -0.7743  0.4941
 6206TIP3    H140033   2.169   5.780   2.036 -0.6613  1.7664 -0.9689
 6206TIP3    H240034   2.303   5.761   1.969 -0.5817  0.5543 -0.4790
 6207TIP3   OH240035   0.487   0.770   0.887 -0.3256 -0.0400 -0.4182
 6207TIP3    H140036   0.499   0.770   0.982 -1.5737 -1.3120 -0.2272
 6207TIP3    H240037   0.420   0.836   0.871  0.3789  0.6717 -0.5149
 6208TIP3   OH240038   1.286   1.574   4.131 -0.2316  0.1761 -0.6853
 6208TIP3    H140039   1.230   1.502   4.101 -0.2746  0.2336 -0.7444
 6208TIP3    H240040   1.338   1.598   4.054 -0.1341  0.1301 -0.6330
 6209TIP3   OH240041   6.383   3.350  16.393 -0.2710  0.2687 -0.1791
 6209TIP3    H140042   6.401   3.423  16.334 -0.1151  1.5370  1.3487
 6209TIP3    H240043   6.454   3.288  16.377  0.1342  0.8855 -0.8475
 6210TIP3   OH240044   0.335   6.637   2.218 -1.1110 -0.3046 -0.2558
 6210TIP3    H140045   0.249   6.609   2.186 -2.2962  2.2309  0.4107
 6210TIP3    H240046   0.317   6.673   2.306  0.3627  1.4750 -0.6133
 6211TIP3   OH240047   2.103   0.654  12.651  0.2497  0.1550 -0.0741
 6211TIP3    H140048   2.166   0.647  12.580  1.7145 -0.6517  1.2308
 6211TIP3    H240049   2.139   0.722  12.708  0.1983 -0.5959  0.8920
 6212TIP3   OH240050   1.215   2.063   0.459  0.0597  0.3573 -0.3371
 6212TIP3    H140051   1.195   2.079   0.367  0.3863  0.5142 -0.3828
 6212TIP3    H240052   1.144   2.007   0.490  0.7550 -0.9993 -1.0958
 6213TIP3   OH240053   0.514   1.991  15.541  0.2036  0.2735 -0.8980
 6213TIP3    H140054   0.583   1.939  15.500 -0.1103  1.3309 -2.8976
 6213TIP3    H240055   0.433   1.961  15.500 -0.2398  0.7120 -0.3638
 6214TIP3   OH240056   5.302   2.465  14.204  0.6075 -0.6208 -0.2940
 6214TIP3    H140057   5.373   2.479  14.141  2.0892 -1.2051  1.1581
 6214TIP3    H240058   5.226   2.446  14.151  1.6665 -0.5061 -1.9232
 6215TIP3   OH240059   6.607   2.244  10.594  0.1844  0.3240  0.0287
 6215TIP3    H140060   6.645   2.206  10.673  1.7904  1.4043 -0.1681
 6215TIP3    H240061   6.680   2.288  10.551 -0.8119  0.4254 -1.6739
 6216TIP3   OH240062   3.342   6.769   2.053 -0.7892 -0.2283 -0.0617
 6216TIP3    H140063   3.260   6.775   2.102 -0.6689  0.9929  0.0274
 6216TIP3    H240064   3.330   6.830   1.979 -0.0239 -0.1444 -0.1214
 6217TIP3   OH240065   1.491   2.146  15.495 -0.9517  0.1233  0.4861
 6217TIP3    H140066   1.567   2.187  15.536 -0.1493 -0.6407 -0.1995
 6217TIP3    H240067   1.452   2.092  15.563  0.6286 -1.4842  0.1768
 6218TIP3   OH240068   4.398   5.189  11.387 -0.2436 -0.4636 -0.0410
 6218TIP3    H140069   4.316   5.144  11.371 -2.0450  2.4557  0.1914
 6218TIP3    H240070   4.379   5.250  11.458  2.3731 -0.2018  0.5510
 6219TIP3   OH240071   1.922   3.231   0.405 -0.5369 -0.1204 -0.1384
 6219TIP3    H140072   1.945   3.139   0.422 -0.4010 -0.6264 -2.6958
 6219TIP3    H240073   1.994   3.265   0.353 -0.7258  1.4054  0.5348
 6220TIP3   OH240074   6.730   6.565   5.460  0.2073 -0.2915 -0.3509
 6220TIP3    H140075   6.648   6.598   5.422  1.4669  2.0229 -1.2520
 6220TIP3    H240076   6.796   6.631   5.436  2.1185 -1.4633  1.3700
 6221TIP3   OH240077   3.010   1.202   0.454  0.0364  0.3794  0.6009
 6221TIP3    H140078   2.930   1.238   0.415 -0.9835 -2.5821 -0.3261
 6221TIP3    H240079   2.999   1.215   0.548 -3.7492 -3.4884  1.0395
 6222TIP3   OH240080   3.166   4.295  16.362 -0.4780 -0.1901  0.4068
 6222TIP3    H140081   3.217   4.282  16.442 -1.8344 -0.0391  1.3270
 6222TIP3    H240082   3.079   4.259  16.382 -1.6417  2.1442 -0.0844
 6223TIP3   OH240083   4.721   4.956  13.076 -0.9983 -0.3916  0.3300
 6223TIP3    H140084   4.725   4.992  13.165  1.5246 -0.4464  0.3330
 6223TIP3    H240085   4.705   4.863  13.089 -1.0552 -0.3335  0.7017
 6224TIP3   OH240086   0.700   4.158  12.180 -0.3207  0.1784  0.2224
 6224TIP3    H140087   0.641   4.228  12.155 -0.9332  0.3252  1.9295
 6224TIP3    H240088   0.723   4.177  12.271  0.2897 -1.2856  0.4089
 6225TIP3   OH240089   6.590   2.592   4.538 -0.1863 -0.5307  0.5197
 6225TIP3    H140090   6.633   2.633   4.462  0.9956 -1.9361  0.3902
 6225TIP3    H240091   6.562   2.666   4.591 -0.3819  0.4810 -0.9221
 6226TIP3   OH240092   5.391   2.694  16.135 -0.7751 -0.3344  0.2722
 6226TIP3    H140093   5.349   2.611  16.112 -0.1310 -0.9952  1.3611
 6226TIP3    H240094   5.484   2.673  16.141 -0.4220  0.8072 -0.8042
 6227TIP3   OH240095   2.160   6.444  16.535  0.2834 -0.3219  0.2638
 6227TIP3    H140096   2.141   6.358  16.496 -0.4104  0.7794 -2.0145
 6227TIP3    H240097   2.248   6.465  16.505  1.6432 -1.3654  3.1492
 6228TIP3   OH240098   5.374   5.358   2.290 -0.2445 -0.2293 -0.4344
 6228TIP3    H140099   5.460   5.388   2.321 -0.7968  0.2794  0.6500
 6228TIP3    H240100   5.344   5.427   2.231  0.1170 -0.4520 -0.8898
 6229TIP3   OH240101   0.728   6.005   5.883  0.6501  0.1702  0.1689
 6229TIP3    H140102   0.751   5.912   5.876  1.1431  0.2750  0.3530
 6229TIP3    H240103   0.802   6.045   5.928 -1.2084 -0.0710  3.9287
 6230TIP3   OH240104   5.336   6.081  14.096 -0.1672 -0.0455 -0.2050
 6230TIP3    H140105   5.247   6.073  14.062 -0.2907 -0.1873  0.1542
 6230TIP3    H240106   5.368   5.991  14.103 -0.3177 -0.0425  0.5255
 6231TIP3   OH240107   1.673   2.859   4.500  0.5055  0.0748  0.4270
 6231TIP3    H140108   1.692   2.947   4.469  2.3981 -0.5293 -0.3093
 6231TIP3    H240109   1.758   2.814   4.496  0.0128 -1.2151  2.6707
 6232TIP3   OH240110   6.125   5.380   3.471  0.6309 -0.0890 -0.3737
 6232TIP3    H140111   6.167   5.425   3.397 -0.8363  0.4625 -0.9023
 6232TIP3    H240112   6.080   5.306   3.431 -0.2879  0.2914 -0.0702
 6233TIP3   OH240113   1.213   1.381   2.929  0.1706 -0.0367  0.2627
 6233TIP3    H140114   1.231   1.293   2.963 -0.0582 -1.0781 -2.0704
 6233TIP3    H240115   1.197   1.367   2.836 -0.0292  2.4950 -0.1492
 6234TIP3   OH240116   4.858   3.097   3.080  0.9028 -0.3915  0.1640
 6234TIP3    H140117   4.948   3.120   3.105  0.5040  1.8729 -0.2655
 6234TIP3    H240118   4.851   3.125   2.989 -0.4950  0.3311  0.4625
 6235TIP3   OH240119   2.052   0.136   2.850 -0.7010 -0.6115 -0.2472
 6235TIP3    H140120   1.969   0.098   2.821 -0.7340  0.0622 -1.0960
 6235TIP3    H240121   2.066   0.209   2.789  0.4849 -0.6878 -0.0704
 6236TIP3   OH240122   6.145   3.187  14.048 -0.1077 -0.2255  0.0592
 6236TIP3    H140123   6.067   3.182  13.993 -1.3099  0.5259  1.6144
 6236TIP3    H240124   6.157   3.097  14.080  1.0018 -0.8130 -1.8900
 6237TIP3   OH240125   6.454   5.105   0.923 -1.0540 -0.4705  0.4481
 6237TIP3    H140126   6.521   5.091   0.990 -1.0480 -0.6959  0.3972
 6237TIP3    H240127   6.457   5.026   0.870 -0.3743  0.1263 -0.4200
 6238TIP3   OH240128   5.214   1.246   1.200 -0.8782  0.6056  0.0207
 6238TIP3    H140129   5.230   1.160   1.161 -1.8010 -0.3388  1.6426
 6238TIP3    H240130   5.138   1.280   1.153 -0.7914  0.3358 -0.3183
 6239TIP3   OH240131   2.822   4.109   0.989 -0.3202  0.4440  0.6031
 6239TIP3    H140132   2.775   4.182   1.029  0.0072  1.4502 -0.7649
 6239TIP3    H240133   2.888   4.150   0.934  0.7839 -0.9156  0.8408
 6240TIP3   OH240134   6.654   0.522  16.811 -0.0080  0.0728 -0.5658
 6240TIP3    H140135   6.649   0.497  16.718  0.4717 -0.5664 -0.4312
 6240TIP3    H240136   6.704   0.451  16.852 -1.1271 -0.2059  0.3849
 6241TIP3   OH240137   3.100   6.056   3.934 -0.1575  0.1252 -0.5020
 6241TIP3    H140138   3.182   6.010   3.916 -0.7536 -0.6382 -1.3790
 6241TIP3    H240139   3.088   6.048   4.029  0.7964  0.2878 -0.3569
 6242TIP3   OH240140   0.660   6.054  13.135 -0.0394  0.8257  0.2244
 6242TIP3    H140141   0.643   6.109  13.211 -0.6512 -0.0418  0.7345
 6242TIP3    H240142   0.617   5.971  13.155 -2.3641  1.3409 -2.1197
 6243TIP3   OH240143   2.203   6.803  11.018 -0.6209  0.0860 -0.8069
 6243TIP3    H140144   2.221   6.843  11.103  1.4926 -1.0920 -0.6334
 6243TIP3    H240145   2.283   6.818  10.968 -1.0367 -1.0841 -1.8434
 6244TIP3   OH240146   1.312   4.229  13.955 -0.2282  0.1831  0.3279
 6244TIP3    H140147   1.218   4.229  13.941  0.1292  0.7201 -2.6158
 6244TIP3    H240148   1.333   4.320  13.975  0.0249  0.9144 -2.7765
 6245TIP3   OH240149   4.009   5.802   2.528  0.4697  0.3507  0.1511
 6245TIP3    H140150   3.922   5.797   2.569 -0.2604 -0.1153 -1.3747
 6245TIP3    H240151   4.061   5.738   2.576 -0.1787  0.2410  0.7341
 6246TIP3   OH240152   4.721   2.760  16.133 -0.2079 -0.2192  0.2938
 6246TIP3    H140153   4.637   2.799  16.158 -0.4946 -0.1181 -0.7746
 6246TIP3    H240154   4.779   2.779  16.206 -0.7858  0.7887  0.5086
 6247TIP3   OH240155   0.880   1.923  16.978  0.0192  0.0731 -0.0248
 6247TIP3    H140156   0.823   1.846  16.980 -1.1289  0.8565 -1.3604
 6247TIP3    H240157   0.968   1.887  16.970 -0.5504 -1.1133 -1.3769
 6248TIP3   OH240158   4.994   0.289  12.855 -0.4343 -0.1036 -0.1685
 6248TIP3    H140159   5.040   0.282  12.771  2.8083 -1.0497  1.5182
 6248TIP3    H240160   5.043   0.232  12.914 -2.4176  0.7275  2.4757
 6249TIP3   OH240161   6.382   0.345   3.611 -0.3344 -0.2684  0.1402
 6249TIP3    H140162   6.449   0.378   3.671  0.4439 -1.6307  0.0703
 6249TIP3    H240163   6.326   0.420   3.594  2.1895  1.4704 -1.2133
 6250TIP3   OH240164   1.538   3.917  14.341 -1.0787  0.0277  0.6438
 6250TIP3    H140165   1.496   3.919  14.427 -1.1694 -1.4034  0.6689
 6250TIP3    H240166   1.469   3.942  14.280 -1.2505  0.2283  0.9184
 6251TIP3   OH240167   6.112   2.309   4.861  0.7548 -0.5549  0.6827
 6251TIP3    H140168   6.171   2.384   4.869 -0.5503  0.5019  0.9061
 6251TIP3    H240169   6.033   2.346   4.822  0.3132 -1.9671  0.1822
 6252TIP3   OH240170   4.738   2.694  15.369  0.5275 -0.4872 -0.1624
 6252TIP3    H140171   4.736   2.745  15.289 -1.6105 -1.8313 -1.0405
 6252TIP3    H240172   4.681   2.619  15.352 -0.6958 -0.4136  2.8896
 6253TIP3   OH240173   1.750   2.402  12.498  0.9778  0.0725  0.4266
 6253TIP3    H140174   1.744   2.453  12.580 -0.5028 -0.9766  1.0167
 6253TIP3    H240175   1.668   2.421  12.453  1.1703 -0.4671 -0.1514
 6254TIP3   OH240176   2.200   0.561  14.817  0.3284  0.0244  0.5299
 6254TIP3    H140177   2.222   0.577  14.909 -2.0144 -0.5898  1.2509
 6254TIP3    H240178   2.183   0.467  14.812 -0.7842  0.2461 -0.2265
 6255TIP3   OH240179   3.916   5.274  12.585 -0.2606 -0.0098 -0.2791
 6255TIP3    H140180   3.936   5.205  12.523 -0.3509  0.6069 -1.0102
 6255TIP3    H240181   3.991   5.276  12.644 -1.0003 -1.8457  0.8116
 6256TIP3   OH240182   1.569   6.600  14.248 -0.6146  0.2231  0.1914
 6256TIP3    H140183   1.477   6.627  14.253 -0.8067  0.7221 -3.3677
 6256TIP3    H240184   1.618   6.680  14.266 -0.8666  0.2657  0.7352
 6257TIP3   OH240185   0.986   2.831   1.877 -0.0537  0.5421 -0.5840
 6257TIP3    H140186   1.048   2.760   1.893 -1.3736  0.0175  2.9647
 6257TIP3    H240187   0.917   2.791   1.823 -1.9055 -1.7932  3.0989
 6258TIP3   OH240188   5.070   6.325  11.425  0.9241  0.5029  0.0337
 6258TIP3    H140189   5.089   6.288  11.339  0.1921 -0.3228  0.2111
 6258TIP3    H240190   4.974   6.319  11.433  0.7402  2.7218 -0.0383
 6259TIP3   OH240191   0.189   1.713  16.722  0.3141  0.1392 -0.3021
 6259TIP3    H140192   0.257   1.659  16.763  0.2875 -1.0040 -1.6828
 6259TIP3    H240193   0.126   1.729  16.792  0.7332 -0.9506  0.3540
 6260TIP3   OH240194   2.595   5.279  11.545 -0.5012 -0.0696  0.3751
 6260TIP3    H140195   2.584   5.372  11.527 -0.1209  0.0626  0.8091
 6260TIP3    H240196   2.555   5.267  11.631  0.6897 -0.0283  0.9494
 6261TIP3   OH240197   5.908   3.742   4.190 -0.0684 -0.4665  0.0619
 6261TIP3    H140198   5.955   3.754   4.272  1.5570 -1.5088 -0.6774
 6261TIP3    H240199   5.853   3.820   4.182  0.5292  0.1458  1.6122
 6262TIP3   OH240200   1.467   6.562   0.834  0.3966  0.0543  0.4367
 6262TIP3    H140201   1.466   6.476   0.792  2.2218 -0.0041  0.4217
 6262TIP3    H240202   1.554   6.597   0.814  0.0606  1.4709  1.3253
 6263TIP3   OH240203   4.437   2.267   2.439 -0.1126 -0.6984  0.3644
 6263TIP3    H140204   4.492   2.290   2.364  1.1614 -0.8730  1.2269
 6263TIP3    H240205   4.365   2.216   2.401  0.0455 -0.0589 -0.8385
 6264TIP3   OH240206   0.245   3.855   0.825  0.5048 -0.6184 -0.3528
 6264TIP3    H140207   0.180   3.875   0.758 -0.1428 -0.3307  0.3423
 6264TIP3    H240208   0.279   3.941   0.852 -2.2337 -0.2525  2.5927
 6265TIP3   OH240209   4.574   0.503  11.612  0.0985 -0.4608  0.0382
 6265TIP3    H140210   4.561   0.446  11.536 -0.4726 -0.5266  0.1750
 6265TIP3    H240211   4.661   0.540  11.600 -0.3643  0.3175 -1.1899
 6266TIP3   OH240212   0.836   0.711  12.615  0.9102  0.1636 -0.0113
 6266TIP3    H140213   0.879   0.712  12.701  0.3975  1.7397  0.2558
 6266TIP3    H240214   0.885   0.776  12.564  1.7395 -1.3522 -1.2106
 6267TIP3   OH240215   4.021   3.057  16.339 -0.7060 -0.2318 -0.1705
 6267TIP3    H140216   4.071   3.137  16.353  0.8167 -1.0782 -0.5827
 6267TIP3    H240217   3.985   3.066  16.251  0.3347 -0.4250 -0.6353
 6268TIP3   OH240218   3.776   3.749   2.741 -0.5247 -0.3575  0.0895
 6268TIP3    H140219   3.841   3.740   2.811 -0.6033 -0.0692  0.2048
 6268TIP3    H240220   3.822   3.795   2.671 -0.1129 -1.6532 -0.5107
 6269TIP3   OH240221   0.359   3.031  16.953  0.0563 -0.5598 -0.3068
 6269TIP3    H140222   0.278   3.081  16.951  0.3167 -0.0842  0.4743
 6269TIP3    H240223   0.341   2.959  17.014 -0.5893 -1.9428 -2.0397
 6270TIP3   OH240224   1.566   6.361  16.466  0.3897  0.2269  0.7400
 6270TIP3    H140225   1.638   6.392  16.411  0.6178 -0.2569  0.7584
 6270TIP3    H240226   1.546   6.274  16.431 -1.0481  0.8704 -0.0961
 6271TIP3   OH240227   4.209   2.215  10.671 -0.3707 -0.2134 -0.6519
 6271TIP3    H140228   4.294   2.172  10.661 -0.1188  0.5010 -1.7458
 6271TIP3    H240229   4.148   2.159  10.624 -0.9779 -1.9328  1.9800
 6272TIP3   OH240230   3.454   4.826   6.061  0.1490  0.4159  0.2714
 6272TIP3    H140231   3.510   4.759   6.100  0.3841 -0.3207 -1.2830
 6272TIP3    H240232   3.466   4.903   6.117  0.8141 -0.4640  1.3692
 6273TIP3   OH240233   2.478   1.248  15.206 -0.6492  0.0944  0.1518
 6273TIP3    H140234   2.445   1.184  15.143  0.2773  1.0822 -1.3773
 6273TIP3    H240235   2.550   1.203  15.250  1.2376  0.6249 -2.2239
 6274TIP3   OH240236   3.358   4.253  16.156 -0.1573  0.7147  0.2265
 6274TIP3    H140237   3.444   4.233  16.191  0.5371  2.3037 -0.4554
 6274TIP3    H240238   3.299   4.251  16.231  0.4705 -0.2887  0.7097
 6275TIP3   OH240239   3.376   0.037  12.165  0.7452  0.6305 -0.3319
 6275TIP3    H140240   3.344  -0.038  12.114  1.2504  0.3881 -0.2925
 6275TIP3    H240241   3.304   0.056  12.226 -0.0778  1.2458 -1.4597
 6276TIP3   OH240242   2.949   3.811  11.075  0.8847  0.1022 -0.2109
 6276TIP3    H140243   2.878   3.873  11.086  1.7960  0.8983  1.4149
 6276TIP3    H240244   2.981   3.793  11.163  0.5353 -2.8752 -0.5667
 6277TIP3   OH240245   3.744   2.676  14.652  0.3855  0.4961  0.3393
 6277TIP3    H140246   3.670   2.733  14.630 -1.3681 -1.1918  1.4849
 6277TIP3    H240247   3.760   2.693  14.745  0.0373 -0.6434  0.6143
 6278TIP3   OH240248   0.125   2.410  12.259 -0.1958 -0.2062 -0.0122
 6278TIP3    H140249   0.210   2.411  12.214 -0.3027  1.6163 -0.2358
 6278TIP3    H240250   0.136   2.345  12.329  1.7180  0.6425  0.5509
 6279TIP3   OH240251   3.555   1.952  11.487 -0.0431 -0.0062 -0.4919
 6279TIP3    H140252   3.561   1.858  11.504 -1.2459 -0.1594 -0.8375
 6279TIP3    H240253   3.552   1.992  11.574  0.1181 -0.3114 -0.3447
 6280TIP3   OH240254   2.253   5.010   2.811 -0.0904 -0.4120 -0.5813
 6280TIP3    H140255   2.289   4.922   2.814  1.2047  0.1209  0.6319
 6280TIP3    H240256   2.320   5.063   2.768 -1.1607 -0.1175 -1.9804
 6281TIP3   OH240257   1.912   4.852   0.625 -0.1744  0.0155 -0.2245
 6281TIP3    H140258   1.972   4.863   0.698  0.3010  1.1731 -0.7553
 6281TIP3    H240259   1.847   4.921   0.637 -1.0027 -0.7804 -0.0459
 6282TIP3   OH240260   1.431   3.155  10.963  0.4907 -0.8968  0.3784
 6282TIP3    H140261   1.464   3.107  10.887  2.2514  0.0147  0.4998
 6282TIP3    H240262   1.505   3.210  10.991 -0.9012  0.6692  1.2198
 6283TIP3   OH240263   3.562   3.172  15.476 -0.2344  0.2346 -0.4029
 6283TIP3    H140264   3.582   3.232  15.404  1.1170 -1.0120 -1.1268
 6283TIP3    H240265   3.497   3.112  15.440 -3.6231  2.6833  1.1302
 6284TIP3   OH240266   4.927   2.839  10.504  0.0806  0.3276 -0.0854
 6284TIP3    H140267   4.870   2.904  10.545 -1.1958  0.0359 -1.3134
 6284TIP3    H240268   5.004   2.889  10.476 -0.0492  0.9445  0.6153
 6285TIP3   OH240269   4.255   4.831   1.283 -0.3732  0.1367 -0.0931
 6285TIP3    H140270   4.335   4.785   1.258  1.0916  2.2530  0.4289
 6285TIP3    H240271   4.285   4.910   1.327 -2.7151  1.8024 -1.2161
 6286TIP3   OH240272   5.499   5.956  10.490 -0.1084  0.2338 -0.3828
 6286TIP3    H140273   5.590   5.975  10.465 -0.0388  1.8148  0.8859
 6286TIP3    H240274   5.475   5.879  10.438  2.2577 -0.8065 -0.0811
 6287TIP3   OH240275   2.235   0.996  13.896 -0.2654  0.3849  0.1522
 6287TIP3    H140276   2.211   1.005  13.804  0.8627 -0.6825 -0.2729
 6287TIP3    H240277   2.327   0.970  13.894 -1.0748 -3.1270  1.4167
 6288TIP3   OH240278   0.548   1.765   5.660  0.6024  0.6874 -0.1950
 6288TIP3    H140279   0.453   1.769   5.649  0.5232 -0.8502 -0.2137
 6288TIP3    H240280   0.565   1.812   5.742 -0.3350 -0.2087  0.5332
 6289TIP3   OH240281   4.351   5.928   0.816  0.1177 -0.1161 -0.3839
 6289TIP3    H140282   4.347   5.847   0.867 -1.6732  0.3386  0.2721
 6289TIP3    H240283   4.418   5.981   0.860  0.8410 -0.9743 -0.4300
 6290TIP3   OH240284   1.640   4.753  14.720  0.5011  0.0406 -0.0309
 6290TIP3    H140285   1.650   4.776  14.628 -0.6841  0.9533  0.0519
 6290TIP3    H240286   1.730   4.741  14.752  0.9587  0.5769 -1.0879
 6291TIP3   OH240287   3.588   3.115   4.865 -0.4744 -0.3118 -0.2850
 6291TIP3    H140288   3.520   3.126   4.798 -0.5859 -0.6853 -0.2338
 6291TIP3    H240289   3.541   3.116   4.948 -0.4364 -0.6814 -0.2549
 6292TIP3   OH240290   4.160   5.188  12.681  0.1120  0.4343 -0.2465
 6292TIP3    H140291   4.199   5.109  12.643 -0.6054  0.0001 -0.1035
 6292TIP3    H240292   4.150   5.168  12.774 -1.1036  0.2503 -0.4002
 6293TIP3   OH240293   0.051   5.758   5.420  0.0316  0.0784  0.3321
 6293TIP3    H140294   0.018   5.839   5.457 -1.0092 -0.7939  1.3762
 6293TIP3    H240295   0.047   5.695   5.492  1.9715 -0.6152 -0.1016
 6294TIP3   OH240296   0.961   1.445   4.834  0.7628  0.3113  0.0340
 6294TIP3    H140297   1.023   1.435   4.906  0.4994 -0.3793  0.1747
 6294TIP3    H240298   0.882   1.481   4.876  1.1011  1.3471 -0.1716
 6295TIP3   OH240299   4.186   6.210  12.629  0.3696 -0.1080 -0.2046
 6295TIP3    H140300   4.189   6.304  12.650  4.5080 -0.1381  0.1110
 6295TIP3    H240301   4.241   6.201  12.551 -1.6525 -2.1150 -1.5220
 6296TIP3   OH240302   2.923   3.870   4.703 -0.1933  0.1130  0.7753
 6296TIP3    H140303   2.840   3.882   4.749 -0.0984  1.8056  0.6011
 6296TIP3    H240304   2.901   3.822   4.624 -0.3125 -3.1932  2.6488
 6297TIP3   OH240305   1.742   4.776  13.962  0.2574  0.2513  0.2288
 6297TIP3    H140306   1.732   4.803  13.870  1.6748  0.8095  0.2056
 6297TIP3    H240307   1.752   4.858  14.010 -1.8986  0.0386  1.1197
 6298TIP3   OH240308   0.829   5.420  16.035 -0.4520  0.6639 -0.3049
 6298TIP3    H140309   0.752   5.476  16.043 -0.8684  0.3546 -1.8678
 6298TIP3    H240310   0.795   5.331  16.048 -0.3194  0.5409 -0.7971
 6299TIP3   OH240311   1.621   2.952   4.802  0.3227  0.6253  0.4962
 6299TIP3    H140312   1.660   2.938   4.716  3.2782  1.6867  1.5357
 6299TIP3    H240313   1.594   3.044   4.801  0.3059  0.6224  0.6678
 6300TIP3   OH240314   4.969   2.197   3.905 -0.1244  0.2463 -0.6052
 6300TIP3    H140315   4.971   2.283   3.864  0.9697  1.0237  0.9813
 6300TIP3    H240316   5.033   2.203   3.977  0.2901 -2.0129 -0.7069
 6301TIP3   OH240317   1.461   5.516   4.539 -0.5230  0.4370  0.5560
 6301TIP3    H140318   1.478   5.475   4.454 -1.7290 -0.6685  0.8270
 6301TIP3    H240319   1.470   5.610   4.521 -0.0584  0.1910 -0.6284
 6302TIP3   OH240320   4.492   3.707   2.143 -0.4051  0.2640 -0.1581
 6302TIP3    H140321   4.420   3.763   2.113  0.0689  0.3950 -1.1076
 6302TIP3    H240322   4.570   3.760   2.130 -0.2057  0.5889  2.0206
 6303TIP3   OH240323   5.102   2.821  10.929  0.0852 -0.3389 -0.1320
 6303TIP3    H140324   5.115   2.915  10.941 -1.8206 -0.1930  1.1264
 6303TIP3    H240325   5.007   2.810  10.927  0.2630 -2.3309  0.4706
 6304TIP3   OH240326   2.350   2.689  14.855 -0.1309  0.0159  0.1143
 6304TIP3    H140327   2.407   2.624  14.896  0.2580 -0.4658 -1.1454
 6304TIP3    H240328   2.280   2.638  14.815 -2.0161  0.6487  2.3789
 6305TIP3   OH240329   6.043   0.071  17.073  0.0806 -0.1914 -0.4351
 6305TIP3    H140330   6.098   0.149  17.066  0.8215 -0.7594 -1.1620
 6305TIP3    H240331   5.991   0.071  16.993  2.4143 -2.1275 -2.1014
 6306TIP3   OH240332   6.733   0.965  16.748  0.1950 -0.4899  0.3661
 6306TIP3    H140333   6.655   1.008  16.712 -0.0627  1.5326  3.0482
 6306TIP3    H240334   6.700   0.910  16.819  0.9650 -2.0755 -0.4514
 6307TIP3   OH240335   4.673   1.312  14.424  0.7097  0.3768  0.6286
 6307TIP3    H140336   4.736   1.261  14.374 -0.3026  0.5388 -0.8878
 6307TIP3    H240337   4.693   1.403  14.402  0.3322  0.4568  0.6129
 6308TIP3   OH240338   1.102   0.705   2.222 -0.6879 -0.0425 -0.7841
 6308TIP3    H140339   1.150   0.634   2.178 -2.8276 -1.8690 -0.3832
 6308TIP3    H240340   1.010   0.684   2.206 -1.4130  2.1996  0.1278
 6309TIP3   OH240341   3.841   5.306   1.115 -0.3499 -0.3850  0.1506
 6309TIP3    H140342   3.874   5.264   1.194 -0.2238  1.2646  1.0296
 6309TIP3    H240343   3.757   5.263   1.097 -0.1695 -1.0760  0.9196
 6310TIP3   OH240344   1.179   1.936   5.770  0.1992  0.2238 -0.0687
 6310TIP3    H140345   1.203   2.028   5.754  0.7859  0.2827  1.0780
 6310TIP3    H240346   1.141   1.907   5.687 -1.7591  2.0483  0.0886
 6311TIP3   OH240347   6.596   4.060   3.667 -0.1702  0.5004  0.1920
 6311TIP3    H140348   6.617   4.149   3.637 -0.3215  0.3878 -0.2605
 6311TIP3    H240349   6.612   4.062   3.761  1.3887  0.5532 -0.0443
 6312TIP3   OH240350   3.757   6.588   6.689  0.4891  0.5789 -0.7307
 6312TIP3    H140351   3.699   6.513   6.703  2.3878 -0.8136  0.1307
 6312TIP3    H240352   3.698   6.661   6.672 -1.4949 -0.7871 -0.0847
 6313TIP3   OH240353   1.520   0.460   1.590  0.5281  0.4844  0.2746
 6313TIP3    H140354   1.524   0.364   1.590  3.0355  0.3792 -3.3971
 6313TIP3    H240355   1.562   0.486   1.672 -1.0172 -1.4434  1.7926
 6314TIP3   OH240356   2.651   5.010  14.435  0.1044  0.4268  0.4175
 6314TIP3    H140357   2.739   5.044  14.416 -0.1999  0.3532 -1.3048
 6314TIP3    H240358   2.665   4.918  14.455  0.2399 -0.1988 -2.2388
 6315TIP3   OH240359   2.576   6.252   4.992 -0.2077 -0.5510  0.3760
 6315TIP3    H140360   2.556   6.160   5.006 -0.9900 -0.3638  0.5206
 6315TIP3    H240361   2.655   6.268   5.044  0.4030 -1.3223 -0.2841
 6316TIP3   OH240362   2.485   1.031  15.017  0.6892 -0.2643  0.1611
 6316TIP3    H140363   2.512   1.018  14.926  0.7197  0.2012  0.1017
 6316TIP3    H240364   2.533   0.964  15.066  2.5604  1.0017  0.1530
 6317TIP3   OH240365   4.456   4.862  14.770 -0.3856  0.6933  0.0689
 6317TIP3    H140366   4.414   4.775  14.769 -0.6077  0.7649  1.2143
 6317TIP3    H240367   4.520   4.858  14.699 -0.9172 -0.1423 -0.3925
 6318TIP3   OH240368   4.834   3.424   3.281 -0.1551 -0.5604 -0.7474
 6318TIP3    H140369   4.799   3.336   3.294 -1.9650  0.2977  0.6072
 6318TIP3    H240370   4.761   3.474   3.245  0.2715  0.8091  0.2125
 6319TIP3   OH240371   6.129   0.467  13.924 -0.2492 -0.0562 -0.4942
 6319TIP3    H140372   6.170   0.535  13.871 -0.6129  0.1467 -0.5150
 6319TIP3    H240373   6.098   0.512  14.002 -1.8895  0.1156 -1.2005
 6320TIP3   OH240374   0.887   5.627  14.151  0.3588 -0.4612 -0.3001
 6320TIP3    H140375   0.927   5.697  14.203 -1.5510 -0.9183  1.9905
 6320TIP3    H240376   0.822   5.672  14.098 -0.6676 -0.4031  0.9557
 6321TIP3   OH240377   5.026   2.597   4.256  0.0037 -0.0967  0.1566
 6321TIP3    H140378   5.072   2.577   4.337  0.1884  0.1352  0.1095
 6321TIP3    H240379   4.954   2.655   4.283  0.7432  0.9221  0.0108
 6322TIP3   OH240380   1.571   0.623  13.380  0.5018  0.5182  0.0650
 6322TIP3    H140381   1.552   0.605  13.288 -0.2426 -0.3600  0.3674
 6322TIP3    H240382   1.597   0.538  13.416  0.2570  0.7413  0.7900
 6323TIP3   OH240383   3.537   6.559   2.150 -0.2975  0.7919  0.5325
 6323TIP3    H140384   3.562   6.568   2.242 -1.2622 -1.5298  1.0838
 6323TIP3    H240385   3.479   6.633   2.134 -1.6172  0.2351  2.3744
 6324TIP3   OH240386   0.096   0.351  15.131  0.1746 -0.6249  0.7185
 6324TIP3    H140387   0.082   0.267  15.087 -0.6667 -1.2966  2.1680
 6324TIP3    H240388   0.190   0.365  15.126 -0.0272  0.3295 -2.9254
 6325TIP3   OH240389   5.516   1.936  15.042  0.1076  0.7230  0.2536
 6325TIP3    H140390   5.446   1.982  14.994 -2.0499  0.3692  2.8612
 6325TIP3    H240391   5.527   1.854  14.994 -1.6322  0.5813  0.0187
 6326TIP3   OH240392   2.456   4.894  13.291  0.0755  0.2654  0.3941
 6326TIP3    H140393   2.471   4.876  13.384  1.9494  0.6454  0.1966
 6326TIP3    H240394   2.486   4.814  13.247 -0.6489  0.1552  0.0860
 6327TIP3   OH240395   4.289   0.596  12.261 -0.3595 -0.1248  0.5086
 6327TIP3    H140396   4.372   0.620  12.304 -0.1983  0.8723 -0.3317
 6327TIP3    H240397   4.229   0.580  12.334  0.2040  0.4594  1.1223
 6328TIP3   OH240398   4.862   5.197   1.766 -0.2329 -0.2220 -0.2135
 6328TIP3    H140399   4.802   5.182   1.694 -0.1020 -0.2179 -0.3233
 6328TIP3    H240400   4.807   5.194   1.844 -0.9649  2.9094 -0.4710
 6329TIP3   OH240401   3.540   5.895  13.914 -0.2929  0.0956  0.1948
 6329TIP3    H140402   3.596   5.846  13.974  0.5721 -1.7396 -1.9554
 6329TIP3    H240403   3.598   5.959  13.873 -0.9036  1.4229  1.3503
 6330TIP3   OH240404   4.512   5.729   6.143 -0.4445  0.0832  0.3068
 6330TIP3    H140405   4.487   5.766   6.227  0.9149 -0.3238  0.9116
 6330TIP3    H240406   4.560   5.649   6.165 -0.0504 -0.0181 -0.8551
 6331TIP3   OH240407   4.240   3.386   3.931 -0.3387  0.0460  0.3432
 6331TIP3    H140408   4.231   3.410   3.839 -0.5885  0.1979  0.4064
 6331TIP3    H240409   4.151   3.384   3.965 -0.3481 -1.2219  0.2885
 6332TIP3   OH240410   2.591   6.641  12.843 -0.3010  0.6343 -0.4176
 6332TIP3    H140411   2.602   6.620  12.750 -0.4877 -1.8963  0.0516
 6332TIP3    H240412   2.515   6.589  12.871  0.4455  0.4331  1.4030
 6333TIP3   OH240413   5.179   3.877   4.416 -0.1865 -0.0662 -0.8233
 6333TIP3    H140414   5.205   3.939   4.484  0.9462 -0.2307 -1.0901
 6333TIP3    H240415   5.167   3.795   4.463  1.5086 -0.4096 -0.9130
 6334TIP3   OH240416   5.313   3.816  11.230  0.4206 -0.1804 -0.0880
 6334TIP3    H140417   5.227   3.830  11.269  0.6551 -0.0231  0.3768
 6334TIP3    H240418   5.341   3.731  11.263 -0.2828 -1.0588 -1.5951
 6335TIP3   OH240419   0.016   6.556   1.158  1.1683  0.5792  0.3331
 6335TIP3    H140420   0.063   6.478   1.190  0.4660 -0.1050 -0.2710
 6335TIP3    H240421  -0.076   6.538   1.179  1.2183  2.3309  2.3908
 6336TIP3   OH240422   6.633   1.508   6.182 -0.2618 -0.2259  0.1886
 6336TIP3    H140423   6.643   1.459   6.101 -1.4368 -1.4461  0.7417
 6336TIP3    H240424   6.685   1.459   6.246  1.4080  1.2327  0.0174
 6337TIP3   OH240425   4.366   6.490  13.869 -0.4981 -0.6427  0.0760
 6337TIP3    H140426   4.451   6.498  13.912 -1.0087  0.1230  0.9897
 6337TIP3    H240427   4.387   6.466  13.779  0.7168  0.1524  0.1246
 6338TIP3   OH240428   2.516   4.058  14.689 -0.5066 -0.1815  0.3410
 6338TIP3    H140429   2.486   4.142  14.724 -0.1197  0.3828 -0.6370
 6338TIP3    H240430   2.559   4.015  14.763 -0.6000  0.5307  0.8186
 6339TIP3   OH240431   0.642   5.449   2.367  0.0837  0.2695 -0.2490
 6339TIP3    H140432   0.648   5.432   2.273 -2.2711  1.1680 -0.6379
 6339TIP3    H240433   0.549   5.438   2.387  0.7604 -1.6941  2.3851
 6340TIP3   OH240434   6.594   0.871   4.341 -0.3026 -0.3660 -0.6512
 6340TIP3    H140435   6.656   0.934   4.377 -1.0967 -0.6657  1.3921
 6340TIP3    H240436   6.648   0.795   4.316  0.5244  0.6688 -2.1717
 6341TIP3   OH240437   0.746   2.704  14.495  0.2709  0.3267  0.4843
 6341TIP3    H140438   0.749   2.608  14.493 -1.6441  0.2209  0.3090
 6341TIP3    H240439   0.740   2.726  14.588 -0.8637  0.1665  0.4627
 6342TIP3   OH240440   4.182   6.128   3.120  0.0699  0.1356 -0.0665
 6342TIP3    H140441   4.197   6.091   3.207  0.3105  2.2488  0.8453
 6342TIP3    H240442   4.094   6.165   3.124  0.1897  0.5008 -0.6232
 6343TIP3   OH240443   0.694   4.409   1.191 -0.2326  0.3555 -0.2404
 6343TIP3    H140444   0.618   4.351   1.195  0.0749  0.0082  1.6133
 6343TIP3    H240445   0.769   4.350   1.203  0.1397  1.0114  0.7817
 6344TIP3   OH240446   4.184   5.385  14.226 -0.0923  0.4144  0.4769
 6344TIP3    H140447   4.111   5.391  14.288  0.5338  2.7500  1.0789
 6344TIP3    H240448   4.154   5.433  14.149  1.3701  2.9467  1.3956
 6345TIP3   OH240449   5.822   6.047  15.382 -0.4786  0.1647  0.6294
 6345TIP3    H140450   5.916   6.038  15.400 -0.4955  1.2080  1.3188
 6345TIP3    H240451   5.784   5.965  15.413  0.5146 -1.5986 -2.3252
 6346TIP3   OH240452   5.444   5.339  15.299 -0.0948  0.1845 -0.4369
 6346TIP3    H140453   5.351   5.361  15.295 -0.0229  0.6591  0.3270
 6346TIP3    H240454   5.469   5.325  15.207 -0.0949  3.7137 -1.1335
 6347TIP3   OH240455   3.510   5.903   1.313  0.0268  0.0195 -0.0864
 6347TIP3    H140456   3.556   5.975   1.355  1.3309 -1.5212  1.2861
 6347TIP3    H240457   3.425   5.900   1.357 -0.3456  1.1859 -0.7056
 6348TIP3   OH240458   0.564   2.743  11.526  0.8728  0.5062  0.3205
 6348TIP3    H140459   0.471   2.734  11.546  0.6644  0.6230 -0.5659
 6348TIP3    H240460   0.607   2.676  11.580  0.0524 -1.0957 -0.9514
 6349TIP3   OH240461   1.228   2.755  13.598 -0.1704  0.3822 -0.0423
 6349TIP3    H140462   1.268   2.803  13.670 -0.1585  1.1465 -0.5537
 6349TIP3    H240463   1.139   2.735  13.629 -0.9241  2.5808 -0.6056
 6350TIP3   OH240464   6.259   2.612   6.102  1.0341 -0.5864 -0.8944
 6350TIP3    H140465   6.260   2.700   6.140 -0.3209  0.3208 -2.7651
 6350TIP3    H240466   6.185   2.568   6.144  1.9835 -1.0413  0.3706
 6351TIP3   OH240467   0.509   5.797   2.538  0.1035  0.4793 -0.0974
 6351TIP3    H140468   0.524   5.740   2.613  1.1202 -0.7994 -1.2127
 6351TIP3    H240469   0.489   5.883   2.576  2.1310  0.2637  1.6509
 6352TIP3   OH240470   6.219   1.267   2.026  0.1897 -0.5555 -0.1816
 6352TIP3    H140471   6.242   1.292   1.937 -1.4548 -0.5823 -0.6307
 6352TIP3    H240472   6.302   1.275   2.075  0.9478  0.1646 -1.5323
 6353TIP3   OH240473   5.516   1.488  13.083 -0.2983  0.2303  0.2819
 6353TIP3    H140474   5.482   1.577  13.092 -0.4439  0.1300  0.7343
 6353TIP3    H240475   5.605   1.500  13.050 -0.3613  0.5403  0.2184
 6354TIP3   OH240476   2.357   1.483  15.255  0.8407 -0.1106 -0.2802
 6354TIP3    H140477   2.394   1.483  15.343 -1.0991 -3.1122  0.6906
 6354TIP3    H240478   2.392   1.404  15.214 -1.9589 -1.4209 -0.3625
 6355TIP3   OH240479   6.174   0.383   5.358 -0.8105 -0.4511 -0.0758
 6355TIP3    H140480   6.182   0.429   5.441  0.8530  0.5272 -0.7305
 6355TIP3    H240481   6.154   0.292   5.382 -1.5914  0.0750  1.3189
 6356TIP3   OH240482   2.613   5.682   5.770 -0.2950 -0.2618  0.3135
 6356TIP3    H140483   2.684   5.619   5.784 -1.7879 -2.2242 -0.4206
 6356TIP3    H240484   2.647   5.742   5.703  0.0576 -2.3512 -1.5153
 6357TIP3   OH240485   2.043   1.478   0.332 -0.3961 -0.3629 -0.0447
 6357TIP3    H140486   2.047   1.561   0.378  1.1543  0.5367 -1.6785
 6357TIP3    H240487   1.957   1.477   0.291 -0.2977  0.6071 -0.2923
 6358TIP3   OH240488   3.622   2.039  11.231 -0.1749 -0.5350 -0.1531
 6358TIP3    H140489   3.565   2.050  11.307 -0.7131  1.0740 -0.7519
 6358TIP3    H240490   3.589   1.959  11.189 -2.2161  0.4680 -0.6184
 6359TIP3   OH240491   5.290   5.885   2.251  0.3457 -0.1405 -0.2819
 6359TIP3    H140492   5.243   5.905   2.170 -1.8656  1.5405  1.2676
 6359TIP3    H240493   5.366   5.944   2.250  0.7011 -0.6012 -1.3908
 6360TIP3   OH240494   5.122   3.589  11.430 -0.0913 -0.4061 -0.1722
 6360TIP3    H140495   5.033   3.626  11.433 -0.0053 -0.2300  1.7228
 6360TIP3    H240496   5.174   3.649  11.482  1.6641  0.6225 -2.9064
 6361TIP3   OH240497   1.938   2.995   2.396  0.5505 -0.2581 -0.3288
 6361TIP3    H140498   1.918   3.024   2.484 -1.1602 -2.5602  0.1204
 6361TIP3    H240499   1.853   2.978   2.356  1.3554 -2.2550 -1.3143
 6362TIP3   OH240500   1.040   0.146  15.324 -0.1746  0.0377  0.3208
 6362TIP3    H140501   1.088   0.228  15.337  0.2453 -0.4597  2.2175
 6362TIP3    H240502   0.950   0.168  15.349 -0.1215  0.0017  0.5485
 6363TIP3   OH240503   3.449   1.912   4.413  0.6955 -0.4243  0.5540
 6363TIP3    H140504   3.464   1.891   4.506 -0.5575  0.8184  1.0642
 6363TIP3    H240505   3.388   1.985   4.415  0.9840 -0.1100 -1.2669
 6364TIP3   OH240506   2.483   1.181   0.275 -0.0569  0.0204  0.0759
 6364TIP3    H140507   2.453   1.096   0.243  0.5392  0.2506 -1.1711
 6364TIP3    H240508   2.542   1.213   0.206 -0.6967  1.6838  0.2531
 6365TIP3   OH240509   1.315   5.303   1.074 -0.3509  0.5832  0.1675
 6365TIP3    H140510   1.326   5.253   0.993 -0.3082  0.4974  0.2261
 6365TIP3    H240511   1.255   5.374   1.050 -1.7243 -0.4363  0.4747
 6366TIP3   OH240512   5.504   4.959   3.347 -0.5003  0.2734  0.9708
 6366TIP3    H140513   5.463   5.038   3.312  1.3277  0.9940  0.3831
 6366TIP3    H240514   5.432   4.912   3.390 -2.3717  0.4423 -1.7541
 6367TIP3   OH240515   0.255   1.458  12.227  0.1019  0.6862  0.1649
 6367TIP3    H140516   0.281   1.464  12.135 -1.4588  2.7161 -0.1950
 6367TIP3    H240517   0.160   1.447  12.224 -0.1956  2.5360  1.5236
 6368TIP3   OH240518   6.275   4.128  16.065  0.0480  0.2727 -0.1334
 6368TIP3    H140519   6.368   4.105  16.070  0.1062  0.5947  0.3162
 6368TIP3    H240520   6.274   4.217  16.030 -0.0765  0.3604  0.0874
 6369TIP3   OH240521   0.509   4.348   4.692  0.5851 -0.1156 -0.3954
 6369TIP3    H140522   0.538   4.341   4.783  0.2582  0.7498 -0.2088
 6369TIP3    H240523   0.494   4.442   4.679 -1.2661 -0.4171 -0.7277
 6370TIP3   OH240524   1.369   3.291  14.910 -0.7615  0.5098 -0.1754
 6370TIP3    H140525   1.274   3.279  14.918 -0.5638  0.0715  2.1667
 6370TIP3    H240526   1.380   3.385  14.897 -1.5454  0.3792 -2.2031
 6371TIP3   OH240527   4.181   0.475   1.699  0.1059  0.7799 -0.2368
 6371TIP3    H140528   4.273   0.490   1.719  0.0503  1.5956 -0.5408
 6371TIP3    H240529   4.145   0.433   1.778  0.6341  0.8761  0.0564
 6372TIP3   OH240530   1.050   6.043  14.946  0.1780  0.4430 -0.2744
 6372TIP3    H140531   1.143   6.037  14.923 -0.0047 -0.4095 -0.8532
 6372TIP3    H240532   1.038   6.134  14.974  0.9932  0.7968 -1.0227
 6373TIP3   OH240533   4.061   5.420   6.267  0.0425  0.3950  0.0786
 6373TIP3    H140534   3.996   5.369   6.315 -2.5722  2.0683 -1.4604
 6373TIP3    H240535   4.139   5.365   6.267 -1.3884 -1.8142  1.8372
 6374TIP3   OH240536   3.013   4.418  11.911 -0.0756 -0.1704 -0.2045
 6374TIP3    H140537   3.000   4.472  11.989  0.0836 -3.2493  2.1504
 6374TIP3    H240538   3.066   4.473  11.853  0.5789  1.9765  2.2157
 6375TIP3   OH240539   0.009   4.750   0.796 -0.0420  0.5019  0.5525
 6375TIP3    H140540  -0.030   4.700   0.868  1.0788 -0.3393  0.5987
 6375TIP3    H240541  -0.050   4.734   0.722  0.0211 -0.4899  0.6962
 6376TIP3   OH240542   3.333   4.842   5.785 -0.3893  0.0850 -0.5133
 6376TIP3    H140543   3.397   4.873   5.849  0.3183 -0.3848 -0.9780
 6376TIP3    H240544   3.366   4.873   5.701 -0.0008 -1.3424 -0.9196
 6377TIP3   OH240545   0.131   2.824   1.059  0.0370  0.0110  0.5974
 6377TIP3    H140546   0.110   2.917   1.070  0.6336  0.2407 -0.1381
 6377TIP3    H240547   0.171   2.798   1.142 -2.1263 -0.1765  1.6463
 6378TIP3   OH240548   5.261   2.283  11.337 -0.4179 -0.0541 -0.0941
 6378TIP3    H140549   5.269   2.268  11.243  0.2838  0.5899 -0.1496
 6378TIP3    H240550   5.174   2.250  11.359  0.0715 -1.7830 -0.6369
 6379TIP3   OH240551   0.895   1.107  15.320  0.0824  0.5998  0.0907
 6379TIP3    H140552   0.859   1.079  15.236  0.4044 -0.4455  0.2840
 6379TIP3    H240553   0.838   1.067  15.386 -1.3125  2.9278  0.4231
 6380TIP3   OH240554   5.294   0.029   5.414 -0.4448 -0.1700  0.2873
 6380TIP3    H140555   5.354  -0.028   5.461  0.3733 -1.1972 -1.8765
 6380TIP3    H240556   5.344   0.109   5.398 -0.1586 -0.4462 -0.2167
 6381TIP3   OH240557   1.537   4.882  16.518 -0.1790  0.1826  0.6422
 6381TIP3    H140558   1.565   4.915  16.433  0.3061 -1.3292  0.1828
 6381TIP3    H240559   1.496   4.957  16.560 -1.6781  0.6664 -1.4675
 6382TIP3   OH240560   2.988   1.263   0.731 -0.1660  0.6464  0.2828
 6382TIP3    H140561   3.072   1.244   0.772 -0.5180  0.1912  0.7975
 6382TIP3    H240562   2.927   1.274   0.804 -0.9686 -0.9510 -0.1073
 6383TIP3   OH240563   1.133   2.104   1.455  0.1418  0.3867  0.3201
 6383TIP3    H140564   1.043   2.131   1.434  0.8426  2.1557 -0.7233
 6383TIP3    H240565   1.169   2.178   1.504  0.6983 -0.8121  1.8069
 6384TIP3   OH240566   3.772   5.567  11.737  0.4444 -0.2869  0.2328
 6384TIP3    H140567   3.849   5.620  11.760  1.2579 -1.7191  0.9592
 6384TIP3    H240568   3.739   5.536  11.821  0.5223 -1.6269 -0.2092
 6385TIP3   OH240569   0.506   4.107  13.899 -0.0234  0.3886  0.6145
 6385TIP3    H140570   0.533   4.160  13.974  1.1816  1.0575 -0.2459
 6385TIP3    H240571   0.421   4.142  13.874  0.2259  1.1363  0.7882
 6386TIP3   OH240572   6.038   0.811  16.909  0.3620 -0.4961  0.2200
 6386TIP3    H140573   6.085   0.851  16.836 -0.0340 -0.7314 -0.1618
 6386TIP3    H240574   6.070   0.859  16.986  2.3372 -1.6047  0.1659
 6387TIP3   OH240575   4.995   6.573  13.055 -0.6215 -0.1483 -0.1175
 6387TIP3    H140576   4.997   6.516  13.132  1.0458 -0.5389 -0.4169
 6387TIP3    H240577   5.001   6.662  13.090 -1.1671 -0.2498  0.2484
 6388TIP3   OH240578   2.385   6.243   1.649  0.0125  0.6039  0.2932
 6388TIP3    H140579   2.352   6.329   1.626 -0.5820 -0.3745 -3.0763
 6388TIP3    H240580   2.322   6.182   1.612  2.1257 -1.2907 -0.4366
 6389TIP3   OH240581   1.948   3.945  11.096 -0.1782  0.4234 -0.5488
 6389TIP3    H140582   1.905   3.919  11.014 -2.1453  1.8285 -0.0276
 6389TIP3    H240583   1.983   4.032  11.078  0.7298  0.1133 -0.3319
 6390TIP3   OH240584   1.452   3.026   2.089 -0.5429 -0.3637  0.5072
 6390TIP3    H140585   1.373   2.991   2.047 -0.2237  0.0806 -0.4772
 6390TIP3    H240586   1.424   3.046   2.178 -1.7466  0.4645 -0.0257
 6391TIP3   OH240587   5.760   3.283  11.945 -0.8963 -0.0036  0.5375
 6391TIP3    H140588   5.779   3.212  11.884 -3.6628 -1.3529  1.0929
 6391TIP3    H240589   5.769   3.363  11.892  0.3117 -0.8726 -0.6307
 6392TIP3   OH240590   1.039   4.706  16.706 -0.2848  0.2408 -0.2305
 6392TIP3    H140591   1.072   4.717  16.795 -2.5351 -0.0349  0.7188
 6392TIP3    H240592   0.960   4.760  16.703 -0.9671 -0.7683 -1.6466
 6393TIP3   OH240593   3.025   4.603  13.622 -0.0341  0.6567 -0.6914
 6393TIP3    H140594   2.932   4.619  13.641 -0.2294 -1.6390  0.6107
 6393TIP3    H240595   3.065   4.589  13.707  1.7194  2.3063 -1.1792
 6394TIP3   OH240596   5.635   2.502   4.069 -0.0301  0.2327  0.3628
 6394TIP3    H140597   5.686   2.474   3.992 -0.1722  1.1558 -0.0835
 6394TIP3    H240598   5.667   2.447   4.140 -0.2177 -0.9698 -0.4442
 6395TIP3   OH240599   1.743   1.460   4.362  0.4323 -0.0195  0.3741
 6395TIP3    H140600   1.778   1.472   4.273 -1.6505 -1.5651 -0.7241
 6395TIP3    H240601   1.745   1.548   4.400  1.2830  0.6952 -1.2187
 6396TIP3   OH240602   2.270   3.861   5.755  0.3018 -0.6145 -0.3099
 6396TIP3    H140603   2.245   3.769   5.751 -2.7358  0.1356 -1.9321
 6396TIP3    H240604   2.270   3.889   5.663 -1.6478  1.5840  0.2676
 6397TIP3   OH240605   6.092   4.288   4.112 -0.2544  0.2084  0.2443
 6397TIP3    H140606   6.042   4.370   4.111 -2.1473 -0.8524  1.5133
 6397TIP3    H240607   6.035   4.224   4.069 -0.0152 -1.0431  1.6962
 6398TIP3   OH240608   1.486   0.665   4.359 -0.2567  0.2843  0.1391
 6398TIP3    H140609   1.432   0.743   4.346 -2.5676 -1.0007  1.3164
 6398TIP3    H240610   1.573   0.690   4.330 -1.5716  2.3467 -2.3314
 6399TIP3   OH240611   1.845   0.466   1.203  0.0790  0.9415 -0.0752
 6399TIP3    H140612   1.876   0.408   1.274 -3.0413  1.5319  1.9688
 6399TIP3    H240613   1.871   0.554   1.231 -0.4390  1.0884 -0.0347
 6400TIP3   OH240614   0.076   1.365   0.791 -0.2641  0.0364 -0.2060
 6400TIP3    H140615   0.098   1.283   0.837  0.3170  0.1018 -0.3572
 6400TIP3    H240616   0.122   1.433   0.841  1.6461 -0.0470 -1.7086
 6401TIP3   OH240617   1.765   2.714  14.595 -0.2694 -0.3614  0.4694
 6401TIP3    H140618   1.820   2.677  14.526 -2.2792 -1.1247 -0.8046
 6401TIP3    H240619   1.756   2.645  14.660 -0.5915 -0.6244  0.1472
 6402TIP3   OH240620   6.300   2.718   5.378 -0.8431  0.0264 -0.0948
 6402TIP3    H140621   6.258   2.733   5.463 -0.5630 -0.9117  0.2113
 6402TIP3    H240622   6.240   2.660   5.331 -0.4099 -0.4390 -0.0749
 6403TIP3   OH240623   0.839   1.350  16.373  1.2659  0.2229  0.3486
 6403TIP3    H140624   0.869   1.441  16.379  0.8242  0.3820  0.1988
 6403TIP3    H240625   0.805   1.330  16.460 -0.2234  0.7757 -0.0771
 6404TIP3   OH240626   1.267   2.944  16.234  0.0518 -0.1846 -0.2441
 6404TIP3    H140627   1.349   2.992  16.246  0.4256 -0.9150  0.1720
 6404TIP3    H240628   1.269   2.876  16.302 -0.2976 -1.0104 -1.0384
 6405TIP3   OH240629   5.733   2.433  15.777 -0.9448  0.4288 -0.3844
 6405TIP3    H140630   5.766   2.518  15.806 -0.1002  0.3545 -1.1188
 6405TIP3    H240631   5.798   2.401  15.715 -1.5543 -0.4889 -0.5708
 6406TIP3   OH240632   5.340   3.291  10.376  0.1732 -0.0645  0.1319
 6406TIP3    H140633   5.249   3.304  10.347  0.9328  3.6382 -1.1361
 6406TIP3    H240634   5.337   3.211  10.428 -3.5482 -0.8136 -0.9035
 6407TIP3   OH240635   1.806   0.516  11.227  0.0644 -0.3455 -0.0645
 6407TIP3    H140636   1.819   0.583  11.294 -0.6844 -0.8720  0.6349
 6407TIP3    H240637   1.713   0.522  11.205  0.0790 -0.8802 -0.2925
 6408TIP3   OH240638   0.514   6.628  11.683 -0.1583 -0.1303  0.5483
 6408TIP3    H140639   0.590   6.587  11.642 -0.1937 -0.6396  0.9802
 6408TIP3    H240640   0.439   6.577  11.654 -0.5005  1.0744 -0.8174
 6409TIP3   OH240641   4.633   0.634  14.698 -0.1702 -0.4656 -0.0354
 6409TIP3    H140642   4.616   0.558  14.754  0.7198 -0.6505  0.0051
 6409TIP3    H240643   4.665   0.701  14.758  1.7870 -0.9971 -0.4126
 6410TIP3   OH240644   5.928   5.125  13.307  0.1441  0.2622 -0.2119
 6410TIP3    H140645   5.989   5.195  13.281  1.0126 -0.0308  0.9925
 6410TIP3    H240646   5.854   5.136  13.248  0.1443  2.3753  0.1018
 6411TIP3   OH240647   1.734   3.860   5.271 -0.2305 -0.0842  0.2827
 6411TIP3    H140648   1.681   3.939   5.260  1.8224  1.3555  0.2614
 6411TIP3    H240649   1.805   3.886   5.329  0.7164 -1.8168 -0.0319
 6412TIP3   OH240650   2.532   4.373  14.464 -0.1211  0.0052 -0.2882
 6412TIP3    H140651   2.577   4.354  14.382 -0.6897  0.0994 -0.6312
 6412TIP3    H240652   2.515   4.287  14.502 -1.5353 -0.1567 -1.2051
 6413TIP3   OH240653   3.192   0.050   5.792  0.3681 -0.1398  0.2291
 6413TIP3    H140654   3.244   0.058   5.712  1.8317  3.1206  1.3468
 6413TIP3    H240655   3.243   0.097   5.858 -1.8647 -0.7836  2.5513
 6414TIP3   OH240656   4.419   4.584  11.549 -0.4449  0.1984  0.2627
 6414TIP3    H140657   4.452   4.630  11.471 -0.6648  0.4419  0.3123
 6414TIP3    H240658   4.325   4.600  11.548 -0.5463 -0.3905  0.1947
 6415TIP3   OH240659   6.154   2.551  16.334 -0.0020  0.5564  0.5847
 6415TIP3    H140660   6.246   2.578  16.329 -0.1631  1.2925  1.3054
 6415TIP3    H240661   6.127   2.574  16.423 -1.1144  1.1162  0.1247
 6416TIP3   OH240662   2.216   3.138   1.463  0.1583  0.2252 -0.1772
 6416TIP3    H140663   2.128   3.175   1.459  0.8049  1.8261 -1.0374
 6416TIP3    H240664   2.273   3.215   1.470  1.4417 -0.8253  1.7387
 6417TIP3   OH240665   5.392   2.263  16.229  0.4994  0.4978 -0.1426
 6417TIP3    H140666   5.323   2.199  16.211 -0.2946  1.8493 -2.3422
 6417TIP3    H240667   5.405   2.258  16.324 -3.4778  0.9716  0.6059
 6418TIP3   OH240668   3.808   4.973  12.602 -0.3266  0.1017 -0.3153
 6418TIP3    H140669   3.780   5.009  12.686 -0.3325  0.3353 -0.4149
 6418TIP3    H240670   3.730   4.928  12.568 -0.4797  0.4508 -0.4314
 6419TIP3   OH240671   3.747   4.050   3.624  0.4236  0.3582  0.1908
 6419TIP3    H140672   3.707   4.137   3.621 -1.2823 -0.4128 -0.6716
 6419TIP3    H240673   3.788   4.039   3.538  0.7762  0.3576  0.3559
 6420TIP3   OH240674   3.863   0.837   1.259  0.2689  0.1295 -0.0452
 6420TIP3    H140675   3.893   0.799   1.176 -1.3942  0.2947 -0.7710
 6420TIP3    H240676   3.768   0.827   1.256  0.0249  1.7960  1.0292
 6421TIP3   OH240677   5.710   5.303  13.565 -0.2432 -0.0870  0.0885
 6421TIP3    H140678   5.772   5.229  13.569  2.0746  1.7599  0.9536
 6421TIP3    H240679   5.724   5.350  13.647 -2.3765  0.8133 -0.0012
 6422TIP3   OH240680   1.857   0.981   5.958  0.5873  0.5721 -0.0542
 6422TIP3    H140681   1.918   1.053   5.977  0.7916  0.4028 -0.0617
 6422TIP3    H240682   1.772   1.024   5.947  0.9232  0.9707 -1.2993
 6423TIP3   OH240683   5.897   6.691   1.066 -0.1168 -0.6428 -0.0828
 6423TIP3    H140684   5.984   6.651   1.061 -0.8454 -2.5634  1.4108
 6423TIP3    H240685   5.840   6.621   1.096 -1.4418  1.5986  3.2074
 6424TIP3   OH240686   1.348   3.354  11.285 -0.3326  0.4620  0.6003
 6424TIP3    H140687   1.438   3.325  11.273  0.0753  0.5407  2.9335
 6424TIP3    H240688   1.349   3.446  11.260  0.2099  0.4471  0.5584
 6425TIP3   OH240689   2.647   5.434   5.230  0.0401  0.1131  0.3243
 6425TIP3    H140690   2.576   5.441   5.294  1.3304  1.3854  1.7000
 6425TIP3    H240691   2.700   5.360   5.261 -0.5278 -0.6715 -0.5516
 6426TIP3   OH240692   4.304   5.351  13.877 -0.2207  0.9286 -0.2655
 6426TIP3    H140693   4.238   5.318  13.937 -0.1975  0.1218 -0.6686
 6426TIP3    H240694   4.258   5.361  13.794 -0.7669  3.9156  0.2789
 6427TIP3   OH240695   3.495   4.702  16.076 -0.3592  0.0956 -0.5389
 6427TIP3    H140696   3.476   4.752  16.155 -2.0208 -0.2053 -0.7068
 6427TIP3    H240697   3.427   4.729  16.014  0.4348 -0.2619 -1.5890
 6428TIP3   OH240698   0.003   2.622   3.014  0.3161  0.1325  0.1456
 6428TIP3    H140699  -0.056   2.673   3.068 -1.1509  1.0395 -2.1646
 6428TIP3    H240700  -0.039   2.536   3.006  1.0159 -0.3220  1.1770
 6429TIP3   OH240701   0.128   4.505   0.204  0.4415 -0.6006  0.1626
 6429TIP3    H140702   0.057   4.542   0.257  0.2122 -1.1486  0.2513
 6429TIP3    H240703   0.125   4.554   0.122  0.5416 -0.0146  0.5027
 6430TIP3   OH240704   5.338   1.425   1.988  0.2181  0.4475 -0.0326
 6430TIP3    H140705   5.295   1.476   2.056 -0.1482  0.8595 -0.5656
 6430TIP3    H240706   5.370   1.491   1.925 -0.3456  0.0223 -0.7770
 6431TIP3   OH240707   3.133   1.575   4.780  0.4724  0.2070 -0.2508
 6431TIP3    H140708   3.215   1.566   4.828 -0.7005  1.4762  2.1640
 6431TIP3    H240709   3.126   1.668   4.759  0.4897 -0.1757 -2.0953
 6432TIP3   OH240710   5.888   5.341  16.208  0.1128  0.0772  0.4361
 6432TIP3    H140711   5.971   5.294  16.200 -1.2516 -2.3814 -0.1593
 6432TIP3    H240712   5.837   5.290  16.271 -2.2956 -0.6925 -1.9411
 6433TIP3   OH240713   0.448   3.727  15.677 -0.3193 -0.1189 -0.0987
 6433TIP3    H140714   0.508   3.754  15.746 -1.0732  0.8091  0.2106
 6433TIP3    H240715   0.451   3.631  15.679  1.4463 -0.1062 -0.3709
 6434TIP3   OH240716   5.954   0.805   3.939  0.0532 -0.5250  0.2393
 6434TIP3    H140717   5.931   0.720   3.976  1.7910 -1.3845 -0.5084
 6434TIP3    H240718   5.874   0.835   3.896 -1.2616 -0.6773  2.4300
 6435TIP3   OH240719   6.181   4.631  17.057 -0.2808 -0.0425  0.8183
 6435TIP3    H140720   6.230   4.699  17.011  0.3238 -0.1344  1.3189
 6435TIP3    H240721   6.229   4.550  17.038 -1.1850 -0.3890 -0.0475
 6436TIP3   OH240722   6.158   2.530  13.168 -0.4104 -0.0718  0.5055
 6436TIP3    H140723   6.162   2.484  13.253 -0.3905  0.8339  1.0089
 6436TIP3    H240724   6.134   2.619  13.191 -1.5187 -0.0779 -0.5609
 6437TIP3   OH240725   6.533   5.875   2.813  0.1833 -0.4422 -0.2146
 6437TIP3    H140726   6.592   5.853   2.886 -0.6275 -0.8808  0.3226
 6437TIP3    H240727   6.560   5.964   2.787  0.2886 -0.1529  0.8213
 6438TIP3   OH240728   5.507   1.241  13.391 -0.1449  0.1202  0.1779
 6438TIP3    H140729   5.447   1.257  13.319 -0.7504 -2.3215  0.0438
 6438TIP3    H240730   5.454   1.249  13.470 -0.0888  0.2881  0.1983
 6439TIP3   OH240731   6.481   3.114   4.788  0.3304 -0.1391  0.2451
 6439TIP3    H140732   6.443   3.194   4.751  0.1464  0.7047  2.1475
 6439TIP3    H240733   6.575   3.124   4.777  0.2888  0.2189  0.2251
 6440TIP3   OH240734   3.439   4.489  13.304  0.2788  0.1295  0.2667
 6440TIP3    H140735   3.432   4.394  13.297 -1.0536  0.2628 -0.8010
 6440TIP3    H240736   3.359   4.522  13.262  0.8590  1.7283  0.3269
 6441TIP3   OH240737   6.012   2.518   3.142 -0.3028  0.0150  0.0629
 6441TIP3    H140738   5.921   2.547   3.137 -0.1416  0.7219  0.8586
 6441TIP3    H240739   6.017   2.469   3.224 -0.2492 -1.1231 -0.6032
 6442TIP3   OH240740   2.681   1.299  11.697  0.2547  0.3644  0.7675
 6442TIP3    H140741   2.675   1.335  11.609 -1.2234  1.4184  1.2569
 6442TIP3    H240742   2.755   1.344  11.736  1.3290 -0.5813 -0.1135
 6443TIP3   OH240743   2.663   3.642   2.556 -0.3886 -0.2882 -0.3092
 6443TIP3    H140744   2.699   3.668   2.640 -3.6151 -2.4108  1.9790
 6443TIP3    H240745   2.737   3.604   2.509  1.4278  0.4967  1.7438
 6444TIP3   OH240746   4.964   2.635  14.969  0.3506 -0.2181  0.6590
 6444TIP3    H140747   4.986   2.566  15.031  0.8356  0.6044  1.4276
 6444TIP3    H240748   5.040   2.641  14.911  0.0572 -0.7270  0.2119
 6445TIP3   OH240749   4.202   4.667  16.362 -0.4931  0.1233 -0.2371
 6445TIP3    H140750   4.290   4.668  16.325  0.7463  1.1452  2.4625
 6445TIP3    H240751   4.198   4.587  16.414  0.1424  1.5643  2.2261
 6446TIP3   OH240752   6.428   1.927   2.920  0.0186 -0.4977  0.3568
 6446TIP3    H140753   6.372   1.869   2.972  1.7529 -1.9129  0.7605
 6446TIP3    H240754   6.414   2.014   2.958 -0.2769 -1.1766  1.8918
 6447TIP3   OH240755   5.049   1.094  16.429  0.1028  0.5844 -0.1357
 6447TIP3    H140756   4.998   1.157  16.480 -0.9327  0.3100 -0.7992
 6447TIP3    H240757   5.058   1.018  16.487  2.9226  1.9248  1.3820
 6448TIP3   OH240758   3.707   5.137   4.055 -0.1768  0.1698 -0.0826
 6448TIP3    H140759   3.626   5.093   4.080 -1.2499  3.1960  2.3573
 6448TIP3    H240760   3.681   5.229   4.042  2.4546  0.7872 -1.7753
 6449TIP3   OH240761   6.722   6.467   0.888 -0.0687 -0.0077  0.3220
 6449TIP3    H140762   6.750   6.530   0.955  0.5433 -0.9677  1.0050
 6449TIP3    H240763   6.649   6.420   0.929  1.6536 -2.0744  1.2614
 6450TIP3   OH240764   4.400   3.727   4.352 -0.6843 -0.2006  0.1309
 6450TIP3    H140765   4.487   3.715   4.313 -0.2646 -0.4067  1.1037
 6450TIP3    H240766   4.405   3.811   4.398 -1.5150  0.5655 -1.1066
 6451TIP3   OH240767   2.297   3.030  12.615 -0.1592  0.1441  0.5593
 6451TIP3    H140768   2.326   2.969  12.548 -0.8418  1.2261 -0.7729
 6451TIP3    H240769   2.364   3.098  12.617 -0.3998  0.3853  0.5930
 6452TIP3   OH240770   5.076   0.928   5.172  0.0940  0.3532  1.0612
 6452TIP3    H140771   5.167   0.903   5.156 -0.9133 -2.9623 -0.3291
 6452TIP3    H240772   5.075   1.023   5.161  3.2692  0.4448  0.6594
 6453TIP3   OH240773   1.670   4.117   3.893  0.0267  0.0912  0.3633
 6453TIP3    H140774   1.581   4.123   3.859  0.1314  0.7710  0.1774
 6453TIP3    H240775   1.686   4.024   3.904  0.0061 -0.1774 -1.5384
 6454TIP3   OH240776   3.070   0.290  14.307  0.0712 -0.0172  0.1764
 6454TIP3    H140777   3.114   0.208  14.288 -0.9156 -0.9320  1.5587
 6454TIP3    H240778   2.977   0.268  14.303 -0.2072  1.0826  0.3350
 6455TIP3   OH240779   5.664   0.389   2.365  0.3760  0.0384  0.1432
 6455TIP3    H140780   5.609   0.446   2.310  0.1329 -0.6701 -0.3605
 6455TIP3    H240781   5.633   0.405   2.454 -1.2066 -0.8973 -0.1962
 6456TIP3   OH240782   2.707   4.343  10.451 -1.1017 -0.0057 -0.3402
 6456TIP3    H140783   2.693   4.437  10.458  1.0764  0.4364 -0.9968
 6456TIP3    H240784   2.718   4.314  10.542  0.7246  0.8818 -0.2260
 6457TIP3   OH240785   5.075   2.386  13.689  0.2594  0.2947 -0.1559
 6457TIP3    H140786   4.986   2.404  13.720 -0.1661  1.7361 -1.9829
 6457TIP3    H240787   5.062   2.337  13.608  1.1883 -0.5035  0.1687
 6458TIP3   OH240788   4.144   0.345   2.114  0.7706  0.0696 -0.5843
 6458TIP3    H140789   4.176   0.307   2.033 -1.5091 -0.8259 -1.1541
 6458TIP3    H240790   4.066   0.395   2.089  0.9383  1.1147  0.8359
 6459TIP3   OH240791   0.170   2.997   4.923  0.2868 -0.4587  0.5432
 6459TIP3    H140792   0.120   2.938   4.980  1.7785 -1.4947  0.8420
 6459TIP3    H240793   0.108   3.021   4.853  0.1548 -4.1699 -0.8493
 6460TIP3   OH240794   6.621   0.478  15.704  0.4423  0.8497 -0.2693
 6460TIP3    H140795   6.639   0.412  15.636 -0.1888  0.2127  0.1680
 6460TIP3    H240796   6.630   0.430  15.786 -1.1423  1.0135  0.0246
 6461TIP3   OH240797   1.190   3.800  16.941  0.5282  0.1056  0.5094
 6461TIP3    H140798   1.218   3.709  16.941 -1.8441 -0.7439  2.2784
 6461TIP3    H240799   1.210   3.832  16.853  3.0606 -1.5145  0.4031
 6462TIP3   OH240800   6.038   5.321  14.722  0.6343  0.0870 -0.1196
 6462TIP3    H140801   5.991   5.357  14.647 -0.4141 -1.9829 -0.5480
 6462TIP3    H240802   6.076   5.239  14.689  0.6233 -0.5768  1.4420
 6463TIP3   OH240803   4.024   3.043  14.686 -0.1010  0.1731  0.3634
 6463TIP3    H140804   4.022   3.097  14.608 -2.4995 -0.5500 -0.1597
 6463TIP3    H240805   3.982   2.961  14.660 -0.2221 -0.3915  2.1830
 6464TIP3   OH240806   5.389   2.417  12.007 -0.2597 -0.3681 -0.3871
 6464TIP3    H140807   5.424   2.444  12.092  0.5756  1.7731 -1.3369
 6464TIP3    H240808   5.451   2.351  11.975 -0.2596 -0.7552  0.3772
 6465TIP3   OH240809   4.267   1.457  14.396 -0.0650 -0.2616  0.3018
 6465TIP3    H140810   4.271   1.541  14.351 -0.6960 -0.5531 -0.3213
 6465TIP3    H240811   4.340   1.407  14.358  0.9005  0.3102  1.3513
 6466TIP3   OH240812   2.603   2.330  12.721 -0.2512 -0.3960 -0.0969
 6466TIP3    H140813   2.576   2.398  12.659 -2.6684 -1.1156  0.0500
 6466TIP3    H240814   2.690   2.357  12.750  0.3818  0.7152 -2.7133
 6467TIP3   OH240815   4.133   5.689   0.304  0.0293 -0.1599  0.7886
 6467TIP3    H140816   4.185   5.728   0.375  2.4977 -1.0416 -0.4323
 6467TIP3    H240817   4.197   5.654   0.244 -2.0306 -0.8195 -1.1560
 6468TIP3   OH240818   2.793   1.983  16.225  0.4355  0.9316  0.1240
 6468TIP3    H140819   2.779   1.927  16.302  1.7589  1.4208  0.7581
 6468TIP3    H240820   2.882   2.016  16.236  0.0353  2.3868 -0.7324
 6469TIP3   OH240821   3.864   2.213  15.936  0.5463  0.3401  0.1072
 6469TIP3    H140822   3.920   2.136  15.932  1.0047  0.7083 -1.2141
 6469TIP3    H240823   3.925   2.287  15.940  0.1140  0.6477  1.7088
 6470TIP3   OH240824   6.428   2.346   1.605  0.2940 -0.1545  0.0982
 6470TIP3    H140825   6.507   2.360   1.553 -0.5445 -0.0785 -1.2066
 6470TIP3    H240826   6.424   2.422   1.664  0.8932  0.1212 -0.2080
 6471TIP3   OH240827   4.142   4.627   4.582  0.2854  0.7143 -0.2525
 6471TIP3    H140828   4.184   4.658   4.502  1.9528 -0.7396 -0.0119
 6471TIP3    H240829   4.071   4.571   4.552 -1.2226  2.7376 -0.6680
 6472TIP3   OH240830   1.972   4.879   1.981 -0.2109  0.1058 -0.0725
 6472TIP3    H140831   2.028   4.951   2.013 -0.1593 -0.9734  2.5015
 6472TIP3    H240832   2.028   4.802   1.984 -0.4974 -0.2394 -2.0934
 6473TIP3   OH240833   4.619   6.633   1.193 -0.7360 -0.1521 -0.1284
 6473TIP3    H140834   4.593   6.575   1.121 -1.9391 -0.3728  0.4645
 6473TIP3    H240835   4.683   6.581   1.243 -1.0455 -0.5768 -0.1695
 6474TIP3   OH240836   1.651   0.935  15.024  0.2257 -0.1294 -0.3681
 6474TIP3    H140837   1.578   0.894  15.071  0.8936  0.6365  1.4220
 6474TIP3    H240838   1.641   1.029  15.039  2.7006 -0.0955  1.7691
 6475TIP3   OH240839   5.519   6.710  12.797  0.8419  0.2656 -0.4223
 6475TIP3    H140840   5.452   6.779  12.791 -0.3274 -0.9711 -2.8122
 6475TIP3    H240841   5.518   6.684  12.890 -1.2967  0.9722 -0.1833
 6476TIP3   OH240842   6.553   2.757   5.002 -0.5259 -0.4613  0.3907
 6476TIP3    H140843   6.471   2.800   5.028 -0.9082 -0.9057 -0.0664
 6476TIP3    H240844   6.541   2.666   5.027  0.6133 -0.1720  2.1193
 6477TIP3   OH240845   1.442   2.579   2.371 -0.3537  0.2022 -0.1806
 6477TIP3    H140846   1.504   2.599   2.301 -0.8047  0.2354 -0.5711
 6477TIP3    H240847   1.448   2.653   2.431 -0.8856  0.7741 -0.8279
 6478TIP3   OH240848   6.136   2.211   6.362 -0.1600  0.3545 -0.3164
 6478TIP3    H140849   6.178   2.177   6.440 -0.8925 -1.2059 -0.5616
 6478TIP3    H240850   6.163   2.303   6.358  0.6584  0.2117  1.2193
 6479TIP3   OH240851   5.709   4.235   1.747  0.0182  1.1728 -0.5115
 6479TIP3    H140852   5.617   4.208   1.741  0.6902 -1.2330 -1.0923
 6479TIP3    H240853   5.732   4.218   1.839  0.2625  0.3260 -0.7204
 6480TIP3   OH240854   0.135   5.058   3.975 -0.4978 -0.4863  0.5040
 6480TIP3    H140855   0.042   5.059   4.000 -0.4894 -2.2349  0.7277
 6480TIP3    H240856   0.134   5.039   3.881 -0.3585 -1.4473  0.6893
 6481TIP3   OH240857   2.607   6.405  11.853 -0.0943  0.0969 -0.2538
 6481TIP3    H140858   2.538   6.344  11.877  0.0109 -0.3967 -1.1480
 6481TIP3    H240859   2.688   6.354  11.860  0.2807  0.8424  1.3978
 6482TIP3   OH240860   4.138   4.006  11.085  0.1577  0.1375  0.7427
 6482TIP3    H140861   4.114   4.074  11.022  3.8778  1.0002  0.0216
 6482TIP3    H240862   4.137   4.050  11.170  0.7386  0.6154  0.5098
 6483TIP3   OH240863   2.275   2.033  15.722 -0.2177  0.5403 -0.3420
 6483TIP3    H140864   2.350   2.028  15.781  0.2626 -2.0663 -1.0235
 6483TIP3    H240865   2.202   2.059  15.779  0.7448  0.8831  0.7935
 6484TIP3   OH240866   4.513   1.887  11.025 -0.0226 -0.0376  0.3032
 6484TIP3    H140867   4.568   1.851  11.094 -1.5096 -3.7098 -0.2227
 6484TIP3    H240868   4.533   1.834  10.948 -1.4286  1.1623 -0.9435
 6485TIP3   OH240869   1.908   6.221  12.976  0.5273  0.1055 -0.1876
 6485TIP3    H140870   1.830   6.240  12.923  0.7066  0.1967 -0.4204
 6485TIP3    H240871   1.891   6.134  13.013 -0.9954  1.2716  2.1198
 6486TIP3   OH240872   3.722   6.247  14.817 -0.1106  0.2653 -0.1484
 6486TIP3    H140873   3.780   6.179  14.782 -0.0703  0.7079 -0.9524
 6486TIP3    H240874   3.743   6.250  14.910 -1.2739 -1.9755  0.2631
 6487TIP3   OH240875   4.960   6.803   5.032 -0.4414  0.4927  0.1742
 6487TIP3    H140876   4.893   6.858   5.071 -0.7525  0.2944 -0.0762
 6487TIP3    H240877   4.951   6.817   4.938  0.6701  1.3936  0.1855
 6488TIP3   OH240878   4.976   3.229   5.032 -0.4515  0.6599  0.6374
 6488TIP3    H140879   4.931   3.151   5.000 -1.3720  1.3572  0.1954
 6488TIP3    H240880   5.056   3.196   5.073  0.0350 -0.3937 -1.0527
 6489TIP3   OH240881   2.007   2.147   4.309 -0.6218  0.5974  0.5107
 6489TIP3    H140882   1.915   2.136   4.284 -0.5976 -2.8903  1.4250
 6489TIP3    H240883   2.004   2.180   4.398 -1.0774 -0.4360  0.8986
 6490TIP3   OH240884   4.236   6.470   5.105 -0.2172  0.2676  0.1297
 6490TIP3    H140885   4.322   6.445   5.072 -0.2392  2.0370 -1.4160
 6490TIP3    H240886   4.251   6.487   5.198  0.0959 -3.6352  0.9913
 6491TIP3   OH240887   6.499   2.041  12.043 -0.0323 -0.1516  0.1963
 6491TIP3    H140888   6.558   2.068  11.973  1.5231 -0.8201  1.2139
 6491TIP3    H240889   6.428   1.996  11.998  0.6695 -0.1170 -0.9915
 6492TIP3   OH240890   1.834   2.070  13.254 -0.0346 -0.4415 -0.4500
 6492TIP3    H140891   1.864   1.980  13.245  0.5261 -0.4170  0.9271
 6492TIP3    H240892   1.743   2.068  13.226 -0.3042 -1.6474  0.4410
 6493TIP3   OH240893   3.617   0.939  16.463  0.1755  0.3252 -0.2357
 6493TIP3    H140894   3.567   1.013  16.497  1.5652  0.5715  1.4147
 6493TIP3    H240895   3.684   0.923  16.529  1.4185 -0.8646 -1.6999
 6494TIP3   OH240896   4.577   0.299  15.766 -0.3325  0.1442  0.1687
 6494TIP3    H140897   4.498   0.279  15.817  0.2469  1.4477  1.6681
 6494TIP3    H240898   4.544   0.333  15.683 -1.3255 -0.7609  0.1685
 6495TIP3   OH240899   5.289   3.046   4.972  0.3513 -0.0108 -0.0098
 6495TIP3    H140900   5.234   3.061   5.049 -1.4579  0.4804 -1.3226
 6495TIP3    H240901   5.328   2.960   4.985  0.2663  0.1662  1.5413
 6496TIP3   OH240902   3.379   1.467   6.101 -0.3845 -0.0670  0.0932
 6496TIP3    H140903   3.372   1.562   6.097  0.2614 -0.0549 -1.8145
 6496TIP3    H240904   3.473   1.450   6.098 -0.4480 -0.7590  1.4354
 6497TIP3   OH240905   0.761   5.612  17.062  0.0634 -0.4992  0.2771
 6497TIP3    H140906   0.787   5.520  17.074  0.4782 -0.3644  0.4208
 6497TIP3    H240907   0.759   5.624  16.967  1.6219 -0.2129  0.2512
 6498TIP3   OH240908   6.584   0.808  12.874 -0.2969  0.3515 -0.1677
 6498TIP3    H140909   6.646   0.848  12.812  0.7144  0.7370  1.0527
 6498TIP3    H240910   6.578   0.717  12.846 -0.8836  0.7990 -1.6164
 6499TIP3   OH240911   0.326   5.175  15.936 -0.2114  0.0039 -0.2924
 6499TIP3    H140912   0.347   5.196  16.027 -1.0287  0.0850 -0.1156
 6499TIP3    H240913   0.375   5.094  15.918  1.1369  0.7861 -0.2639
 6500TIP3   OH240914   1.751   3.501   4.582 -0.1650 -0.4698 -0.1840
 6500TIP3    H140915   1.754   3.514   4.677  0.0187 -1.3760 -0.0547
 6500TIP3    H240916   1.841   3.483   4.557  0.1076  1.5944 -0.8356
 6501TIP3   OH240917   1.335   4.177   5.620  0.3086 -0.1096  0.0328
 6501TIP3    H140918   1.394   4.227   5.677  0.6432  0.1159 -0.5018
 6501TIP3    H240919   1.389   4.152   5.546 -0.0731 -0.5739 -0.0936
 6502TIP3   OH240920   3.894   4.694  11.848 -0.1441  0.2516 -0.5374
 6502TIP3    H140921   3.946   4.627  11.804  0.3185  0.7152 -0.7113
 6502TIP3    H240922   3.958   4.757  11.881 -0.6059  1.0200 -1.0652
 6503TIP3   OH240923   1.390   1.555  11.571 -0.8648  0.5109  0.5292
 6503TIP3    H140924   1.465   1.589  11.523 -0.6345 -1.9779 -1.0434
 6503TIP3    H240925   1.428   1.504  11.643 -1.0807  0.5523  0.6732
 6504TIP3   OH240926   5.970   1.852  12.278 -0.4015 -0.1627  0.1446
 6504TIP3    H140927   5.901   1.916  12.297 -0.3956 -0.3651  0.8782
 6504TIP3    H240928   6.019   1.891  12.205 -1.9702 -0.5355 -1.1799
 6505TIP3   OH240929   1.996   3.450  12.568 -0.4659  0.2024 -0.5234
 6505TIP3    H140930   1.935   3.513  12.605 -0.5505  0.3701 -0.9452
 6505TIP3    H240931   2.042   3.499  12.499  1.2163  0.5499  0.7575
 6506TIP3   OH240932   5.994   0.649  16.551  0.1438 -0.0129 -0.2673
 6506TIP3    H140933   5.944   0.615  16.477  1.9332 -0.9141 -1.1189
 6506TIP3    H240934   6.012   0.572  16.605  0.5690  0.3033  0.0548
 6507TIP3   OH240935   3.627   2.902   4.048  0.0930  0.3099  0.5304
 6507TIP3    H140936   3.626   2.839   3.976  1.6564 -0.4236  1.1213
 6507TIP3    H240937   3.581   2.978   4.013  0.4093 -0.1999 -1.0834
 6508TIP3   OH240938   1.399   5.719   5.412  0.3717  0.1725 -0.4271
 6508TIP3    H140939   1.384   5.813   5.427  0.9275  0.2090 -0.0904
 6508TIP3    H240940   1.313   5.679   5.428  0.0515  0.6563 -0.8973
 6509TIP3   OH240941   4.729   0.927   1.903  0.4031 -0.1521 -0.0525
 6509TIP3    H140942   4.755   0.838   1.928  0.1483 -0.2558 -0.1501
 6509TIP3    H240943   4.750   0.934   1.810 -0.7436 -0.5544 -0.3642
 6510TIP3   OH240944   2.913   1.993   3.232  0.5214  0.1047 -0.3972
 6510TIP3    H140945   2.845   1.965   3.170  0.3800 -1.6886  0.4775
 6510TIP3    H240946   2.885   2.080   3.260 -1.6438 -0.6698  0.1385
 6511TIP3   OH240947   1.772   1.315   3.256  0.1625 -0.1903 -0.3444
 6511TIP3    H140948   1.710   1.373   3.300  1.7636 -0.3536  2.3426
 6511TIP3    H240949   1.816   1.372   3.192 -1.1054  0.4775 -0.6705
 6512TIP3   OH240950   2.068   5.801   3.471  0.6111  0.2333  0.5078
 6512TIP3    H140951   2.106   5.767   3.390 -1.9219 -0.2979 -0.5355
 6512TIP3    H240952   2.082   5.895   3.467 -1.3395  0.5245 -1.6816
 6513TIP3   OH240953   3.399   6.673  13.899  0.4085  0.3196  0.6916
 6513TIP3    H140954   3.486   6.709  13.916 -0.2957  3.0606 -0.8635
 6513TIP3    H240955   3.343   6.712  13.966 -0.0210  0.4830  0.2429
 6514TIP3   OH240956   2.986   3.532   3.804  0.1864 -0.1739  0.3859
 6514TIP3    H140957   3.032   3.456   3.767 -0.4683 -0.8743  0.9849
 6514TIP3    H240958   3.043   3.606   3.783 -0.3312 -0.4575 -2.3877
 6515TIP3   OH240959   2.816   6.519   5.916  0.3295  0.1242 -0.0544
 6515TIP3    H140960   2.813   6.581   5.989  0.1967  1.9191 -1.5183
 6515TIP3    H240961   2.882   6.554   5.857 -0.5564 -0.5104 -1.4705
 6516TIP3   OH240962   1.266   2.738  12.018  0.2519 -0.1277  0.3458
 6516TIP3    H140963   1.209   2.733  12.095 -0.7788  0.0465 -0.3758
 6516TIP3    H240964   1.352   2.712  12.050 -0.5675 -2.0803  1.1402
 6517TIP3   OH240965   4.169   4.514  15.950  0.0596  0.1211  0.8683
 6517TIP3    H140966   4.199   4.546  16.035 -0.7004  0.4447  1.0227
 6517TIP3    H240967   4.228   4.442  15.929  1.4013  1.1984  0.8196
 6518TIP3   OH240968   4.444   5.981  14.065  0.1202 -0.4310  0.5969
 6518TIP3    H140969   4.482   5.943  14.144 -1.0655  0.9467  1.9062
 6518TIP3    H240970   4.390   5.911  14.029 -1.0950 -0.4354  2.2903
 6519TIP3   OH240971   6.213   6.157  17.025  0.2574  0.2125  0.3762
 6519TIP3    H140972   6.145   6.216  17.058  0.7751  0.3241  1.2986
 6519TIP3    H240973   6.267   6.138  17.102  1.0093 -0.2275 -0.2409
 6520TIP3   OH240974   0.334   3.832  16.043  0.0410  0.0788  0.1156
 6520TIP3    H140975   0.402   3.899  16.030  1.1875 -1.0001  0.3612
 6520TIP3    H240976   0.380   3.759  16.084 -0.6396 -1.8227 -2.2668
 6521TIP3   OH240977   2.730   0.053   4.265 -0.4679  0.1893 -0.1947
 6521TIP3    H140978   2.684   0.074   4.346 -0.5503 -1.0406  0.1018
 6521TIP3    H240979   2.792  -0.016   4.290 -0.0795  0.2058 -1.0633
 6522TIP3   OH240980   3.020   2.899  11.731  0.2266  0.2589 -0.1005
 6522TIP3    H140981   3.055   2.871  11.647 -0.7621  0.6996 -0.6777
 6522TIP3    H240982   3.094   2.943  11.774  0.8919 -0.4515 -0.5003
 6523TIP3   OH240983   0.359   2.320   5.353 -0.5020 -0.2480  0.3231
 6523TIP3    H140984   0.328   2.271   5.277  0.7690  1.5633 -1.4533
 6523TIP3    H240985   0.454   2.323   5.343 -0.4168  1.1950  1.2348
 6524TIP3   OH240986   3.230   0.757  16.205 -0.4384  0.6836  0.2399
 6524TIP3    H140987   3.219   0.846  16.172  0.4195  0.3096 -1.0982
 6524TIP3    H240988   3.169   0.704  16.153  0.6157  0.1580 -0.4887
 6525TIP3   OH240989   1.019   4.358  16.841 -0.1506  0.5433  0.4789
 6525TIP3    H140990   1.039   4.312  16.760 -1.9230  1.4097 -0.5022
 6525TIP3    H240991   0.998   4.289  16.903  0.2496 -0.0885 -0.0740
 6526TIP3   OH240992   2.334   4.283  11.521 -0.2441  0.5795 -0.5838
 6526TIP3    H140993   2.260   4.339  11.498  0.4137  2.2565  1.0806
 6526TIP3    H240994   2.383   4.274  11.439 -1.5238  0.5780 -1.3850
 6527TIP3   OH240995   5.964   4.321   5.079 -0.1203 -0.2082  0.8776
 6527TIP3    H140996   6.025   4.376   5.128  0.1634  0.1531  0.1297
 6527TIP3    H240997   5.923   4.380   5.016  0.1003 -0.8245  0.1407
 6528TIP3   OH240998   5.542   5.027   0.887 -0.2402 -0.3910 -0.1292
 6528TIP3    H140999   5.602   4.954   0.873  3.2023  2.0170  0.8755
 6528TIP3    H241000   5.484   4.997   0.957 -0.4567 -2.8999 -1.2745
 6529TIP3   OH241001   3.926   4.331   3.053  0.3273 -0.1497 -0.1720
 6529TIP3    H141002   4.014   4.317   3.088 -0.2977 -1.5352  0.9691
 6529TIP3    H241003   3.931   4.298   2.963  1.3521  1.2479 -0.6537
 6530TIP3   OH241004   6.341   3.546   2.176 -0.2884 -0.5020 -1.0937
 6530TIP3    H141005   6.342   3.628   2.225 -0.4534 -0.5673 -0.9797
 6530TIP3    H241006   6.434   3.525   2.164 -0.2422 -0.6759 -0.4780
 6531TIP3   OH241007   1.870   4.504   2.165 -0.3025 -0.1399 -0.5431
 6531TIP3    H141008   1.826   4.581   2.129 -0.8656  1.4382  3.0869
 6531TIP3    H241009   1.802   4.456   2.212  0.8456 -0.4124  0.9303
 6532TIP3   OH241010   5.131   2.718  17.006 -0.2959 -0.2794 -0.3960
 6532TIP3    H141011   5.151   2.654  17.075  0.9889  1.2330  0.7085
 6532TIP3    H241012   5.078   2.784  17.051 -1.0899 -0.2426 -1.3654
 6533TIP3   OH241013   5.416   6.565  13.842 -0.5838  0.8830  0.1189
 6533TIP3    H141014   5.468   6.643  13.826  0.7573 -0.0180 -0.1100
 6533TIP3    H241015   5.363   6.555  13.763 -1.0078  1.7235  0.2855
 6534TIP3   OH241016   4.508   5.290   1.725  0.4807 -0.3963 -0.0183
 6534TIP3    H141017   4.496   5.381   1.753 -1.3235 -1.0064  1.4032
 6534TIP3    H241018   4.562   5.251   1.794  1.1416 -0.4478 -0.5586
 6535TIP3   OH241019   2.415   6.535  12.615  0.5954 -0.4393 -0.1469
 6535TIP3    H141020   2.485   6.582  12.569  0.9811 -1.6439 -0.8122
 6535TIP3    H241021   2.352   6.604  12.638  1.6019  0.5495 -0.2473
 6536TIP3   OH241022   2.409   4.799   2.548 -0.5450 -0.1335 -1.1873
 6536TIP3    H141023   2.378   4.784   2.637  0.8953 -1.6076 -0.8884
 6536TIP3    H241024   2.442   4.889   2.549  1.1024 -0.7179  0.2937
 6537TIP3   OH241025   4.609   3.020   5.869 -0.0999  1.4599 -0.1960
 6537TIP3    H141026   4.583   2.994   5.781 -0.0287  1.1974 -0.1390
 6537TIP3    H241027   4.542   2.984   5.927 -0.0635  1.5000 -0.1272
 6538TIP3   OH241028   4.232   0.479   3.378 -0.3429 -0.3721 -0.0110
 6538TIP3    H141029   4.154   0.442   3.419 -0.8081  1.0256  0.4205
 6538TIP3    H241030   4.286   0.511   3.451 -0.4217  0.6708 -0.3921
 6539TIP3   OH241031   5.622   1.131   3.671 -0.6760  0.4811 -0.0654
 6539TIP3    H141032   5.685   1.112   3.602  0.6640  1.4382  0.8575
 6539TIP3    H241033   5.640   1.221   3.697 -2.0626  0.5980  0.6024
 6540TIP3   OH241034   3.341   5.105  12.719  0.1147  0.4457  0.2147
 6540TIP3    H141035   3.355   5.100  12.624  1.0461  0.3889  0.3453
 6540TIP3    H241036   3.258   5.151  12.729  0.3642  1.0971 -0.6178
 6541TIP3   OH241037   5.885   4.621  17.032  0.6116  0.3611 -0.1900
 6541TIP3    H141038   5.971   4.596  16.998  0.7920  1.3726 -0.5116
 6541TIP3    H241039   5.904   4.679  17.106  0.2068  0.3730 -0.0944
 6542TIP3   OH241040   4.891   5.715  14.145  0.5228 -0.2048  0.2030
 6542TIP3    H141041   4.921   5.731  14.056 -0.0976  1.4880  0.2638
 6542TIP3    H241042   4.802   5.681  14.135  0.3632  0.2180  0.1790
 6543TIP3   OH241043   1.927   1.706   4.729  0.4777 -0.1011  0.1365
 6543TIP3    H141044   1.878   1.786   4.749  0.0616 -0.0422 -1.0066
 6543TIP3    H241045   2.004   1.711   4.785 -0.0563  0.5819  0.8406
 6544TIP3   OH241046   2.231   5.243   1.813  0.5727 -0.0422  0.1249
 6544TIP3    H141047   2.167   5.311   1.835  1.0966  1.2907 -2.1333
 6544TIP3    H241048   2.215   5.173   1.877 -1.6881  1.1294  0.9538
 6545TIP3   OH241049   3.877   4.209  15.693  0.0788  0.0206 -0.4565
 6545TIP3    H141050   3.862   4.145  15.763  0.4586  1.5252  1.0722
 6545TIP3    H241051   3.955   4.177  15.648  2.0956  0.8110  2.1556
 6546TIP3   OH241052   1.122   3.082  14.398 -0.0659  0.5093  0.3625
 6546TIP3    H141053   1.202   3.095  14.348 -0.2743  0.9343  0.1357
 6546TIP3    H241054   1.146   3.106  14.488 -0.5536  3.0929 -0.0999
 6547TIP3   OH241055   1.881   0.014  14.837  0.4328 -0.3050  0.2270
 6547TIP3    H141056   1.853  -0.077  14.853  0.3757 -0.2144  0.6613
 6547TIP3    H241057   1.824   0.045  14.767 -0.1511 -0.3178  0.6904
 6548TIP3   OH241058   3.781   0.380  16.726  0.0369 -0.4699 -0.6493
 6548TIP3    H141059   3.858   0.401  16.779  0.0109 -3.4895  0.7527
 6548TIP3    H241060   3.814   0.326  16.655 -0.3772  1.0657 -2.0765
 6549TIP3   OH241061   5.570   4.579  12.469 -0.5786 -0.1097 -0.8392
 6549TIP3    H141062   5.535   4.524  12.399 -0.3882  0.6138 -1.5100
 6549TIP3    H241063   5.663   4.591  12.446 -0.4633 -0.0345 -0.3500
 6550TIP3   OH241064   5.784   3.097  15.899  0.1818  0.4244 -0.2876
 6550TIP3    H141065   5.820   3.126  15.814 -0.8583 -0.8940 -1.2098
 6550TIP3    H241066   5.721   3.029  15.876 -0.9385  0.8115  1.4926
 6551TIP3   OH241067   3.618   4.552  15.542 -0.4397  0.6088  0.1377
 6551TIP3    H141068   3.547   4.489  15.528  0.9374 -1.0516  0.2512
 6551TIP3    H241069   3.598   4.625  15.484 -2.3675  0.3125  0.3806
 6552TIP3   OH241070   4.513   6.591  11.637  0.3010 -0.3562 -0.2682
 6552TIP3    H141071   4.468   6.592  11.721  1.0111 -0.2236  0.1255
 6552TIP3    H241072   4.459   6.536  11.581 -0.5763  0.1582  0.0465
 6553TIP3   OH241073   0.009   2.958   2.600 -0.0620 -0.0891  0.3569
 6553TIP3    H141074   0.004   3.053   2.589 -3.8966 -0.2425 -0.5889
 6553TIP3    H241075   0.011   2.945   2.695  0.5639  0.9031  0.4928
 6554TIP3   OH241076   4.868   1.160   4.230  0.2346  0.1228 -0.4618
 6554TIP3    H141077   4.957   1.161   4.195  0.9124  1.0722  1.1596
 6554TIP3    H241078   4.880   1.154   4.325 -1.4427  0.0846 -0.2252
 6555TIP3   OH241079   2.504   5.686   3.010 -0.6626 -0.0665 -0.5559
 6555TIP3    H141080   2.460   5.770   2.994  0.1941  0.7062  0.9308
 6555TIP3    H241081   2.566   5.705   3.080  0.0379 -1.8007 -0.6720
 6556TIP3   OH241082   2.953   5.892   2.608 -0.2008  0.5494  0.0007
 6556TIP3    H141083   2.975   5.984   2.600  0.5573  0.2894 -1.1437
 6556TIP3    H241084   3.034   5.850   2.639  0.6368 -0.2053 -2.8918
 6557TIP3   OH241085   4.457   4.953  16.315 -0.3768 -0.2277 -0.1452
 6557TIP3    H141086   4.469   5.039  16.276  0.0684  0.0443  0.5909
 6557TIP3    H241087   4.363   4.949  16.336 -0.6795 -0.4761 -1.4467
 6558TIP3   OH241088   5.840   5.470  11.098  0.1017 -0.1663 -0.2054
 6558TIP3    H141089   5.850   5.506  11.186  0.2671  2.0801 -1.0570
 6558TIP3    H241090   5.767   5.519  11.060  0.7742 -0.2440 -1.6928
 6559TIP3   OH241091   1.954   1.413  13.326  0.6947 -0.1972  0.2970
 6559TIP3    H141092   1.911   1.496  13.304  1.8607  0.1270 -0.8932
 6559TIP3    H241093   1.925   1.394  13.415  0.2074  1.3711  0.5015
 6560TIP3   OH241094   5.316   6.668   3.191 -0.2644 -0.3187  0.1911
 6560TIP3    H141095   5.324   6.626   3.105 -2.3039  1.2996 -0.8595
 6560TIP3    H241096   5.292   6.596   3.249  1.6313 -1.5381 -0.4268
 6561TIP3   OH241097   0.953   3.669   1.979  0.1090 -0.3356 -0.0180
 6561TIP3    H141098   0.875   3.692   2.030  0.4436 -0.3672  0.5178
 6561TIP3    H241099   0.988   3.753   1.949  0.3192 -0.2569  0.4275
 6562TIP3   OH241100   3.266   3.248   2.342 -0.2337 -0.0907 -0.3561
 6562TIP3    H141101   3.287   3.187   2.412 -0.0414  0.4974  0.1149
 6562TIP3    H241102   3.173   3.269   2.355 -0.3224 -0.3391 -0.5697
 6563TIP3   OH241103   6.777   2.961   2.214  0.1339  0.5961 -0.2242
 6563TIP3    H141104   6.803   2.889   2.157  0.5591  1.0287 -0.5857
 6563TIP3    H241105   6.691   2.988   2.182  1.4408  2.5370 -2.3853
 6564TIP3   OH241106   4.165   1.799  16.926  0.0776  0.3381  0.0269
 6564TIP3    H141107   4.085   1.812  16.875  1.1685 -0.0356 -1.8732
 6564TIP3    H241108   4.216   1.878  16.911  0.8055 -0.1699 -0.2312
 6565TIP3   OH241109   0.011   3.768  15.738  0.1619  0.2030 -0.2882
 6565TIP3    H141110  -0.051   3.803  15.674 -0.2218 -1.3697 -0.8327
 6565TIP3    H241111   0.066   3.709  15.687  0.6258 -0.1671  0.6272
 6566TIP3   OH241112   2.737   2.731  13.825  0.0054  0.9075  0.2299
 6566TIP3    H141113   2.723   2.798  13.893  0.6579  0.2723  1.0105
 6566TIP3    H241114   2.652   2.723  13.781  0.4576  3.8930 -1.4493
 6567TIP3   OH241115   5.024   0.053   5.393 -0.0950  0.4116  0.2771
 6567TIP3    H141116   5.120   0.056   5.389 -0.1339  1.7083 -2.1928
 6567TIP3    H241117   5.001   0.099   5.473  1.3546  1.1753  0.2851
 6568TIP3   OH241118   1.036   0.938  13.570  0.3926 -0.1404 -0.7747
 6568TIP3    H141119   1.071   0.880  13.503 -0.0291 -0.1053 -1.0287
 6568TIP3    H241120   1.109   0.997  13.591  1.0203 -1.1409 -0.0659
 6569TIP3   OH241121   0.004   5.719   6.448  0.6133 -0.1773 -0.0642
 6569TIP3    H141122   0.005   5.646   6.510 -0.8659 -0.7850 -0.7109
 6569TIP3    H241123  -0.008   5.797   6.503 -1.4207 -0.7637  0.4286
 6570TIP3   OH241124   2.748   3.346   5.085  0.3327  0.1310 -0.3278
 6570TIP3    H141125   2.819   3.304   5.133 -1.7061 -0.6230  2.2325
 6570TIP3    H241126   2.738   3.432   5.127  0.2505  0.5745 -1.2233
 6571TIP3   OH241127   0.410   5.885  14.790 -0.3272 -0.3158  0.2021
 6571TIP3    H141128   0.419   5.833  14.710 -0.1483 -0.5703  0.3829
 6571TIP3    H241129   0.357   5.960  14.765  0.4377  0.0493 -0.3642
 6572TIP3   OH241130   1.438   1.490   0.448  0.1181  0.4367  0.3956
 6572TIP3    H141131   1.404   1.535   0.370 -0.0161 -1.0821 -0.4707
 6572TIP3    H241132   1.412   1.545   0.521 -1.6124  0.8521 -0.4850
 6573TIP3   OH241133   2.250   3.105  16.321 -0.1592  0.1579  0.5914
 6573TIP3    H141134   2.247   3.199  16.341 -0.3974  0.7537 -1.9007
 6573TIP3    H241135   2.338   3.091  16.286  0.1193 -0.7256  1.6087
 6574TIP3   OH241136   0.159   3.278   1.332  0.0556  0.2962  0.1721
 6574TIP3    H141137   0.177   3.349   1.271 -0.3266 -0.1143 -0.4303
 6574TIP3    H241138   0.203   3.202   1.294 -0.2571  0.0166  0.3590
 6575TIP3   OH241139   2.889   3.968  13.108 -0.0090  0.2350 -0.2074
 6575TIP3    H141140   2.905   3.883  13.149 -1.1769  0.5074  0.8453
 6575TIP3    H241141   2.949   3.970  13.033  1.7694 -0.4990  1.1371
 6576TIP3   OH241142   4.698   4.691  12.801  0.5531  0.0492 -0.8322
 6576TIP3    H141143   4.736   4.614  12.758  1.0754 -0.5368  0.6202
 6576TIP3    H241144   4.756   4.709  12.875 -1.1070  0.0679  0.5427
 6577TIP3   OH241145   0.323   4.649  14.447  0.1632 -0.0345 -0.1551
 6577TIP3    H141146   0.246   4.658  14.503  0.0793  0.1925 -0.3051
 6577TIP3    H241147   0.385   4.597  14.498  0.1070  0.2168  0.1700
 6578TIP3   OH241148   5.383   0.989   2.754 -0.1450  0.0975  0.2949
 6578TIP3    H141149   5.299   0.965   2.716 -0.6127 -1.1654  2.0284
 6578TIP3    H241150   5.362   1.053   2.822  0.6723  2.2451 -1.3399
 6579TIP3   OH241151   1.618   3.935   5.687  0.4989  0.1221  0.5071
 6579TIP3    H141152   1.581   3.895   5.765  0.8689  0.5363  0.9013
 6579TIP3    H241153   1.562   3.905   5.616  1.1195 -1.5962  0.6958
 6580TIP3   OH241154   6.244   3.067   5.486 -0.6996 -0.7027  0.1132
 6580TIP3    H141155   6.212   3.146   5.530 -2.4318  0.4018 -2.7825
 6580TIP3    H241156   6.169   3.008   5.487 -1.7233  0.2960 -3.1761
 6581TIP3   OH241157   1.748   4.398  11.749 -0.3974 -0.4288 -0.0461
 6581TIP3    H141158   1.788   4.348  11.679  1.4531 -0.5689  1.0517
 6581TIP3    H241159   1.678   4.342  11.782 -0.6458 -0.7714 -1.1258
 6582TIP3   OH241160   5.387   3.126   4.386  0.0371  0.0564 -0.3044
 6582TIP3    H141161   5.368   3.041   4.346  0.2590  0.4432 -1.2724
 6582TIP3    H241162   5.357   3.190   4.321  1.5728  0.6983 -0.4406
 6583TIP3   OH241163   1.292   0.881  10.993  0.0931  0.5563  0.1113
 6583TIP3    H141164   1.287   0.870  10.898 -2.6940  3.0307 -0.1654
 6583TIP3    H241165   1.256   0.800  11.029  2.0564 -0.8029 -0.8317
 6584TIP3   OH241166   2.521   0.923  13.430 -0.4009 -0.1492 -0.4403
 6584TIP3    H141167   2.427   0.909  13.422  0.0165 -2.6802 -2.7691
 6584TIP3    H241168   2.544   0.888  13.516 -1.5455  0.4672  0.1358
 6585TIP3   OH241169   2.457   0.052  10.917  0.3083  0.1700  0.1642
 6585TIP3    H141170   2.467   0.060  10.823  2.1229  2.8477  0.4824
 6585TIP3    H241171   2.542   0.021  10.948  0.0543  0.2813  0.9993
 6586TIP3   OH241172   3.187   3.690  14.638  0.2232  0.4336  0.0022
 6586TIP3    H141173   3.209   3.625  14.704 -0.1313  0.3595  0.0469
 6586TIP3    H241174   3.249   3.761  14.653  1.3113 -0.3407 -0.7295
 6587TIP3   OH241175   2.549   0.749  16.541 -0.3070  0.0695  0.2252
 6587TIP3    H141176   2.570   0.829  16.589 -0.9783 -0.2587  1.0921
 6587TIP3    H241177   2.628   0.696  16.548  1.6199  2.0569 -3.5162
 6588TIP3   OH241178   2.819   4.965   2.050  0.2378  0.0411  0.2713
 6588TIP3    H141179   2.906   4.924   2.057 -0.1736 -0.7902  0.6849
 6588TIP3    H241180   2.798   4.958   1.957  0.4569 -0.1027  0.2293
 6589TIP3   OH241181   1.069   2.280  11.343 -0.0029 -0.0460  0.3198
 6589TIP3    H141182   1.055   2.200  11.394 -0.0905 -0.3414 -0.1568
 6589TIP3    H241183   1.137   2.256  11.280  0.1640  0.3404  0.3520
 6590TIP3   OH241184   2.900   2.872   4.959 -0.3524  0.4583  0.0069
 6590TIP3    H141185   2.873   2.780   4.965  0.3482  0.3000  0.9752
 6590TIP3    H241186   2.844   2.909   4.891 -2.8164  0.0894  1.7264
 6591TIP3   OH241187   6.555   3.225  14.832 -0.6332 -0.6772  0.4541
 6591TIP3    H141188   6.543   3.319  14.846 -0.4787 -0.7776  1.3183
 6591TIP3    H241189   6.489   3.202  14.767  0.0141  0.2162 -0.5626
 6592TIP3   OH241190   2.947   2.792   5.956 -0.1027 -0.2996 -0.0529
 6592TIP3    H141191   3.002   2.725   5.916 -1.6622 -1.3102 -0.6001
 6592TIP3    H241192   2.903   2.834   5.882 -1.3569 -0.6882  0.4577
 6593TIP3   OH241193   2.926   4.336  13.733  0.3846  0.6055 -0.4962
 6593TIP3    H141194   2.915   4.428  13.757 -2.4055  0.0417  0.7820
 6593TIP3    H241195   2.877   4.288  13.800  1.6471 -1.8264 -1.2045
 6594TIP3   OH241196   4.490   4.556   2.427  0.2299 -0.1534 -0.0455
 6594TIP3    H141197   4.480   4.465   2.399  1.0329  0.5624 -3.0445
 6594TIP3    H241198   4.510   4.604   2.347 -0.4542  2.7595  1.3747
 6595TIP3   OH241199   1.400   6.357  13.694 -0.6210 -0.1178 -0.1172
 6595TIP3    H141200   1.330   6.373  13.630 -1.6707  0.3715  1.1116
 6595TIP3    H241201   1.428   6.444  13.722 -1.5965 -0.3052  1.5639
 6596TIP3   OH241202   5.364   4.833   3.974  0.6692  0.5707  0.1881
 6596TIP3    H141203   5.448   4.804   4.010  0.1513 -0.1921  0.7858
 6596TIP3    H241204   5.305   4.837   4.049  0.1140  0.9368 -0.2560
 6597TIP3   OH241205   4.068   4.904  12.641 -0.6908 -0.1692  0.1790
 6597TIP3    H141206   3.980   4.940  12.627 -0.4807  0.9378  1.5542
 6597TIP3    H241207   4.068   4.874  12.732  0.6577  0.7543  0.5146
 6598TIP3   OH241208   3.284   6.622  12.013  0.1312  0.1049 -0.0712
 6598TIP3    H141209   3.355   6.564  11.985  0.5649  0.0875  1.0289
 6598TIP3    H241210   3.240   6.647  11.932  0.6198 -0.8862 -0.6565
 6599TIP3   OH241211   6.080   2.495   2.364 -0.2772  0.5063  0.3479
 6599TIP3    H141212   6.065   2.582   2.327 -0.2131 -0.2734 -1.6661
 6599TIP3    H241213   5.999   2.447   2.345  1.4008 -1.3236 -3.2540
 6600TIP3   OH241214   4.951   2.361  13.012 -0.3709 -0.0927 -0.2807
 6600TIP3    H141215   4.985   2.272  13.003  0.3198  0.2707 -1.6412
 6600TIP3    H241216   4.940   2.373  13.106  0.1787 -1.3764 -0.0267
 6601TIP3   OH241217   5.249   3.798  11.571  0.4410 -1.1585  0.2572
 6601TIP3    H141218   5.339   3.819  11.596  0.6460 -0.6203 -0.8490
 6601TIP3    H241219   5.207   3.770  11.652  1.6737 -1.6661  0.7436
 6602TIP3   OH241220   0.370   0.337  15.087  0.2331  0.8422  0.4982
 6602TIP3    H141221   0.419   0.303  15.162 -1.4880 -0.9037  0.8978
 6602TIP3    H241222   0.398   0.283  15.013 -0.6317  0.2170  0.6142
 6603TIP3   OH241223   3.864   6.716   4.446  0.0640  0.4135 -0.3727
 6603TIP3    H141224   3.862   6.786   4.381 -1.2468  1.3282  0.5866
 6603TIP3    H241225   3.831   6.639   4.400  1.0598  0.5356 -1.3155
 6604TIP3   OH241226   2.054   2.106   4.593 -0.2458  0.4452  0.3830
 6604TIP3    H141227   1.960   2.095   4.608 -0.2521  0.6806  0.5224
 6604TIP3    H241228   2.091   2.019   4.607 -0.6027  0.0683 -0.9497
 6605TIP3   OH241229   4.579   2.592   0.259 -0.2302  0.2962 -0.5778
 6605TIP3    H141230   4.621   2.640   0.330 -0.1582 -0.7004  0.0656
 6605TIP3    H241231   4.591   2.648   0.182 -0.1361  1.2957  0.1453
 6606TIP3   OH241232   0.435   6.655   2.731 -0.1794  0.3560  0.3429
 6606TIP3    H141233   0.514   6.692   2.770 -0.1775  0.2438  0.4444
 6606TIP3    H241234   0.430   6.566   2.765  0.0562  0.1163 -0.2462
 6607TIP3   OH241235   3.624   3.468   6.049 -1.1064  0.1827  0.0502
 6607TIP3    H141236   3.694   3.468   6.114 -0.9769  0.7872 -0.0864
 6607TIP3    H241237   3.654   3.408   5.981 -1.9649 -1.7828  1.2993
 6608TIP3   OH241238   2.319   0.318  14.602 -0.3023 -0.0755 -0.2369
 6608TIP3    H141239   2.320   0.285  14.692 -2.6858 -2.0683 -0.8459
 6608TIP3    H241240   2.387   0.268  14.557  2.2160  2.2201  0.7345
 6609TIP3   OH241241   0.037   6.217  15.634  0.2249  0.3334  0.2603
 6609TIP3    H141242   0.115   6.255  15.594  0.0772 -0.8506 -1.2634
 6609TIP3    H241243   0.048   6.232  15.727  2.6635 -0.4816  0.1810
 6610TIP3   OH241244   1.496   5.576   3.124  0.5989  0.0386  0.0706
 6610TIP3    H141245   1.467   5.624   3.202 -0.7400  0.4628 -0.6496
 6610TIP3    H241246   1.592   5.573   3.132  0.8000  3.0391  0.0818
 6611TIP3   OH241247   1.929   0.970   4.056  0.3304  0.0908  0.2362
 6611TIP3    H141248   1.966   0.943   4.140  0.4403 -0.6268 -0.0427
 6611TIP3    H241249   1.992   0.939   3.991  0.8809  1.6963 -0.0671
 6612TIP3   OH241250   3.715   1.703  14.437 -0.4365 -0.6627 -0.1388
 6612TIP3    H141251   3.771   1.781  14.433 -1.9483  0.5602  1.0624
 6612TIP3    H241252   3.755   1.649  14.506  0.3571 -0.7390 -0.6496
 6613TIP3   OH241253   0.663   4.879  14.609 -0.5344  0.4550  0.5746
 6613TIP3    H141254   0.612   4.856  14.686 -0.9222 -1.5716 -0.1942
 6613TIP3    H241255   0.600   4.922  14.551 -0.8905 -0.2331  0.4336
 6614TIP3   OH241256   6.084   2.169  10.922  0.8059  0.1522 -0.1290
 6614TIP3    H141257   6.065   2.132  11.008 -0.8709  1.9211  0.3370
 6614TIP3    H241258   6.122   2.097  10.872  1.8304 -0.9281  2.0660
 6615TIP3   OH241259   6.117   1.290  12.307  0.5303 -0.1238 -0.1737
 6615TIP3    H141260   6.209   1.285  12.334  1.0837 -0.1404 -1.8817
 6615TIP3    H241261   6.067   1.285  12.388  1.9120 -3.1224  0.6279
 6616TIP3   OH241262   4.313   0.171   5.319 -0.7074  0.1005 -0.3393
 6616TIP3    H141263   4.390   0.134   5.362 -2.4483 -2.2268  1.0394
 6616TIP3    H241264   4.348   0.220   5.245  2.0812 -0.7275  0.3089
 6617TIP3   OH241265   2.997   3.297  11.134 -0.2286  0.6138  0.1978
 6617TIP3    H141266   2.963   3.383  11.157 -0.2827  0.4085  0.9160
 6617TIP3    H241267   2.942   3.235  11.182  1.2573  0.2817  1.5574
 6618TIP3   OH241268   1.278   0.078   1.605 -0.2012 -0.2048  0.2736
 6618TIP3    H141269   1.273  -0.002   1.657  2.0422 -0.2777  0.4715
 6618TIP3    H241270   1.329   0.138   1.658 -0.4181  0.7800 -0.6048
 6619TIP3   OH241271   5.798   2.391  14.908  0.1046 -0.1508  0.1839
 6619TIP3    H141272   5.764   2.406  14.820  1.1403  2.0898  0.1119
 6619TIP3    H241273   5.889   2.419  14.905  0.2989 -0.4601  1.8615
 6620TIP3   OH241274   5.332   4.310   6.108  0.2456  0.7064 -0.0152
 6620TIP3    H141275   5.276   4.269   6.174 -1.9940  1.8038 -1.1479
 6620TIP3    H241276   5.286   4.390   6.084  2.8593  2.2439 -0.2547
 6621TIP3   OH241277   0.979   1.427  16.696 -0.4080 -0.0208 -0.1865
 6621TIP3    H141278   1.004   1.470  16.614  0.6247 -1.4585 -0.6719
 6621TIP3    H241279   0.886   1.406  16.685 -0.1224 -0.7928 -1.2908
 6622TIP3   OH241280   0.137   0.323   2.653  0.6372  0.4066 -0.3358
 6622TIP3    H141281   0.106   0.247   2.703  1.2789  0.7081  0.5325
 6622TIP3    H241282   0.230   0.329   2.672  0.6650  1.2161 -0.6752
 6623TIP3   OH241283   3.308   3.371  11.422  0.1970 -0.1310  0.5681
 6623TIP3    H141284   3.393   3.358  11.381  0.0758 -0.5675  0.4460
 6623TIP3    H241285   3.328   3.409  11.507  0.5835 -1.0680  0.9195
 6624TIP3   OH241286   1.129   3.166   2.076 -0.4744  0.1777 -0.9612
 6624TIP3    H141287   1.076   3.188   2.152 -0.1995 -2.3075  0.0590
 6624TIP3    H241288   1.130   3.070   2.074  2.9030  0.0807 -1.6431
 6625TIP3   OH241289   3.026   1.225  13.854  0.9519  0.6431  0.3075
 6625TIP3    H141290   2.999   1.272  13.933  0.7993  0.3759  0.4164
 6625TIP3    H241291   3.049   1.294  13.792 -1.5865  1.0011 -0.3840
 6626TIP3   OH241292   3.533   5.174  16.442  0.8178 -0.3857 -0.0094
 6626TIP3    H141293   3.588   5.182  16.365  1.5563 -0.4608  0.4971
 6626TIP3    H241294   3.477   5.099  16.424 -3.7606  3.2192 -3.3155
 6627TIP3   OH241295   4.061   3.718   0.017  0.3306  0.0827 -0.4350
 6627TIP3    H141296   4.104   3.638   0.047  0.2224 -0.1592 -0.9045
 6627TIP3    H241297   3.988   3.730   0.077  0.9817  0.4342  0.2952
 6628TIP3   OH241298   0.005   1.111   4.426 -0.2923 -0.1733  0.4225
 6628TIP3    H141299  -0.005   1.062   4.508 -0.3409 -1.0123 -0.0754
 6628TIP3    H241300   0.047   1.049   4.366  0.4787  0.6858  0.0449
 6629TIP3   OH241301   3.795   1.162  13.018 -0.1299  0.0942  0.2782
 6629TIP3    H141302   3.830   1.243  12.982  0.0759 -0.3682 -0.5849
 6629TIP3    H241303   3.716   1.189  13.066 -0.3260  0.7477 -0.3994
 6630TIP3   OH241304   2.478   6.185  14.626  0.0110 -0.4579 -0.3134
 6630TIP3    H141305   2.479   6.271  14.669  0.9061  0.1021 -1.4033
 6630TIP3    H241306   2.412   6.193  14.558 -0.4783 -0.9174  0.0956
 6631TIP3   OH241307   1.278   2.362   1.267  0.0784  0.1172  0.4189
 6631TIP3    H141308   1.319   2.417   1.333  2.0946  1.0020 -1.4254
 6631TIP3    H241309   1.328   2.280   1.269 -1.9118 -1.1544  2.0813
 6632TIP3   OH241310   5.178   3.421   3.586  0.1658  0.4269 -0.3051
 6632TIP3    H141311   5.224   3.480   3.646  2.6658 -1.0519 -0.6481
 6632TIP3    H241312   5.207   3.333   3.611 -3.1130 -0.7283 -0.0853
 6633TIP3   OH241313   6.205   6.514  11.693  0.3059  0.3728  0.1132
 6633TIP3    H141314   6.280   6.474  11.737  0.3100  0.4596  0.1852
 6633TIP3    H241315   6.242   6.559  11.617  0.1709 -0.7533 -0.6489
 6634TIP3   OH241316   0.550   1.278   2.023 -0.0962 -0.2274  0.3956
 6634TIP3    H141317   0.644   1.293   2.018  0.0227 -1.2362 -2.6069
 6634TIP3    H241318   0.511   1.342   1.964 -0.9860 -1.5757 -0.5604
 6635TIP3   OH241319   0.345   4.167   4.583  0.2907 -0.2822 -0.1556
 6635TIP3    H141320   0.391   4.231   4.639  2.0626  0.7229 -2.5950
 6635TIP3    H241321   0.372   4.082   4.617  4.0119  0.2436 -1.2987
 6636TIP3   OH241322   2.282   4.564   0.408  0.9210  0.2657 -0.0308
 6636TIP3    H141323   2.264   4.563   0.502 -0.2016 -2.7082 -0.1698
 6636TIP3    H241324   2.219   4.627   0.372 -0.9944 -1.0195  0.8985
 6637TIP3   OH241325   4.814   0.171   1.335  0.0549  0.2687 -0.0144
 6637TIP3    H141326   4.723   0.150   1.310 -0.8214  1.6413  1.8177
 6637TIP3    H241327   4.846   0.091   1.378 -0.8455  0.2840  0.7170
 6638TIP3   OH241328   5.103   6.136   5.326  0.0582  0.3048  0.0402
 6638TIP3    H141329   5.171   6.129   5.259 -1.7956  1.8742 -2.1679
 6638TIP3    H241330   5.119   6.222   5.367  0.7784 -0.3617  1.2314
 6639TIP3   OH241331   2.742   1.517  12.416 -0.1191 -0.3977  0.2945
 6639TIP3    H141332   2.717   1.432  12.379  0.0645 -0.1491 -0.4171
 6639TIP3    H241333   2.753   1.573  12.340 -1.0814  0.5079  0.8020
 6640TIP3   OH241334   6.096   4.185  15.368 -0.3877  0.0647 -0.6572
 6640TIP3    H141335   6.125   4.095  15.354  1.3700  0.5152 -0.2142
 6640TIP3    H241336   6.001   4.181  15.365 -0.3729 -1.9640  0.3870
 6641TIP3   OH241337   5.335   3.609   2.662  0.0534 -0.1317  0.0275
 6641TIP3    H141338   5.291   3.524   2.661  0.6417 -0.4466  0.5515
 6641TIP3    H241339   5.271   3.669   2.624  0.3366 -1.1357 -2.1742
 6642TIP3   OH241340   4.680   6.471   3.729  0.4662 -0.0611 -0.1370
 6642TIP3    H141341   4.733   6.392   3.719  0.2781 -0.1988 -0.0639
 6642TIP3    H241342   4.733   6.529   3.783  0.5589 -0.1846 -0.0952
 6643TIP3   OH241343   4.706   6.263  12.368  0.4428  0.4564 -0.1931
 6643TIP3    H141344   4.773   6.205  12.405 -0.9211 -1.5561 -0.7107
 6643TIP3    H241345   4.672   6.313  12.442  1.3417  0.2830  0.3447
 6644TIP3   OH241346   0.668   1.327  14.253 -0.2527  0.5252 -0.1106
 6644TIP3    H141347   0.587   1.321  14.203 -0.9747  1.2608  0.9221
 6644TIP3    H241348   0.724   1.259  14.217 -2.6279 -2.6091  1.5732
 6645TIP3   OH241349   1.966   2.597   2.604  0.3649  0.3449  0.1486
 6645TIP3    H141350   1.966   2.502   2.590  0.7537  0.4133 -0.3543
 6645TIP3    H241351   1.887   2.628   2.559  0.8742  0.3988 -0.7144
 6646TIP3   OH241352   0.040   2.743  16.558  0.4069 -0.6891  0.2628
 6646TIP3    H141353   0.059   2.801  16.632  1.3813  0.9015 -1.1739
 6646TIP3    H241354   0.034   2.655  16.597 -0.7390  0.2924  2.4432
 6647TIP3   OH241355   1.619   5.280   1.434  0.1138  0.0864  0.2755
 6647TIP3    H141356   1.616   5.195   1.479 -0.0301  0.7308  1.5188
 6647TIP3    H241357   1.657   5.340   1.498  0.9468  0.8142 -0.8636
 6648TIP3   OH241358   0.098   6.519  16.722  0.3837 -0.3739 -0.2012
 6648TIP3    H141359   0.052   6.552  16.799 -1.4418 -0.8584 -1.0286
 6648TIP3    H241360   0.036   6.459  16.682  1.8546 -1.2213 -1.2789
 6649TIP3   OH241361   0.022   2.425   0.987  0.3965  0.5220  0.2464
 6649TIP3    H141362  -0.045   2.369   1.027 -0.0145  1.4554  0.8778
 6649TIP3    H241363   0.060   2.370   0.918 -0.1094 -0.4807  0.7410
 6650TIP3   OH241364   1.271   1.399  16.917  0.3803  0.1592  0.2655
 6650TIP3    H141365   1.287   1.304  16.912  0.7569  0.2533 -0.3763
 6650TIP3    H241366   1.274   1.428  16.826 -1.3470  0.5325  0.2925
 6651TIP3   OH241367   6.491   5.776   1.249  0.7937 -0.0967 -0.8143
 6651TIP3    H141368   6.516   5.865   1.273  0.1447  0.2159 -1.2748
 6651TIP3    H241369   6.563   5.722   1.281  0.6181  0.4405  0.5604
 6652TIP3   OH241370   6.551   3.337  14.243  0.0091  0.5474 -0.1424
 6652TIP3    H141371   6.574   3.278  14.172  0.6103  1.0884 -0.4016
 6652TIP3    H241372   6.513   3.414  14.200 -2.6169 -0.4106  0.2728
 6653TIP3   OH241373   2.953   5.462   0.871 -0.4989  0.3193 -0.3143
 6653TIP3    H141374   2.946   5.377   0.829  1.2570 -0.7847  1.4831
 6653TIP3    H241375   2.894   5.457   0.946 -0.2074  0.5780 -0.0636
 6654TIP3   OH241376   0.482   0.981   0.382 -0.0625  0.1538 -0.1180
 6654TIP3    H141377   0.509   0.893   0.354  0.2014  0.4106 -0.6860
 6654TIP3    H241378   0.563   1.021   0.413  0.3234  1.0226 -2.0764
 6655TIP3   OH241379   6.645   4.495  12.734  0.1640 -0.1532 -0.1386
 6655TIP3    H141380   6.699   4.553  12.680 -0.2643 -1.1300 -1.6843
 6655TIP3    H241381   6.668   4.518  12.824  0.0061  2.3978 -0.6762
 6656TIP3   OH241382   1.777   4.935  13.317  0.0819  0.0440 -0.5184
 6656TIP3    H141383   1.860   4.970  13.285 -0.0382 -0.3587 -1.2845
 6656TIP3    H241384   1.743   4.884  13.244 -0.1916 -0.9056  0.2600
 6657TIP3   OH241385   2.611   1.224  16.709 -0.0100  0.2211  0.1451
 6657TIP3    H141386   2.593   1.276  16.631 -0.1926 -1.0324 -0.6787
 6657TIP3    H241387   2.571   1.273  16.781 -0.2982  1.1329 -0.6201
 6658TIP3   OH241388   3.934   4.289   0.052 -0.1178  0.1683  0.1526
 6658TIP3    H141389   4.015   4.322   0.013  0.3837 -1.2819 -0.0963
 6658TIP3    H241390   3.930   4.331   0.139  0.0860  1.4246 -0.4251
 6659TIP3   OH241391   3.335   4.862   1.741 -0.0103 -0.4556  0.0834
 6659TIP3    H141392   3.374   4.915   1.672 -0.3114  0.5359  0.6513
 6659TIP3    H241393   3.401   4.860   1.810 -0.8576  1.1017  0.9876
 6660TIP3   OH241394   4.193   4.716  13.574  0.3272  0.4145  0.4716
 6660TIP3    H141395   4.287   4.728  13.592  0.3750  0.6582  0.0816
 6660TIP3    H241396   4.181   4.621  13.572  0.9511  0.3232 -1.3143
 6661TIP3   OH241397   3.250   2.361  10.983 -0.0131 -0.8177 -0.4899
 6661TIP3    H141398   3.334   2.387  11.022 -0.2901  0.2248 -0.5555
 6661TIP3    H241399   3.246   2.266  10.996  1.8324 -1.1298 -1.7837
 6662TIP3   OH241400   4.242   3.748   0.702 -0.2880 -0.4972  0.1766
 6662TIP3    H141401   4.148   3.769   0.696 -0.5337 -1.0869  1.5974
 6662TIP3    H241402   4.244   3.653   0.711  0.5488 -0.6419 -1.2814
 6663TIP3   OH241403   4.361   0.860  14.787 -0.1857  0.2810 -0.2250
 6663TIP3    H141404   4.351   0.913  14.866 -1.5696 -0.0770 -0.1351
 6663TIP3    H241405   4.358   0.923  14.715 -0.8455  0.4305 -0.0733
 6664TIP3   OH241406   5.965   1.298  10.985  0.3715  0.3147  0.2361
 6664TIP3    H141407   5.883   1.248  10.980  1.7524 -2.0931 -0.0456
 6664TIP3    H241408   6.011   1.274  10.905  1.6557  1.0625  0.7328
 6665TIP3   OH241409   4.153   6.699   4.480  0.0436  0.0281 -0.4948
 6665TIP3    H141410   4.143   6.634   4.549 -0.9165  1.6491  0.9717
 6665TIP3    H241411   4.065   6.734   4.466  0.1029 -0.6054 -2.9575
 6666TIP3   OH241412   5.108   6.555  17.029 -0.1107  0.2080 -0.0403
 6666TIP3    H141413   5.068   6.587  16.948  0.8388  0.2078 -0.5237
 6666TIP3    H241414   5.186   6.506  17.000  2.2201  3.0253  0.9898
 6667TIP3   OH241415   1.663   2.478  10.932 -0.0621 -0.4945  0.0640
 6667TIP3    H141416   1.657   2.390  10.895 -0.1111 -0.8648  0.9198
 6667TIP3    H241417   1.720   2.526  10.872 -2.9480  0.0233 -2.4962
 6668TIP3   OH241418   5.773   4.139  15.318  0.2387  0.6015 -0.0609
 6668TIP3    H141419   5.812   4.225  15.301  0.0917  0.6756 -0.0292
 6668TIP3    H241420   5.784   4.126  15.413  0.6115  0.4104 -0.1270
 6669TIP3   OH241421   3.269   2.317  14.552  0.4587 -0.0504  0.0714
 6669TIP3    H141422   3.299   2.392  14.604 -1.1889  0.7912 -0.1544
 6669TIP3    H241423   3.326   2.245  14.580  0.3725  0.6477  2.2089
 6670TIP3   OH241424   5.807   0.072  15.873  0.7058  0.0692  0.2742
 6670TIP3    H141425   5.796   0.156  15.916  0.8665  0.2974 -0.1285
 6670TIP3    H241426   5.777   0.008  15.937  1.5004  0.3572  0.9482
 6671TIP3   OH241427   3.954   1.176  14.167 -0.2214  0.3725 -0.2033
 6671TIP3    H141428   3.913   1.202  14.085  0.9807  0.4616 -0.7855
 6671TIP3    H241429   3.903   1.222  14.234 -1.4157  0.0425 -0.8497
 6672TIP3   OH241430   2.085   4.303  16.853  0.6386 -0.1242  0.0789
 6672TIP3    H141431   2.095   4.214  16.821  2.2496 -0.4014  1.2365
 6672TIP3    H241432   2.149   4.354  16.803 -0.8428  0.5691 -1.1617
 6673TIP3   OH241433   2.675   4.550   0.547 -0.4302 -0.3786 -0.2686
 6673TIP3    H141434   2.641   4.606   0.477  0.4181  0.5246  0.0188
 6673TIP3    H241435   2.718   4.478   0.501  1.1082  0.7749 -0.7601
 6674TIP3   OH241436   5.112   1.340   2.443  0.1641  0.0268  0.3022
 6674TIP3    H141437   5.150   1.370   2.360 -0.8263  1.5974  0.3678
 6674TIP3    H241438   5.187   1.328   2.501  0.9727 -2.1515 -1.1049
 6675TIP3   OH241439   6.607   2.776   3.145 -0.4064  0.0063 -0.2920
 6675TIP3    H141440   6.562   2.833   3.083  0.7925  0.0028 -1.2022
 6675TIP3    H241441   6.586   2.812   3.231 -0.9684  0.8511 -0.7697
 6676TIP3   OH241442   1.226   2.013   3.110  0.9237  0.0212 -0.1640
 6676TIP3    H141443   1.197   1.943   3.168  2.2806 -0.3409  0.1229
 6676TIP3    H241444   1.267   2.078   3.167  1.6250  0.0058 -0.6287
 6677TIP3   OH241445   4.068   5.972  16.164  0.0568  0.5327 -0.3121
 6677TIP3    H141446   4.031   6.014  16.086 -0.3206  0.5844 -0.1068
 6677TIP3    H241447   4.161   5.960  16.143 -0.6143 -2.5644 -2.1517
 6678TIP3   OH241448   5.604   1.798   2.853  0.1578 -0.0412  0.3224
 6678TIP3    H141449   5.678   1.759   2.900 -0.0023  0.0443  0.6483
 6678TIP3    H241450   5.546   1.829   2.922 -0.4652 -0.6335  0.0727
 6679TIP3   OH241451   5.561   2.476  13.393  0.0434  0.4127 -0.0053
 6679TIP3    H141452   5.530   2.389  13.370 -0.8586  0.6300  0.3679
 6679TIP3    H241453   5.579   2.471  13.487  4.8831 -0.8403 -0.7355
 6680TIP3   OH241454   1.116   2.602   1.938 -0.0596  0.0442 -0.6149
 6680TIP3    H141455   1.174   2.539   1.895 -0.2267 -0.9728  0.5977
 6680TIP3    H241456   1.117   2.577   2.030 -2.2287  0.1248 -0.5101
 6681TIP3   OH241457   3.332   0.755  12.590  0.0911 -0.0328 -0.1386
 6681TIP3    H141458   3.357   0.662  12.594 -1.2394 -0.4266 -0.3648
 6681TIP3    H241459   3.238   0.754  12.609 -1.1389  0.7107 -4.9415
 6682TIP3   OH241460   3.449   4.082   4.747 -0.1100 -0.2261  0.1742
 6682TIP3    H141461   3.405   4.013   4.699  0.1915  0.0387 -0.4917
 6682TIP3    H241462   3.494   4.037   4.819 -1.0188 -0.5568  0.5532
 6683TIP3   OH241463   4.620   3.261   3.069  0.2889  0.2222 -0.3472
 6683TIP3    H141464   4.641   3.176   3.033 -2.9408 -0.9005  0.0672
 6683TIP3    H241465   4.556   3.298   3.008 -3.0001 -0.4327  2.3858
 6684TIP3   OH241466   2.666   5.702  13.935  0.1383 -0.0272  0.2705
 6684TIP3    H141467   2.719   5.625  13.957 -0.0041 -0.1772  0.0926
 6684TIP3    H241468   2.586   5.666  13.897  0.4775  0.2313 -0.7321
 6685TIP3   OH241469   2.066   1.460   4.511  0.4742  0.1283  0.1983
 6685TIP3    H141470   2.086   1.501   4.595 -0.6558  1.0381  0.0450
 6685TIP3    H241471   2.017   1.527   4.462 -0.9199 -1.1762 -0.2810
 6686TIP3   OH241472   1.555   6.070  13.045 -0.4013  0.3913 -0.7900
 6686TIP3    H141473   1.569   6.135  13.114 -0.7011  0.5795 -0.9073
 6686TIP3    H241474   1.569   5.986  13.089 -2.0347  0.4286 -0.1259
 6687TIP3   OH241475   3.564   1.996   0.493 -0.9128 -0.6229  0.2140
 6687TIP3    H141476   3.641   2.052   0.502 -0.6121 -1.0423  0.2379
 6687TIP3    H241477   3.592   1.910   0.523 -1.8521 -0.4076  1.8391
 6688TIP3   OH241478   6.355   0.489  15.112  0.0145  0.0029  0.6563
 6688TIP3    H141479   6.303   0.432  15.169  0.1373 -1.1202 -0.3165
 6688TIP3    H241480   6.331   0.577  15.139 -0.5925 -0.4937  1.8432
 6689TIP3   OH241481   5.142   2.526   5.194 -0.4472  0.0706 -0.5941
 6689TIP3    H141482   5.138   2.558   5.284 -1.5840 -1.3816 -0.0830
 6689TIP3    H241483   5.076   2.577   5.148 -1.0481 -0.3076 -0.1811
 6690TIP3   OH241484   0.382   6.491   5.058 -0.3264  0.2271 -0.0370
 6690TIP3    H141485   0.301   6.543   5.056 -0.9143 -0.6705 -0.1137
 6690TIP3    H241486   0.386   6.456   5.147 -0.1514  0.0609 -0.1092
 6691TIP3   OH241487   2.664   4.419   1.901 -0.1008 -0.4085 -0.2223
 6691TIP3    H141488   2.587   4.376   1.939 -1.2788  0.3353 -1.6877
 6691TIP3    H241489   2.679   4.495   1.958 -1.3931  0.2835 -0.7575
 6692TIP3   OH241490   5.008   5.491  14.313  0.0522  0.2327 -0.3585
 6692TIP3    H141491   4.972   5.555  14.251 -1.1323 -0.8750 -0.8718
 6692TIP3    H241492   5.019   5.411  14.261 -0.5376 -0.5912  0.7363
 6693TIP3   OH241493   3.938   0.990  10.994 -0.1510  0.3828 -0.0957
 6693TIP3    H141494   3.985   1.003  10.911 -1.3724 -0.1062 -0.8870
 6693TIP3    H241495   3.853   0.955  10.968  0.3875 -2.3755  1.4738
 6694TIP3   OH241496   4.688   3.040   4.701 -0.1697 -0.0165  0.5864
 6694TIP3    H141497   4.643   2.971   4.653 -1.1362  0.6092  0.5745
 6694TIP3    H241498   4.755   3.071   4.640  0.3176 -0.9685  0.6164
 6695TIP3   OH241499   1.694   5.993   1.422  0.2952 -0.3000  0.1927
 6695TIP3    H141500   1.712   6.031   1.336  0.9544 -0.5176  0.2291
 6695TIP3    H241501   1.654   5.908   1.403 -1.0088  0.3153  0.1107
 6696TIP3   OH241502   0.243   3.763  15.466  0.7047 -0.1859 -0.5553
 6696TIP3    H141503   0.213   3.679  15.501  0.6626 -0.3072 -0.8721
 6696TIP3    H241504   0.315   3.789  15.524  1.1010 -0.7285 -0.7911
 6697TIP3   OH241505   5.540   2.356  12.279  0.6405  0.4786  0.0497
 6697TIP3    H141506   5.556   2.268  12.244  0.4429  0.5683 -0.2730
 6697TIP3    H241507   5.614   2.408  12.248  0.3968  0.5898 -0.3556
 6698TIP3   OH241508   3.051   4.736  15.266 -0.1760 -0.1320 -0.2512
 6698TIP3    H141509   3.074   4.738  15.359 -1.4283 -5.0138  0.4471
 6698TIP3    H241510   3.136   4.737  15.221  0.4436  2.8998  0.7221
 6699TIP3   OH241511   3.657   5.522   2.596  0.0398 -0.1076 -0.5466
 6699TIP3    H141512   3.638   5.430   2.609 -1.5781  0.1635 -0.8027
 6699TIP3    H241513   3.720   5.523   2.523  1.3281 -1.0577  0.5076
 6700TIP3   OH241514   6.718   5.838   1.668  0.4879  0.2300  0.5012
 6700TIP3    H141515   6.646   5.868   1.723  0.2827  0.5798  0.0467
 6700TIP3    H241516   6.709   5.743   1.667  0.3121  0.2403  0.8230
 6701TIP3   OH241517   6.270   3.685   0.643 -0.0063  0.6031 -0.0546
 6701TIP3    H141518   6.289   3.667   0.551  0.9997  0.7720  0.1047
 6701TIP3    H241519   6.354   3.712   0.680 -0.7288  2.2533  0.5099
 6702TIP3   OH241520   4.748   6.491  16.598 -0.4034  0.1761 -0.1708
 6702TIP3    H141521   4.764   6.461  16.508  0.9231  0.4264 -0.0394
 6702TIP3    H241522   4.661   6.456  16.620 -0.3361 -0.7048 -1.2054
 6703TIP3   OH241523   1.339   3.362  16.216 -0.0403  0.7372  0.6876
 6703TIP3    H141524   1.354   3.376  16.310 -0.1514 -0.1606  0.8430
 6703TIP3    H241525   1.255   3.404  16.199 -1.2899 -1.2854  1.5509
 6704TIP3   OH241526   6.552   0.821  16.926  0.4907  0.1229  0.1909
 6704TIP3    H141527   6.514   0.895  16.974  0.7697  0.3712  0.0338
 6704TIP3    H241528   6.562   0.753  16.992  2.1204  0.9157  0.8053
 6705TIP3   OH241529   1.230   0.561  16.424  0.0444 -0.3076  0.0608
 6705TIP3    H141530   1.147   0.599  16.397 -0.9636 -1.6672  1.1355
 6705TIP3    H241531   1.259   0.510  16.348 -0.3480 -0.2260 -0.1466
 6706TIP3   OH241532   6.095   5.234   5.101 -0.0903  0.5496 -0.1216
 6706TIP3    H141533   6.120   5.230   5.194 -0.3627  0.7430 -0.0388
 6706TIP3    H241534   6.006   5.201   5.099  0.8794 -2.3426 -0.7304
 6707TIP3   OH241535   0.399   6.397  16.407 -0.0854  0.0353 -0.0987
 6707TIP3    H141536   0.395   6.423  16.315 -1.8645 -0.2961 -0.1521
 6707TIP3    H241537   0.489   6.365  16.420  0.2608  0.3252 -1.6362
 6708TIP3   OH241538   0.129   4.486   3.790  0.1943  0.1787  0.5360
 6708TIP3    H141539   0.046   4.439   3.801  0.7713 -1.0958 -0.2964
 6708TIP3    H241540   0.128   4.514   3.698  0.1363  1.2613  0.8628
 6709TIP3   OH241541   6.502   5.425  14.182 -0.0175  0.5848  0.2434
 6709TIP3    H141542   6.456   5.343  14.199 -0.3294  0.7490  0.1989
 6709TIP3    H241543   6.515   5.463  14.269 -0.9699  1.0768  0.1811
 6710TIP3   OH241544   2.556   3.709   3.163 -0.1794  0.1059  0.3692
 6710TIP3    H141545   2.479   3.669   3.204  1.2091 -1.0460  2.0283
 6710TIP3    H241546   2.597   3.760   3.232 -0.4056  2.2523 -0.9951
 6711TIP3   OH241547   0.115   5.001   2.130  0.0099 -0.4533 -0.1194
 6711TIP3    H141548   0.194   5.033   2.087  0.5472 -0.1239  1.0807
 6711TIP3    H241549   0.074   5.080   2.167 -0.4703 -0.7245 -0.0639
 6712TIP3   OH241550   6.283   1.599   4.110  0.4012 -0.0833 -0.4484
 6712TIP3    H141551   6.286   1.688   4.074 -0.4375  0.0072 -0.3098
 6712TIP3    H241552   6.205   1.560   4.071  0.9506 -0.8796 -0.7715
 6713TIP3   OH241553   0.622   5.537  14.600  0.4134  0.3137  0.0607
 6713TIP3    H141554   0.701   5.550  14.653  1.4070 -0.2773 -1.2318
 6713TIP3    H241555   0.643   5.577  14.516 -1.4697  2.0377  0.3134
 6714TIP3   OH241556   6.595   4.687  13.716  0.1905  0.0611 -0.4777
 6714TIP3    H141557   6.591   4.635  13.796 -0.0239  0.6019 -0.1295
 6714TIP3    H241558   6.620   4.625  13.647 -1.4132 -0.7821 -0.3323
 6715TIP3   OH241559   6.369   4.439  16.878  0.0921  0.1965  0.4606
 6715TIP3    H141560   6.333   4.351  16.889 -0.3490  0.0204 -2.0170
 6715TIP3    H241561   6.302   4.486  16.829  0.1776  2.0693  2.0154
 6716TIP3   OH241562   6.063   1.270  17.030 -0.3699 -0.6506  0.6322
 6716TIP3    H141563   6.027   1.358  17.043 -1.7013 -0.9737 -0.6212
 6716TIP3    H241564   6.108   1.276  16.945  2.4496 -0.3206  2.0343
 6717TIP3   OH241565   3.331   6.651   0.669 -0.0661  0.1068  0.2732
 6717TIP3    H141566   3.256   6.609   0.628 -1.1736  2.3743 -0.1610
 6717TIP3    H241567   3.385   6.578   0.700 -1.5706 -1.6051 -0.9237
 6718TIP3   OH241568   2.697   3.932  11.082 -0.2239 -0.4620 -0.0772
 6718TIP3    H141569   2.644   4.011  11.076  0.0239 -0.2217  0.7782
 6718TIP3    H241570   2.637   3.861  11.058  0.0293  0.1029 -2.7536
 6719TIP3   OH241571   1.743   1.962  10.883 -0.1291 -0.2013  0.5590
 6719TIP3    H141572   1.668   1.902  10.878 -0.2237 -0.0302 -0.1821
 6719TIP3    H241573   1.808   1.924  10.824  1.3321 -1.6308  2.9243
 6720TIP3   OH241574   6.631   4.246   0.864  0.2875  0.0630  0.1856
 6720TIP3    H141575   6.701   4.277   0.921  0.4591  0.9761 -0.5066
 6720TIP3    H241576   6.608   4.321   0.810 -1.0799 -0.2832  0.2371
 6721TIP3   OH241577   2.567   2.809  13.499 -0.1984  0.0024 -0.1202
 6721TIP3    H141578   2.495   2.745  13.502  1.6532 -2.1427  1.5036
 6721TIP3    H241579   2.627   2.773  13.434  0.3486  0.6958  0.0044
 6722TIP3   OH241580   4.709   6.800  13.289  0.3009 -0.0177 -0.0523
 6722TIP3    H141581   4.680   6.826  13.202 -0.8450  1.6862  0.7697
 6722TIP3    H241582   4.654   6.851  13.349  1.5150 -0.6079  1.6659
 6723TIP3   OH241583   3.546   2.540  15.749 -0.1107 -0.1042  0.6732
 6723TIP3    H141584   3.619   2.587  15.791 -0.8028  2.2731 -0.5734
 6723TIP3    H241585   3.471   2.598  15.763 -0.7263 -0.0749 -2.2325
 6724TIP3   OH241586   1.628   2.142   3.691 -0.8398  0.2485  0.1500
 6724TIP3    H141587   1.695   2.210   3.690  1.8811 -2.1384  1.7405
 6724TIP3    H241588   1.641   2.094   3.610  0.0468 -0.7140  0.8270
 6725TIP3   OH241589   6.402   0.412  13.696 -0.0572 -0.1195  0.1325
 6725TIP3    H141590   6.396   0.392  13.790  3.5304  0.4515  0.6250
 6725TIP3    H241591   6.311   0.409  13.665 -1.2051 -2.1548  3.2100
 6726TIP3   OH241592   0.847   4.296   4.884  0.0973  0.1430  0.2012
 6726TIP3    H141593   0.842   4.392   4.883  0.5969  0.2157  1.6876
 6726TIP3    H241594   0.781   4.270   4.948  1.8074 -0.3063  1.8800
 6727TIP3   OH241595   1.197   5.634  16.647 -0.2004  0.1451  0.1154
 6727TIP3    H141596   1.127   5.698  16.634 -1.3189 -1.1636 -0.4530
 6727TIP3    H241597   1.167   5.580  16.721  0.7825  0.3128  0.6654
 6728TIP3   OH241598   6.332   4.395  15.959  0.8715 -0.1262 -0.1691
 6728TIP3    H141599   6.317   4.475  15.909  0.4378 -0.6516 -0.9008
 6728TIP3    H241600   6.351   4.426  16.048 -2.0736  0.7404  0.2848
 6729TIP3   OH241601   5.675   4.372  16.584 -0.6121  0.4107 -0.1173
 6729TIP3    H141602   5.711   4.439  16.642  2.3927 -1.9743  1.0035
 6729TIP3    H241603   5.730   4.374  16.507 -0.8998 -0.3396 -0.3538
 6730TIP3   OH241604   6.670   1.749   0.843  1.3814 -0.1861  0.4910
 6730TIP3    H141605   6.614   1.672   0.860 -0.6945  0.8448 -1.2356
 6730TIP3    H241606   6.688   1.745   0.750  0.7285  1.7030  0.2454
 6731TIP3   OH241607   5.511   5.190   5.655 -0.2552 -0.0219  0.1213
 6731TIP3    H141608   5.516   5.095   5.662  0.5993  0.0836  1.1264
 6731TIP3    H241609   5.518   5.207   5.561  0.9241 -0.8991  0.0251
 6732TIP3   OH241610   6.776   6.438  10.868  0.3071  0.2790  0.2683
 6732TIP3    H141611   6.704   6.493  10.837  0.4426  0.5517  0.4368
 6732TIP3    H241612   6.798   6.383  10.792 -0.6171 -0.3931  0.4545
 6733TIP3   OH241613   2.958   4.651   2.495  0.0751  0.1217  0.1570
 6733TIP3    H141614   2.937   4.590   2.567  1.3670  0.4385  0.8264
 6733TIP3    H241615   3.051   4.637   2.478  0.3989  1.8762  0.3151
 6734TIP3   OH241616   4.350   3.991  13.812  0.3905  0.5113 -0.0591
 6734TIP3    H141617   4.433   4.039  13.818  1.6797 -1.7204  1.5081
 6734TIP3    H241618   4.345   3.942  13.894 -2.1829  0.0495 -0.4143
 6735TIP3   OH241619   2.759   6.453  15.912 -0.2071  0.2195  0.3731
 6735TIP3    H141620   2.820   6.382  15.930  1.1535  1.3401  0.3322
 6735TIP3    H241621   2.687   6.411  15.865 -0.0531 -1.3382  1.4294
 6736TIP3   OH241622   5.201   6.076  13.119  0.1580  0.2264  0.0221
 6736TIP3    H141623   5.263   6.013  13.081 -0.2122 -0.0553 -0.1231
 6736TIP3    H241624   5.126   6.023  13.145  0.2532  0.4761  0.8149
 6737TIP3   OH241625   6.711   6.429  12.747  0.0230 -0.4920 -0.2956
 6737TIP3    H141626   6.618   6.416  12.767 -0.0515 -1.4881 -1.1680
 6737TIP3    H241627   6.711   6.452  12.654  0.5866  0.5310 -0.0519
 6738TIP3   OH241628   2.744   5.081   1.603  0.1388  0.0898 -0.8480
 6738TIP3    H141629   2.760   5.080   1.508  3.0635  0.9328 -0.4550
 6738TIP3    H241630   2.792   5.005   1.636  1.1269  1.1028  0.1571
 6739TIP3   OH241631   1.260   6.610  14.453 -0.0667 -0.3444 -0.5390
 6739TIP3    H141632   1.206   6.565  14.518  1.2337 -2.0389 -0.5556
 6739TIP3    H241633   1.348   6.573  14.465  0.0779 -1.4125 -3.8314
 6740TIP3   OH241634   1.296   2.606  14.947  0.1242  0.1788  0.0514
 6740TIP3    H141635   1.243   2.656  14.886 -0.1686 -0.4872 -0.2549
 6740TIP3    H241636   1.384   2.608  14.909 -0.0511 -0.2128 -0.3878
 6741TIP3   OH241637   4.635   6.269   2.434 -0.1176 -0.1958  0.5039
 6741TIP3    H141638   4.560   6.211   2.422 -0.4829  0.2008  0.8672
 6741TIP3    H241639   4.687   6.226   2.503 -0.1588 -0.3144  0.4618
 6742TIP3   OH241640   5.942   3.096   2.998 -1.0190 -0.0314 -0.3274
 6742TIP3    H141641   5.986   3.174   3.030 -1.0186  1.2099 -3.0828
 6742TIP3    H241642   5.849   3.119   2.996 -0.8955  0.4900 -2.4378
 6743TIP3   OH241643   3.227   3.875  13.249 -0.0566 -0.0082 -0.3196
 6743TIP3    H141644   3.257   3.809  13.187  0.9917 -1.2494  1.4300
 6743TIP3    H241645   3.157   3.831  13.299 -0.5682  0.8124 -0.2931
 6744TIP3   OH241646   5.647   3.998   0.918 -0.3163 -0.2622  0.1092
 6744TIP3    H141647   5.735   3.960   0.910  0.1192  0.8222 -0.4202
 6744TIP3    H241648   5.606   3.948   0.989  0.1090 -1.9333 -0.7536
 6745TIP3   OH241649   4.053   5.545   3.102  0.1801 -0.8588  0.4210
 6745TIP3    H141650   4.039   5.550   3.008 -0.6535  1.2201  0.5947
 6745TIP3    H241651   3.979   5.494   3.135 -0.8101  0.3882  0.1655
 6746TIP3   OH241652   3.442   4.017   1.990 -0.2666 -0.1405 -0.2762
 6746TIP3    H141653   3.494   4.053   1.919  0.3161  0.4879  0.4589
 6746TIP3    H241654   3.501   4.018   2.066 -0.9804 -0.4977  0.2915
 6747TIP3   OH241655   6.122   3.850  11.748 -0.0608 -0.4216  0.2380
 6747TIP3    H141656   6.123   3.800  11.666  0.6385 -0.8930  0.5254
 6747TIP3    H241657   6.033   3.885  11.754  0.1845  0.5513 -1.2877
 6748TIP3   OH241658   4.077   3.235   4.336 -0.3579 -0.1709  0.2888
 6748TIP3    H141659   4.081   3.223   4.241  0.2763  0.5698  0.2187
 6748TIP3    H241660   4.007   3.175   4.364  0.8852 -1.9965 -0.3633
 6749TIP3   OH241661   5.830   5.845  13.292  0.2105 -0.0173 -0.4968
 6749TIP3    H141662   5.831   5.936  13.261 -0.0666 -0.4253 -1.7507
 6749TIP3    H241663   5.916   5.810  13.266 -0.2687 -0.5495 -1.4495
 6750TIP3   OH241664   5.056   2.200  14.850 -0.6510  0.1472 -0.0769
 6750TIP3    H141665   4.986   2.245  14.898 -0.5056 -0.0039  0.2793
 6750TIP3    H241666   5.093   2.267  14.793 -0.5377  0.4415  0.3406
 6751TIP3   OH241667   5.642   2.539   1.043  0.4885  0.7653  0.2737
 6751TIP3    H141668   5.674   2.499   1.124  1.2451 -0.8761 -0.7800
 6751TIP3    H241669   5.701   2.507   0.975  0.3732  2.7643 -0.8357
 6752TIP3   OH241670   2.175   0.965  14.619  0.2465  0.5443  0.2538
 6752TIP3    H141671   2.081   0.964  14.599  0.8613 -0.2661 -3.1127
 6752TIP3    H241672   2.180   0.931  14.708 -2.4581 -2.6972 -0.6175
 6753TIP3   OH241673   1.105   4.068   4.906 -0.0481 -0.6856  0.1425
 6753TIP3    H141674   1.071   4.129   4.841  0.0821 -0.9318 -0.1600
 6753TIP3    H241675   1.027   4.033   4.949 -0.1117 -0.0825  0.5311
 6754TIP3   OH241676   2.816   3.824   5.768  0.1419  0.1187  0.0273
 6754TIP3    H141677   2.773   3.765   5.707 -0.8990 -0.5508  1.3704
 6754TIP3    H241678   2.858   3.766   5.832 -2.0828  0.7553  2.1826
 6755TIP3   OH241679   4.415   5.053   4.263  0.3593 -0.4716 -0.0383
 6755TIP3    H141680   4.405   5.146   4.284 -0.8933 -1.3782  4.4819
 6755TIP3    H241681   4.340   5.032   4.207  0.3323  1.0571 -0.6235
 6756TIP3   OH241682   5.541   4.715  15.476 -0.4228 -0.7752  0.4801
 6756TIP3    H141683   5.523   4.785  15.538  1.2409 -0.7416  0.9665
 6756TIP3    H241684   5.489   4.641  15.509 -0.8270 -0.2866  0.9655
 6757TIP3   OH241685   4.886   4.209   3.946  0.1360  0.5529  0.0705
 6757TIP3    H141686   4.885   4.273   3.875 -0.9444  1.0607  0.5216
 6757TIP3    H241687   4.840   4.133   3.911 -1.0685  1.0780  0.4353
 6758TIP3   OH241688   5.942   1.396   4.378 -0.9135  0.0951  0.4429
 6758TIP3    H141689   6.033   1.371   4.366  0.2882  3.5859  0.9271
 6758TIP3    H241690   5.908   1.409   4.290 -0.2648  0.7244  0.2753
 6759TIP3   OH241691   3.426   4.701  12.756 -0.4254  0.2776  0.4098
 6759TIP3    H141692   3.501   4.658  12.795  0.0176  0.8981  0.2684
 6759TIP3    H241693   3.363   4.711  12.827 -0.7166 -0.9661  0.3485
 6760TIP3   OH241694   6.540   3.674  15.164  0.3074  0.2511  0.3279
 6760TIP3    H141695   6.478   3.697  15.233  0.4976  0.4057  0.4493
 6760TIP3    H241696   6.497   3.603  15.116  1.1264 -1.4818  2.0008
 6761TIP3   OH241697   5.163   6.546   4.239 -0.4887 -0.7596 -0.2053
 6761TIP3    H141698   5.192   6.498   4.162  1.4386  0.0933 -0.0618
 6761TIP3    H241699   5.141   6.633   4.207 -1.8913 -1.0533 -0.1168
 6762TIP3   OH241700   4.109   1.306  12.623  0.1535 -0.6188 -0.2793
 6762TIP3    H141701   4.026   1.345  12.594  1.0359  1.6301  0.0779
 6762TIP3    H241702   4.152   1.280  12.542  0.1210  0.4129 -0.6448
 6763TIP3   OH241703   4.648   0.682   1.399 -0.4516 -0.8305 -0.6841
 6763TIP3    H141704   4.556   0.681   1.373 -1.1426 -1.4554  1.5430
 6763TIP3    H241705   4.646   0.708   1.491  1.5945 -1.0023 -0.5547
 6764TIP3   OH241706   2.990   5.871   1.451 -0.0162  0.4479 -0.1476
 6764TIP3    H141707   2.957   5.838   1.367 -1.5428 -1.2206  1.0420
 6764TIP3    H241708   2.935   5.829   1.517  1.6271  1.1140  1.7512
 6765TIP3   OH241709   0.527   4.607  15.658 -0.3299 -0.1799 -0.0532
 6765TIP3    H141710   0.538   4.650  15.742 -0.9357 -0.4205  0.1551
 6765TIP3    H241711   0.452   4.549  15.670 -2.5126  2.0918 -1.6610
 6766TIP3   OH241712   5.854   2.702   1.678 -0.0998  0.1675  0.1299
 6766TIP3    H141713   5.838   2.743   1.763  1.5093 -0.0449  0.5718
 6766TIP3    H241714   5.888   2.615   1.700 -1.0910 -0.4713 -0.7648
 6767TIP3   OH241715   6.287   4.132   0.268 -0.4293 -0.5862 -0.3993
 6767TIP3    H141716   6.330   4.152   0.185  1.3338 -1.0121  0.3605
 6767TIP3    H241717   6.194   4.138   0.249 -0.0650 -0.5221 -2.3602
 6768TIP3   OH241718   0.468   2.112   0.739  0.6237  0.0915  0.2402
 6768TIP3    H141719   0.433   2.201   0.737  0.0827 -0.1278 -0.5896
 6768TIP3    H241720   0.562   2.124   0.754  0.9449  0.9470 -2.0022
 6769TIP3   OH241721   5.965   4.329  15.998 -0.7619 -0.2876  0.8535
 6769TIP3    H141722   6.013   4.326  16.081 -0.0361  1.5440  0.5516
 6769TIP3    H241723   6.026   4.370  15.936 -2.5624  1.9947  0.4279
 6770TIP3   OH241724   0.842   4.223   2.769 -0.0884  0.2505  0.1164
 6770TIP3    H141725   0.895   4.165   2.823  0.2593  0.5086  0.0614
 6770TIP3    H241726   0.883   4.220   2.682  0.2165  0.9278  0.2285
 6771TIP3   OH241727   0.517   5.840   4.207 -0.2357  0.3111  0.1805
 6771TIP3    H141728   0.468   5.923   4.205  0.5165  0.7533 -0.6426
 6771TIP3    H241729   0.513   5.812   4.298 -1.7094  0.5218  0.2050
 6772TIP3   OH241730   6.194   4.654   2.877  0.6794 -0.9090 -0.3323
 6772TIP3    H141731   6.117   4.613   2.837  0.2251  0.7885 -1.3171
 6772TIP3    H241732   6.239   4.696   2.803  2.1266 -1.2043  0.3583
 6773TIP3   OH241733   6.418   1.550  13.531  0.2735 -0.1407  0.7987
 6773TIP3    H141734   6.474   1.494  13.477 -0.3126  0.3876 -0.4017
 6773TIP3    H241735   6.334   1.504  13.532 -0.1987  0.6491 -0.1573
 6774TIP3   OH241736   6.384   0.681  14.166 -0.0409 -0.4971 -0.0735
 6774TIP3    H141737   6.328   0.662  14.241 -0.5672  0.5607 -0.1820
 6774TIP3    H241738   6.451   0.740  14.200 -0.7191  0.5919 -0.5842
 6775TIP3   OH241739   2.476   6.139  11.874 -0.0968  0.1394 -0.1017
 6775TIP3    H141740   2.401   6.162  11.929  0.9098  0.0131  1.3900
 6775TIP3    H241741   2.493   6.047  11.894  0.0819  0.0035 -0.8823
 6776TIP3   OH241742   4.958   0.374   1.187  0.2295  0.4568 -0.1985
 6776TIP3    H141743   4.910   0.316   1.246  1.8128 -1.4161 -0.6534
 6776TIP3    H241744   4.925   0.461   1.208 -2.0299 -0.5251  0.7448
 6777TIP3   OH241745   2.044   0.054  13.682  0.4890 -0.0480 -0.1480
 6777TIP3    H141746   2.096   0.099  13.749 -0.7678  0.7698  0.3311
 6777TIP3    H241747   2.089  -0.029  13.667  0.6509 -0.3961  1.9499
 6778TIP3   OH241748   1.088   3.763   2.744 -0.2135  0.3169  0.2809
 6778TIP3    H141749   1.102   3.834   2.681 -0.6020  0.1965  0.0584
 6778TIP3    H241750   1.177   3.738   2.771 -0.0795  1.0594  0.5565
 6779TIP3   OH241751   2.280   4.469  12.587  0.2433  0.0436  0.2358
 6779TIP3    H141752   2.351   4.419  12.627  2.3212  3.5597  1.4340
 6779TIP3    H241753   2.240   4.517  12.660  0.7700  2.7591 -1.1366
 6780TIP3   OH241754   0.491   5.855   3.438 -0.2565  0.3641  0.0603
 6780TIP3    H141755   0.495   5.767   3.475 -2.3728  0.0803 -0.2460
 6780TIP3    H241756   0.575   5.866   3.394  0.4929 -1.0513  1.0363
 6781TIP3   OH241757   1.520   6.766   3.295  0.1653 -0.5249 -0.5245
 6781TIP3    H141758   1.595   6.824   3.282  0.5024 -1.1387 -1.4366
 6781TIP3    H241759   1.555   6.678   3.279 -0.7712 -0.8080 -1.0620
 6782TIP3   OH241760   1.540   4.485  10.489  1.1247  0.2426  0.3553
 6782TIP3    H141761   1.483   4.562  10.490  0.4664 -0.2238  2.1383
 6782TIP3    H241762   1.557   4.469  10.396 -1.6415  0.4316 -0.2720
 6783TIP3   OH241763   4.736   6.040  12.967 -0.4052  0.3044  0.0103
 6783TIP3    H141764   4.776   6.014  12.884 -0.9856 -1.7143  0.3074
 6783TIP3    H241765   4.724   5.958  13.015 -0.0635  1.4099  2.1333
 6784TIP3   OH241766   3.195   3.475   1.668 -0.4089 -0.0689  0.1453
 6784TIP3    H141767   3.137   3.432   1.605  1.6223  0.2026 -2.0715
 6784TIP3    H241768   3.164   3.565   1.672  0.4604  0.3798 -1.9369
 6785TIP3   OH241769   6.797   2.587  16.289 -0.2104 -0.2795  0.2406
 6785TIP3    H141770   6.813   2.630  16.373 -1.9871 -0.8444  0.9148
 6785TIP3    H241771   6.707   2.555  16.295  0.8905 -3.9402 -0.2674
 6786TIP3   OH241772   1.876   1.892  16.033  0.2640 -0.4406  0.2996
 6786TIP3    H141773   1.815   1.930  15.970  1.4157  2.6652  0.9019
 6786TIP3    H241774   1.924   1.826  15.983 -1.2583 -0.5879 -1.0563
 6787TIP3   OH241775   5.915   4.929  12.930 -0.2459 -0.8036 -0.1293
 6787TIP3    H141776   5.985   4.973  12.883 -1.6905  2.2352  0.3193
 6787TIP3    H241777   5.844   4.923  12.866 -0.6582 -0.9216  0.3333
 6788TIP3   OH241778   5.695   6.411  15.271  0.1539  0.6374 -0.4769
 6788TIP3    H141779   5.636   6.350  15.315  1.9090 -0.5425  0.3576
 6788TIP3    H241780   5.763   6.429  15.336  0.2896  2.6205 -1.1149
 6789TIP3   OH241781   6.032   1.679   2.926  0.4499 -0.2802 -0.1620
 6789TIP3    H141782   6.063   1.596   2.891 -0.5753 -0.3694 -0.9220
 6789TIP3    H241783   6.109   1.719   2.967  1.5108 -0.5325 -1.8267
 6790TIP3   OH241784   5.173   4.352  12.620 -0.2664  0.3079 -0.3854
 6790TIP3    H141785   5.125   4.271  12.606 -0.1583  0.3666 -1.1528
 6790TIP3    H241786   5.221   4.366  12.538  1.5133 -0.0342  0.5399
 6791TIP3   OH241787   3.867   5.340  17.077  0.7093  0.4528 -0.1410
 6791TIP3    H141788   3.832   5.250  17.074  1.9559 -0.0631  0.3779
 6791TIP3    H241789   3.833   5.381  16.997  1.1015 -0.8531 -1.0051
 6792TIP3   OH241790   1.953   5.009  10.851  0.3071  0.9036  0.0542
 6792TIP3    H141791   1.858   5.020  10.853 -0.0620 -1.4303 -0.7114
 6792TIP3    H241792   1.977   4.989  10.942 -0.4132 -1.2514 -0.1739
 6793TIP3   OH241793   2.352   2.479   0.902 -0.6450  0.0110 -0.5008
 6793TIP3    H141794   2.280   2.543   0.910 -0.6695  0.0523 -1.0505
 6793TIP3    H241795   2.320   2.414   0.841 -1.5111 -1.7763  1.7137
 6794TIP3   OH241796   1.912   6.336   0.336  0.3288 -0.4584 -0.5534
 6794TIP3    H141797   1.929   6.427   0.309  2.8256 -0.7333 -0.2205
 6794TIP3    H241798   1.843   6.342   0.401  0.6875  1.2758 -0.2849
 6795TIP3   OH241799   0.204   0.934   5.530  0.0351 -0.2981  0.1257
 6795TIP3    H141800   0.220   0.918   5.437  0.3350  1.1648 -0.1065
 6795TIP3    H241801   0.188   0.848   5.568  0.1388 -0.9332 -1.2404
 6796TIP3   OH241802   1.498   6.230   6.731  1.0043 -0.2923  0.2061
 6796TIP3    H141803   1.491   6.154   6.674  1.3854 -0.3009  0.1731
 6796TIP3    H241804   1.407   6.253   6.751  0.8960 -0.8744  0.3820
 6797TIP3   OH241805   0.911   3.147   2.980  0.1234  0.4744  0.1555
 6797TIP3    H141806   0.861   3.073   2.944 -0.6692  1.3793 -0.6899
 6797TIP3    H241807   0.858   3.223   2.958  1.3335  1.3715  0.2727
 6798TIP3   OH241808   1.416   1.378  16.653  0.3175 -0.1765  0.0030
 6798TIP3    H141809   1.365   1.397  16.574  0.3323 -0.4005 -0.0619
 6798TIP3    H241810   1.454   1.462  16.678  0.4348 -0.1332 -0.3168
 6799TIP3   OH241811   2.045   2.774   3.771 -0.7055  0.1259  0.0489
 6799TIP3    H141812   2.049   2.702   3.834  0.8664  0.2927  0.1818
 6799TIP3    H241813   1.952   2.792   3.760 -1.0676 -1.1955  0.8492
 6800TIP3   OH241814   0.198   2.608  14.429  0.1449  1.1674  0.2318
 6800TIP3    H141815   0.284   2.569  14.415 -0.1007  1.0538 -1.1169
 6800TIP3    H241816   0.205   2.653  14.513  1.1382  0.1463  0.7083
 6801TIP3   OH241817   1.870   0.715  11.416  0.1618  0.3707 -0.3579
 6801TIP3    H141818   1.844   0.806  11.432  0.5537  0.5690 -0.8124
 6801TIP3    H241819   1.950   0.722  11.363 -0.6419 -0.2493 -1.7131
 6802TIP3   OH241820   6.495   5.880  16.054  0.4197  0.6923 -0.4398
 6802TIP3    H141821   6.467   5.837  15.973  0.7080 -3.2053  1.2874
 6802TIP3    H241822   6.588   5.858  16.062  0.2147  0.3131  1.2841
 6803TIP3   OH241823   0.456   5.048   5.453 -0.7102 -0.1440 -0.4567
 6803TIP3    H141824   0.405   5.101   5.515 -1.8764 -0.8554 -0.7813
 6803TIP3    H241825   0.478   4.969   5.502 -0.1742  0.0122 -0.4299
 6804TIP3   OH241826   3.566   1.469  14.289 -0.2708 -0.2279 -0.0074
 6804TIP3    H141827   3.638   1.514  14.245  0.2663 -0.2498  0.8331
 6804TIP3    H241828   3.520   1.538  14.337 -1.1574 -0.1189 -0.9799
 6805TIP3   OH241829   2.071   5.079  15.108 -0.0389 -0.0707  0.1994
 6805TIP3    H141830   2.111   5.013  15.165  0.9213  0.7553  0.5294
 6805TIP3    H241831   2.096   5.163  15.148 -1.4246  0.4992 -0.0776
 6806TIP3   OH241832   5.138   0.441  12.632 -0.5738  0.2516  0.3886
 6806TIP3    H141833   5.195   0.364  12.635 -1.1665 -0.2666 -0.7029
 6806TIP3    H241834   5.182   0.502  12.572 -1.8358 -0.7972 -1.7521
 6807TIP3   OH241835   1.191   6.207  15.392 -0.3025 -0.2835  0.7848
 6807TIP3    H141836   1.096   6.203  15.381 -0.2298 -1.1160  0.3889
 6807TIP3    H241837   1.212   6.300  15.387 -1.0276 -0.1384  0.2679
 6808TIP3   OH241838   3.873   2.678  10.944 -0.2694  0.2901 -0.5281
 6808TIP3    H141839   3.783   2.706  10.965 -1.0716 -2.7244  0.5513
 6808TIP3    H241840   3.877   2.684  10.849 -1.6238  0.5015 -0.6023
 6809TIP3   OH241841   0.961   0.031   5.437  0.5003 -0.1411 -0.3310
 6809TIP3    H141842   1.004  -0.005   5.360  1.6503  1.7767 -0.6444
 6809TIP3    H241843   0.910  -0.042   5.473 -1.1323 -0.7901 -3.6040
 6810TIP3   OH241844   3.047   2.615   1.268  0.1548  0.6993  0.2270
 6810TIP3    H141845   2.963   2.658   1.252  0.9934  1.9112 -1.2443
 6810TIP3    H241846   3.095   2.675   1.325 -0.0301 -0.0930  1.2502
 6811TIP3   OH241847   5.781   2.091  13.430  0.4921 -0.1396 -0.2824
 6811TIP3    H141848   5.793   2.021  13.493 -2.4675 -0.0430  0.5188
 6811TIP3    H241849   5.701   2.068  13.382  1.1549  1.1529 -2.1630
 6812TIP3   OH241850   4.155   5.565   1.858 -0.1537 -0.0097  0.2142
 6812TIP3    H141851   4.077   5.538   1.906  0.6431 -0.8384  1.0911
 6812TIP3    H241852   4.133   5.554   1.766 -0.1320 -3.0507  0.4810
 6813TIP3   OH241853   2.503   6.513  11.023 -0.5571  0.1861 -0.2340
 6813TIP3    H141854   2.518   6.420  11.004  0.7873 -0.2141  2.3424
 6813TIP3    H241855   2.542   6.559  10.949 -1.2797 -1.2797 -1.5770
 6814TIP3   OH241856   6.462   5.827  14.920  0.1154 -0.5340 -0.3246
 6814TIP3    H141857   6.448   5.920  14.933 -1.0951 -1.0922  3.9965
 6814TIP3    H241858   6.377   5.794  14.890 -0.0590 -0.5007  0.1295
 6815TIP3   OH241859   0.374   3.335  14.870  0.5287  0.4176 -0.1861
 6815TIP3    H141860   0.324   3.410  14.838 -1.3822 -0.6877  0.0167
 6815TIP3    H241861   0.390   3.281  14.792 -0.2901 -0.1475  0.0230
 6816TIP3   OH241862   6.500   0.268   0.541 -0.0970  0.0577  0.3328
 6816TIP3    H141863   6.497   0.342   0.602  1.7896 -0.0527  0.5946
 6816TIP3    H241864   6.546   0.302   0.465 -1.4171 -0.1532 -0.5827
 6817TIP3   OH241865   5.930   6.543  16.268  0.2464  0.0130  0.4901
 6817TIP3    H141866   5.995   6.577  16.207  0.1514  1.6750  1.2613
 6817TIP3    H241867   5.979   6.529  16.349  0.3697 -2.1626  0.1133
 6818TIP3   OH241868   1.295   4.984   4.907  0.7518  0.3346  0.0688
 6818TIP3    H141869   1.314   5.014   4.996  1.0902 -0.0218  0.1172
 6818TIP3    H241870   1.290   5.065   4.856 -4.2315  1.0665  1.2153
 6819TIP3   OH241871   5.390   6.192   1.899  0.8360  0.1495  0.2554
 6819TIP3    H141872   5.404   6.135   1.823 -1.5255 -1.1139  0.6807
 6819TIP3    H241873   5.304   6.232   1.883  0.9544  1.0013  1.5936
 6820TIP3   OH241874   2.038   4.165  14.843 -0.1941 -0.0994 -0.7986
 6820TIP3    H141875   2.007   4.155  14.753  1.1134 -0.5795 -1.2169
 6820TIP3    H241876   2.060   4.076  14.870 -0.5029  0.0517 -0.0153
 6821TIP3   OH241877   0.388   4.434   3.707 -0.8018 -0.0128  0.4358
 6821TIP3    H141878   0.304   4.446   3.751 -1.6016 -0.2034 -0.9855
 6821TIP3    H241879   0.389   4.500   3.638 -0.1298 -0.5208 -0.0522
 6822TIP3   OH241880   4.492   1.603   4.714  0.3680  0.4034  0.4136
 6822TIP3    H141881   4.581   1.575   4.736  0.1883 -0.1564  0.4403
 6822TIP3    H241882   4.436   1.546   4.766 -0.0275  0.0895 -0.3462
 6823TIP3   OH241883   0.269   0.087   1.284  0.0413 -0.5105 -0.0451
 6823TIP3    H141884   0.220   0.087   1.202  1.0627 -0.5010 -0.6676
 6823TIP3    H241885   0.202   0.072   1.351 -0.8321 -0.3625 -0.8529
 6824TIP3   OH241886   1.222   0.333  13.980  0.3099  0.3515  0.2347
 6824TIP3    H141887   1.137   0.346  14.021 -0.1777  1.4573 -1.0469
 6824TIP3    H241888   1.285   0.352  14.049 -0.4454 -1.4208  1.4836
 6825TIP3   OH241889   1.676   1.707   2.098  0.1617  0.2225  0.3545
 6825TIP3    H141890   1.675   1.681   2.006  1.6981  0.0815  0.3458
 6825TIP3    H241891   1.728   1.640   2.142  2.5638  2.1604  0.6683
 6826TIP3   OH241892   3.448   1.903   2.388  0.0720  0.2701  0.1616
 6826TIP3    H141893   3.484   1.909   2.476  2.0525 -1.3905 -0.4372
 6826TIP3    H241894   3.502   1.963   2.336  1.3983 -1.4545 -0.5519
 6827TIP3   OH241895   5.430   4.126   1.694 -0.4987 -0.0863  0.0298
 6827TIP3    H141896   5.365   4.141   1.762  0.9624  0.5703  1.3640
 6827TIP3    H241897   5.447   4.032   1.697  0.9895  0.1661  2.0615
 6828TIP3   OH241898   2.598   1.726  16.329  0.2619  0.0267 -0.2343
 6828TIP3    H141899   2.590   1.723  16.234 -0.1067 -2.2339 -0.1872
 6828TIP3    H241900   2.682   1.686  16.348  1.8961  3.3289  0.3479
 6829TIP3   OH241901   0.451   3.211   0.692  0.4866 -0.2063  0.1347
 6829TIP3    H141902   0.418   3.258   0.616  1.3321  4.3277  2.2337
 6829TIP3    H241903   0.546   3.208   0.679  0.4252 -1.8413 -0.1365
 6830TIP3   OH241904   5.781   0.727  15.838  0.3060  0.5466 -0.3671
 6830TIP3    H141905   5.822   0.667  15.900  0.4590  0.3482 -0.6573
 6830TIP3    H241906   5.762   0.806  15.890 -0.9721 -0.1786  0.3178
 6831TIP3   OH241907   0.708   3.383  10.478  0.3263  0.2082  0.3791
 6831TIP3    H141908   0.650   3.329  10.532 -1.3645  1.4974 -0.0177
 6831TIP3    H241909   0.773   3.417  10.540  0.5204 -1.0822  0.9042
 6832TIP3   OH241910   2.461   2.308  15.696  0.4207 -0.2295  0.0851
 6832TIP3    H141911   2.395   2.272  15.638 -0.7637  0.1090  1.1879
 6832TIP3    H241912   2.453   2.403  15.686  2.4505 -0.1636 -1.6165
 6833TIP3   OH241913   2.623   0.726  10.917 -0.3294  0.5434 -0.2525
 6833TIP3    H141914   2.576   0.677  10.849  1.8567 -4.7649  1.5131
 6833TIP3    H241915   2.557   0.743  10.984 -0.9957 -1.6441 -0.2659
 6834TIP3   OH241916   2.255   0.821   3.647 -0.3011 -0.5143 -0.2269
 6834TIP3    H141917   2.279   0.729   3.656 -1.3477 -0.8937 -1.0036
 6834TIP3    H241918   2.247   0.833   3.552 -0.3021  0.3440 -0.1199
 6835TIP3   OH241919   0.148   6.518   0.079 -0.2602  0.1481  0.6612
 6835TIP3    H141920   0.096   6.494   0.002 -1.1498  2.1021  0.5858
 6835TIP3    H241921   0.211   6.446   0.089 -1.1498 -0.9231 -0.9259
 6836TIP3   OH241922   2.268   0.116  11.258  0.4171 -0.1788 -0.1347
 6836TIP3    H141923   2.339   0.051  11.264  1.5538  1.0129 -0.0565
 6836TIP3    H241924   2.312   0.195  11.226 -1.3550 -0.0769 -2.5153
 6837TIP3   OH241925   1.421   2.439  14.611  0.6533 -0.2484 -0.5633
 6837TIP3    H141926   1.352   2.379  14.585  0.9085 -0.9506  0.3155
 6837TIP3    H241927   1.421   2.507  14.543 -1.0198 -0.1174 -0.4840
 6838TIP3   OH241928   3.582   1.645  12.149 -0.5329  0.2957 -0.0694
 6838TIP3    H141929   3.649   1.671  12.085 -1.5648 -1.2927 -1.9051
 6838TIP3    H241930   3.499   1.668  12.107 -1.3215 -2.5059 -0.2086
 6839TIP3   OH241931   1.079   5.783   3.191  0.1861 -0.0259  0.1416
 6839TIP3    H141932   1.041   5.819   3.270 -0.6146 -1.0390  0.2383
 6839TIP3    H241933   1.019   5.712   3.165  0.1138  0.6501 -1.6833
 6840TIP3   OH241934   0.095   3.835  10.781  0.2165 -0.1163  0.3349
 6840TIP3    H141935   0.104   3.809  10.689  0.1096 -0.3310  0.3856
 6840TIP3    H241936   0.155   3.778  10.829 -1.7602 -1.9919  0.7537
 6841TIP3   OH241937   5.530   6.015   4.397 -0.3925 -0.2295 -0.2514
 6841TIP3    H141938   5.595   6.076   4.431 -1.7189  0.1771  1.7254
 6841TIP3    H241939   5.549   5.933   4.443  0.1020 -0.7586 -1.3674
 6842TIP3   OH241940   3.596   1.006   2.147  0.0551 -0.2621  0.5469
 6842TIP3    H141941   3.577   0.950   2.071  0.6364 -1.3849  1.1932
 6842TIP3    H241942   3.518   0.998   2.202 -0.5678  0.9322 -0.1245
 6843TIP3   OH241943   2.986   0.776   2.107  0.0748 -0.1763  0.8877
 6843TIP3    H141944   2.898   0.785   2.144  0.5038  0.9172  1.6938
 6843TIP3    H241945   3.007   0.683   2.116 -0.7211 -0.3251  1.3091
 6844TIP3   OH241946   2.650   4.959   4.631 -0.5810 -0.5379 -0.3581
 6844TIP3    H141947   2.560   4.949   4.602 -0.5036  1.3694 -1.4336
 6844TIP3    H241948   2.663   5.054   4.637  1.6146 -0.7298 -1.1201
 6845TIP3   OH241949   6.432   1.951   3.825 -0.1037  0.1419 -0.2389
 6845TIP3    H141950   6.406   1.920   3.912  0.2113  0.4707 -0.0282
 6845TIP3    H241951   6.417   1.876   3.768  1.2124 -0.6171  0.3642
 6846TIP3   OH241952   2.214   1.177   1.847  0.3998  0.1682  0.0009
 6846TIP3    H141953   2.179   1.183   1.936  0.1003 -1.0728 -0.0157
 6846TIP3    H241954   2.139   1.196   1.791  0.1925 -0.6301 -0.0031
 6847TIP3   OH241955   1.799   6.414   6.007 -0.5301  0.5134  0.6281
 6847TIP3    H141956   1.736   6.486   6.003 -0.6497  0.3621 -0.6380
 6847TIP3    H241957   1.747   6.336   5.987 -0.3805  0.0756  1.8850
 6848TIP3   OH241958   6.470   3.697   1.530  0.3254  0.0723  0.3652
 6848TIP3    H141959   6.465   3.773   1.471  1.5535 -0.3432 -0.3094
 6848TIP3    H241960   6.388   3.699   1.578 -0.2658  1.0377 -0.6281
 6849TIP3   OH241961   0.997   3.246   3.675  0.1774 -0.0117  0.5569
 6849TIP3    H141962   1.023   3.220   3.763  0.0302  0.0448  0.6178
 6849TIP3    H241963   0.901   3.241   3.677  0.0960  1.4459  0.8414
 6850TIP3   OH241964   4.235   1.607  12.657 -0.3514 -0.9457 -0.1553
 6850TIP3    H141965   4.311   1.607  12.599 -1.0727  0.0767 -1.1639
 6850TIP3    H241966   4.206   1.516  12.658  0.4825 -1.2184 -0.3154
 6851TIP3   OH241967   5.366   4.116   0.332  0.5334 -0.0209 -0.0757
 6851TIP3    H141968   5.401   4.161   0.255  1.4562  0.2579  0.4962
 6851TIP3    H241969   5.442   4.073   0.371  0.0482 -0.2640  0.6140
 6852TIP3   OH241970   2.684   0.002   2.735 -0.0601  0.1964 -0.2647
 6852TIP3    H141971   2.630   0.074   2.768  1.3646  0.7277  1.0131
 6852TIP3    H241972   2.622  -0.069   2.718 -1.4463  1.5694 -1.1858
 6853TIP3   OH241973   3.737   6.316   5.155  0.3056 -0.0279 -0.0291
 6853TIP3    H141974   3.735   6.275   5.069 -0.8484 -0.2071  0.0719
 6853TIP3    H241975   3.659   6.371   5.158  1.8516  2.3110 -0.1999
 6854TIP3   OH241976   6.784   1.579  15.302  0.7608 -0.3580 -0.1658
 6854TIP3    H141977   6.772   1.546  15.213 -1.4269 -0.3819  0.0791
 6854TIP3    H241978   6.850   1.648  15.294  1.9992 -1.6129 -1.4530
 6855TIP3   OH241979   1.025   3.196   1.787  0.5159  0.1976 -0.2157
 6855TIP3    H141980   1.033   3.292   1.790 -3.0872  0.6578  1.4850
 6855TIP3    H241981   1.057   3.167   1.873 -0.7528  0.2578  0.3076
 6856TIP3   OH241982   3.023   4.815   0.075 -0.0758 -0.1597 -0.1303
 6856TIP3    H141983   3.010   4.906   0.048 -1.5587 -0.1567  0.5026
 6856TIP3    H241984   2.935   4.782   0.095  0.5405 -1.3633  0.8218
 6857TIP3   OH241985   0.457   5.636   4.508  0.3606  0.1920  0.1985
 6857TIP3    H141986   0.476   5.543   4.511 -1.2443 -0.1633  2.4582
 6857TIP3    H241987   0.363   5.641   4.490  0.1116  1.2691  1.5624
 6858TIP3   OH241988   4.133   5.414   0.351 -0.1459  0.2936  0.2713
 6858TIP3    H141989   4.160   5.501   0.380 -0.2609  1.1234 -1.9099
 6858TIP3    H241990   4.038   5.417   0.352 -0.2577  1.4087 -2.8089
 6859TIP3   OH241991   3.238   1.692   3.625  0.1575  0.3405 -0.4688
 6859TIP3    H141992   3.216   1.680   3.533 -0.1771 -1.4623 -0.2016
 6859TIP3    H241993   3.327   1.658   3.633 -0.1088 -0.2631  0.0063
 6860TIP3   OH241994   1.069   0.759  12.778  0.1314  0.0926 -0.5783
 6860TIP3    H141995   1.116   0.833  12.737  1.6270 -2.4879 -4.0524
 6860TIP3    H241996   1.125   0.734  12.851  0.0056  1.8410  0.1794
 6861TIP3   OH241997   3.504   0.024   6.515  0.1764 -0.0925 -0.7282
 6861TIP3    H141998   3.428   0.040   6.571  0.4278  0.9592 -0.6637
 6861TIP3    H241999   3.500  -0.070   6.495 -1.2978 -0.0031 -0.9657
 6862TIP3   OH242000   4.286   2.092  17.080  0.4173 -0.2343  0.7183
 6862TIP3    H142001   4.353   2.027  17.060  2.3478  1.7423  0.3154
 6862TIP3    H242002   4.237   2.103  16.998  2.9957  1.9262 -0.6857
 6863TIP3   OH242003   0.825   5.334   4.889  0.1093  0.4088 -0.1775
 6863TIP3    H142004   0.862   5.306   4.805 -0.9608  0.0509 -0.5506
 6863TIP3    H242005   0.811   5.428   4.879  2.1881  0.8392  0.4846
 6864TIP3   OH242006   5.572   3.624  13.049 -0.1171 -0.3329  0.2493
 6864TIP3    H142007   5.571   3.685  12.976  0.4196 -0.1790  0.3701
 6864TIP3    H242008   5.663   3.622  13.078 -0.2076 -0.8725  0.5096
 6865TIP3   OH242009   6.654   0.028  15.117  0.5520 -0.0669 -0.3544
 6865TIP3    H142010   6.593  -0.041  15.093  0.7831  0.0406 -1.2893
 6865TIP3    H242011   6.612   0.109  15.089  0.3047  0.1849  0.6916
 6866TIP3   OH242012   4.625   2.750   0.051 -0.1037 -0.3094 -0.4479
 6866TIP3    H142013   4.687   2.705  -0.006  0.0448 -0.6651 -0.0135
 6866TIP3    H242014   4.583   2.815  -0.005 -0.1801 -0.8597 -1.0341
 6867TIP3   OH242015   1.748   5.399   4.377  0.2145  0.3049 -0.3963
 6867TIP3    H142016   1.691   5.450   4.320  1.3215  1.2694 -0.6791
 6867TIP3    H242017   1.835   5.434   4.361  1.1831 -2.3454 -1.3297
 6868TIP3   OH242018   6.547   1.803   2.314  0.4781  0.1467  0.1673
 6868TIP3    H142019   6.474   1.811   2.375 -0.5425  0.0433 -0.9948
 6868TIP3    H242020   6.564   1.892   2.284 -1.0294 -0.0717 -1.5909
 6869TIP3   OH242021   2.495   1.165  13.679 -0.2034 -0.0654 -0.5897
 6869TIP3    H142022   2.549   1.241  13.699 -1.0444  0.5374 -0.5881
 6869TIP3    H242023   2.558   1.098  13.651  0.5282  0.6648 -0.7293
 6870TIP3   OH242024   1.100   2.708   1.101 -0.1641  0.5738 -0.4412
 6870TIP3    H142025   1.042   2.647   1.055  2.4007 -1.2668 -1.4796
 6870TIP3    H242026   1.103   2.786   1.045 -0.5891  0.1585 -1.0557
 6871TIP3   OH242027   2.925   2.969   0.457  0.1770 -0.5174  0.5454
 6871TIP3    H142028   2.884   2.930   0.534 -0.0456 -0.6054  0.3845
 6871TIP3    H242029   2.878   2.931   0.383  0.6299 -0.7130  0.3524
 6872TIP3   OH242030   4.161   5.543   2.383 -0.2831 -0.0594  0.0873
 6872TIP3    H142031   4.240   5.506   2.345  1.4649  1.1783  2.2420
 6872TIP3    H242032   4.110   5.467   2.411  2.6429 -1.0832  3.3344
 6873TIP3   OH242033   6.081   6.770  15.765 -0.7168  0.2754  0.2186
 6873TIP3    H142034   6.027   6.847  15.784 -2.0223 -0.7845  1.0218
 6873TIP3    H242035   6.126   6.751  15.847  0.8438  1.0766 -0.4117
 6874TIP3   OH242036   4.708   3.708  13.572 -0.4983  0.1046 -0.1583
 6874TIP3    H142037   4.656   3.664  13.504 -0.5925 -0.4221  0.2454
 6874TIP3    H242038   4.663   3.688  13.654 -1.0539  1.7170 -0.0340
 6875TIP3   OH242039   1.812   3.250   0.118 -0.2729  0.6052  0.2102
 6875TIP3    H142040   1.791   3.244   0.211 -1.0108  1.0492  0.0756
 6875TIP3    H242041   1.801   3.343   0.096 -0.6268  0.4191 -0.4391
 6876TIP3   OH242042   0.078   6.084   0.238 -0.2683 -0.1113  0.0329
 6876TIP3    H142043   0.149   6.131   0.281 -0.2424 -0.6491  0.5865
 6876TIP3    H242044   0.024   6.051   0.309 -0.6915 -0.2963 -0.3682
 6877TIP3   OH242045   5.765   0.781  11.344  0.1561 -0.5409 -0.1576
 6877TIP3    H142046   5.718   0.699  11.328  1.5611 -1.3406 -0.3844
 6877TIP3    H242047   5.772   0.787  11.439 -0.0940 -0.6061 -0.1362
 6878TIP3   OH242048   1.749   3.879  14.759  0.4361  0.2588 -0.9951
 6878TIP3    H142049   1.670   3.926  14.733  0.8392  0.3047 -2.2199
 6878TIP3    H242050   1.816   3.908  14.696  1.6485  0.8372  0.4873
 6879TIP3   OH242051   6.742   4.633   1.459 -0.2616  0.0281  0.9193
 6879TIP3    H142052   6.701   4.718   1.442  0.6904  0.3589  0.1600
 6879TIP3    H242053   6.784   4.644   1.544 -2.9388 -0.8154  2.4815
 6880TIP3   OH242054   5.725   3.825   2.865 -0.4312  0.4461  0.1728
 6880TIP3    H142055   5.667   3.878   2.920 -0.6635 -0.2488  0.6014
 6880TIP3    H242056   5.805   3.817   2.917  0.4115  2.1576 -0.7898
 6881TIP3   OH242057   4.162   4.036  14.178  0.4927  0.3829 -0.1013
 6881TIP3    H142058   4.127   3.976  14.112  0.2394  0.2105  0.1845
 6881TIP3    H242059   4.088   4.053  14.236  0.9709 -0.2916  0.7359
 6882TIP3   OH242060   0.401   5.091   0.304 -0.3086  0.0716  0.4466
 6882TIP3    H142061   0.445   5.161   0.256 -0.8929 -0.8035 -1.4234
 6882TIP3    H242062   0.323   5.132   0.341 -0.4634  0.4965 -0.3352
 6883TIP3   OH242063   2.040   2.826   1.414 -0.2295 -0.1116  0.1981
 6883TIP3    H142064   2.132   2.830   1.437  0.0047 -2.5807 -0.0037
 6883TIP3    H242065   1.998   2.893   1.468  1.7612  1.7673 -0.4395
 6884TIP3   OH242066   0.874   3.339   5.374 -0.2869  0.0170 -0.4459
 6884TIP3    H142067   0.933   3.350   5.448  0.0893 -1.0206 -0.5852
 6884TIP3    H242068   0.804   3.282   5.408 -1.0615  0.9881 -0.3700
 6885TIP3   OH242069   0.125   2.210  12.671  0.1642 -0.3177  0.1731
 6885TIP3    H142070   0.187   2.148  12.710  0.5095 -0.4720 -0.5903
 6885TIP3    H242071   0.153   2.217  12.579  0.3343  1.2172  0.3128
 6886TIP3   OH242072   0.972   0.105  11.656  0.3491  0.3965 -0.1351
 6886TIP3    H142073   0.906   0.134  11.719  0.7882 -0.8752  0.9596
 6886TIP3    H242074   0.956   0.011  11.647  0.2948  0.5554 -1.9604
 6887TIP3   OH242075   1.082   4.050   3.223 -0.8418  0.4627 -0.7466
 6887TIP3    H142076   1.087   4.022   3.314 -1.9539 -0.1814 -0.8595
 6887TIP3    H242077   1.014   4.117   3.223 -0.4774  0.8328 -1.0168
 6888TIP3   OH242078   4.274   4.557   0.396 -0.3973 -0.1052  0.5257
 6888TIP3    H142079   4.344   4.525   0.453 -1.0056 -0.0319  1.3385
 6888TIP3    H242080   4.226   4.620   0.450  0.1086  1.3755 -0.6763
 6889TIP3   OH242081   3.162   4.908  13.239  0.2305 -0.3296 -0.2731
 6889TIP3    H142082   3.114   4.911  13.322  0.0396 -1.2040 -0.3402
 6889TIP3    H242083   3.253   4.897  13.264  0.2163 -0.2008 -0.1664
 6890TIP3   OH242084   5.841   5.089   5.690  0.3900  0.6867 -0.3257
 6890TIP3    H142085   5.801   5.051   5.768 -0.5029  1.7972 -0.2199
 6890TIP3    H242086   5.786   5.164   5.669  0.1930  0.0199 -2.4375
 6891TIP3   OH242087   5.156   3.726  16.025  0.4139  0.0531  0.2663
 6891TIP3    H142088   5.233   3.670  16.037  1.2061  1.5170  2.5920
 6891TIP3    H242089   5.188   3.800  15.974  0.3886  0.3660  0.7046
 6892TIP3   OH242090   1.951   3.295  11.108 -0.0866  0.2648  0.5457
 6892TIP3    H142091   1.934   3.382  11.071 -1.2054  0.9053  2.3629
 6892TIP3    H242092   1.999   3.313  11.189  0.4978 -0.9015  0.4749
 6893TIP3   OH242093   2.515   5.274  17.026  0.0861 -0.1296  0.3780
 6893TIP3    H142094   2.570   5.197  17.008 -0.2233  0.0105 -1.2176
 6893TIP3    H242095   2.449   5.242  17.088  1.8767 -0.3143  2.3033
 6894TIP3   OH242096   5.146   1.137   4.124  0.5427 -0.1062 -0.3041
 6894TIP3    H142097   5.114   1.142   4.034  0.1497 -1.4177 -0.2555
 6894TIP3    H242098   5.238   1.161   4.118  0.5146 -0.1665 -1.0461
 6895TIP3   OH242099   0.474   1.084   5.345  0.0856 -0.4332 -0.1527
 6895TIP3    H142100   0.561   1.107   5.312  0.1137 -1.2718 -0.6870
 6895TIP3    H242101   0.489   1.011   5.404 -0.3657 -1.3876 -1.1759
 6896TIP3   OH242102   0.798   4.058   0.476  0.1416 -0.1282 -0.6547
 6896TIP3    H142103   0.790   3.963   0.478 -0.1347 -0.1021 -0.5573
 6896TIP3    H242104   0.893   4.074   0.473  0.1966 -0.3996 -0.3232
 6897TIP3   OH242105   0.581   1.885  12.610  0.8785 -0.0082  0.4775
 6897TIP3    H142106   0.537   1.803  12.633  1.2440 -0.7631 -1.3544
 6897TIP3    H242107   0.638   1.903  12.685 -1.0515 -0.0328  2.0492
 6898TIP3   OH242108   5.054   1.817  16.288  0.0531 -0.0396  0.3541
 6898TIP3    H142109   5.057   1.793  16.195  1.3755 -1.3872  0.6912
 6898TIP3    H242110   5.000   1.749  16.328 -1.0928  0.9282  0.4989
 6899TIP3   OH242111   0.283   4.891   1.198  0.3330  0.1077  0.1478
 6899TIP3    H142112   0.280   4.907   1.292 -0.1091 -0.6381  0.2683
 6899TIP3    H242113   0.249   4.802   1.188  0.5459  0.1164 -0.6999
 6900TIP3   OH242114   0.005   5.588   5.625  0.2169 -0.3431  0.0411
 6900TIP3    H142115  -0.057   5.542   5.570 -0.5066 -1.4744  1.7005
 6900TIP3    H242116  -0.048   5.649   5.675  0.8747  0.7671 -0.5885
 6901TIP3   OH242117   1.017   4.978   3.303  0.5009 -0.0381 -0.8787
 6901TIP3    H142118   1.012   5.071   3.278  0.1503 -0.5413 -2.8811
 6901TIP3    H242119   1.012   4.978   3.398  0.3721  1.9910 -0.8439
 6902TIP3   OH242120   1.676   0.905   4.627  0.1634 -0.2694 -0.1961
 6902TIP3    H142121   1.613   0.946   4.687 -0.1207  0.8532 -1.2302
 6902TIP3    H242122   1.661   0.811   4.638 -2.1502 -0.0407 -0.8687
 6903TIP3   OH242123   3.575   0.669   4.303 -0.3481 -0.4625  0.1662
 6903TIP3    H142124   3.565   0.742   4.364  1.2216 -1.4439  1.7038
 6903TIP3    H242125   3.613   0.708   4.224  1.7411  0.2471  1.4502
 6904TIP3   OH242126   0.638   4.269  16.820  0.2622  0.3287  0.4832
 6904TIP3    H142127   0.689   4.347  16.842 -0.2696  1.1540 -1.0751
 6904TIP3    H242128   0.691   4.196  16.853  1.8837  1.2249 -0.0059
 6905TIP3   OH242129   2.633   6.423   0.651 -0.5291  0.2647  0.1351
 6905TIP3    H142130   2.545   6.428   0.614 -0.8484 -0.0681  0.8275
 6905TIP3    H242131   2.634   6.341   0.701  0.0573  0.4370  0.4277
 6906TIP3   OH242132   5.416   4.611  11.403 -0.2990  0.3670 -0.2436
 6906TIP3    H142133   5.426   4.559  11.323  0.6657  0.7564 -0.3837
 6906TIP3    H242134   5.330   4.651  11.395 -0.1673  0.4799 -1.1320
 6907TIP3   OH242135   6.536   4.243  12.835 -0.0346 -0.0482  0.2036
 6907TIP3    H142136   6.461   4.255  12.776 -0.7628  0.8915  1.2832
 6907TIP3    H242137   6.555   4.331  12.867  0.7177 -0.4635  0.9353
 6908TIP3   OH242138   1.350   0.438   5.865  0.4508  0.9041 -0.3163
 6908TIP3    H142139   1.295   0.418   5.940  0.9984 -0.6861 -0.2982
 6908TIP3    H242140   1.440   0.434   5.899  0.7424 -0.5581 -1.1565
 6909TIP3   OH242141   4.740   3.986  10.806 -0.0229 -0.1205 -0.4630
 6909TIP3    H142142   4.677   3.938  10.860 -1.0667 -0.8442 -2.2744
 6909TIP3    H242143   4.702   4.073  10.798 -0.3845 -0.3150 -0.8774
 6910TIP3   OH242144   1.030   6.476   1.550 -0.0281 -0.5697  0.7905
 6910TIP3    H142145   0.993   6.395   1.586 -0.3777 -1.3060 -1.0594
 6910TIP3    H242146   0.957   6.516   1.503  0.5115  0.0682  0.4812
 6911TIP3   OH242147   4.891   5.976   5.617 -0.1048 -0.0316  0.2605
 6911TIP3    H142148   4.938   5.893   5.612 -1.1955 -0.6216 -1.7903
 6911TIP3    H242149   4.959   6.043   5.613  0.7058 -0.8287  0.3236
 6912TIP3   OH242150   2.386   3.872  14.520  0.0362  0.0593  0.2258
 6912TIP3    H142151   2.301   3.909  14.497 -0.0324 -0.3802 -0.2615
 6912TIP3    H242152   2.413   3.919  14.599 -1.6892 -1.2855  1.7268
 6913TIP3   OH242153   1.521   3.953   4.867  0.1182 -0.7085 -0.1860
 6913TIP3    H142154   1.544   4.043   4.889 -0.9145 -0.7329  1.1678
 6913TIP3    H242155   1.433   3.942   4.903 -1.2166 -1.2387 -3.2537
 6914TIP3   OH242156   1.384   1.413  13.501 -0.2375  0.5090  0.0007
 6914TIP3    H142157   1.391   1.372  13.587  0.1414  1.0261  0.2210
 6914TIP3    H242158   1.325   1.487  13.514  2.2867  2.5575  0.5925
 6915TIP3   OH242159   4.579   3.344  14.473  0.0088 -0.1232  0.0734
 6915TIP3    H142160   4.608   3.254  14.488 -0.3931 -0.2503  0.0872
 6915TIP3    H242161   4.657   3.397  14.493  0.8123 -0.5599 -1.7189
 6916TIP3   OH242162   3.643   0.675  12.562 -0.0323  0.1111  0.5413
 6916TIP3    H142163   3.560   0.636  12.591  0.0464  1.3942  2.6745
 6916TIP3    H242164   3.646   0.760  12.605  2.0681  0.4120 -0.1032
 6917TIP3   OH242165   5.562   4.526   5.026  0.4296 -0.0399 -0.1463
 6917TIP3    H142166   5.557   4.587   5.099  2.2447  0.1054 -0.0979
 6917TIP3    H242167   5.610   4.451   5.060  0.1437 -0.5436 -0.8238
 6918TIP3   OH242168   4.591   0.558   5.197 -0.2014  0.3296 -0.1673
 6918TIP3    H142169   4.628   0.614   5.265 -0.6566 -1.5884  1.7381
 6918TIP3    H242170   4.665   0.535   5.141  0.7186 -0.2209  1.2400
 6919TIP3   OH242171   3.474   6.544   6.561 -0.4276 -0.2939 -0.2639
 6919TIP3    H142172   3.496   6.493   6.639 -1.7654  1.1870  1.1704
 6919TIP3    H242173   3.410   6.489   6.515 -1.7176 -0.0719  1.1628
 6920TIP3   OH242174   4.301   3.426  12.362 -0.0050  0.7645  0.6765
 6920TIP3    H142175   4.383   3.474  12.346  1.1677 -1.0521  0.8179
 6920TIP3    H242176   4.328   3.334  12.360 -2.2080  0.0818 -0.0368
 6921TIP3   OH242177   1.116   2.665  14.726  0.1499 -0.5494  0.2412
 6921TIP3    H142178   1.137   2.602  14.657 -1.2677 -0.6583 -0.1129
 6921TIP3    H242179   1.091   2.744  14.680  0.1623 -0.2980  0.6606
 6922TIP3   OH242180   3.727   4.898   1.111  0.1883  0.1796 -0.0475
 6922TIP3    H142181   3.821   4.913   1.123 -0.1799  1.8492  1.0998
 6922TIP3    H242182   3.722   4.814   1.065  2.2691  0.6629 -1.2971
 6923TIP3   OH242183   3.808   0.283   2.833 -0.2540  0.3664 -0.3822
 6923TIP3    H142184   3.839   0.307   2.746  0.0213  0.3211 -0.2983
 6923TIP3    H242185   3.725   0.330   2.843 -0.7578 -0.3519 -1.0323
 6924TIP3   OH242186   1.710   4.006  12.279 -0.6709 -0.3139 -0.2042
 6924TIP3    H142187   1.762   3.934  12.242 -0.1142 -0.7153  1.3081
 6924TIP3    H242188   1.728   4.080  12.221  1.9219 -0.3271  0.4347
 6925TIP3   OH242189   5.506   2.178   5.754 -0.4967  0.3169 -0.4162
 6925TIP3    H142190   5.494   2.114   5.824  0.5861 -0.1880 -0.6838
 6925TIP3    H242191   5.590   2.156   5.714 -0.3539  1.5738 -0.8636
 6926TIP3   OH242192   3.432   1.933   4.980 -0.1183  0.4515  0.0610
 6926TIP3    H142193   3.457   1.886   4.900  0.4212 -0.3420  0.6772
 6926TIP3    H242194   3.511   1.933   5.034 -0.5690  0.6594  0.7393
 6927TIP3   OH242195   2.079   2.533  14.964 -0.5741  0.1452  0.0505
 6927TIP3    H142196   2.098   2.556  15.055 -0.6252  0.9611 -0.1388
 6927TIP3    H242197   1.996   2.485  14.968 -0.4297 -0.0685  0.4665
 6928TIP3   OH242198   4.375   2.507  13.300 -0.1836  0.2573 -0.2459
 6928TIP3    H142199   4.286   2.472  13.303 -0.4053  0.8790  0.6392
 6928TIP3    H242200   4.364   2.602  13.307  0.5386  0.3591 -0.3946
 6929TIP3   OH242201   4.033   2.802   4.557 -0.0129  0.0408  0.0217
 6929TIP3    H142202   3.982   2.882   4.547  0.7553  0.3598 -1.5685
 6929TIP3    H242203   3.974   2.743   4.604 -1.0888  1.0732  0.0337
 6930TIP3   OH242204   2.499   5.978   5.029 -0.3515  0.8461  0.3360
 6930TIP3    H142205   2.416   5.943   5.060 -0.4834  1.7872  1.1084
 6930TIP3    H242206   2.518   5.929   4.949 -3.0045  2.4628 -1.4262
 6931TIP3   OH242207   3.395   5.380   1.476  0.3405 -0.5191  0.5405
 6931TIP3    H142208   3.385   5.383   1.571 -0.7794  0.5222  0.4068
 6931TIP3    H242209   3.311   5.411   1.442  1.5021  1.3986 -0.7652
 6932TIP3   OH242210   1.724   1.061  10.952 -0.4319 -0.4759 -0.3498
 6932TIP3    H142211   1.671   1.137  10.975 -0.9148 -0.9167  0.0304
 6932TIP3    H242212   1.714   1.053  10.857 -0.6983 -0.2901 -0.3401
 6933TIP3   OH242213   1.137   5.112   2.021  0.8268  0.7554 -0.2974
 6933TIP3    H142214   1.074   5.053   2.064  0.3462  0.5400 -1.2585
 6933TIP3    H242215   1.223   5.076   2.045  0.5626 -1.5464 -2.3555
 6934TIP3   OH242216   4.572   6.700  14.217 -0.5690 -0.5605 -0.4802
 6934TIP3    H142217   4.560   6.650  14.298 -1.6141 -1.2818 -1.0471
 6934TIP3    H242218   4.662   6.734  14.222 -0.2360 -1.5296  0.4636
 6935TIP3   OH242219   3.909   4.466   3.553  0.5506  0.0799 -0.0596
 6935TIP3    H142220   3.904   4.555   3.518  0.8988  0.6902  1.3830
 6935TIP3    H242221   3.990   4.431   3.516  0.1398  0.1646 -1.0615
 6936TIP3   OH242222   1.953   1.827  12.514  0.2998  0.0231  0.1056
 6936TIP3    H142223   1.893   1.854  12.584 -0.2961 -0.5341 -0.1775
 6936TIP3    H242224   2.027   1.887  12.521 -0.4012  0.8797  0.3133
 6937TIP3   OH242225   2.327   5.320   1.142  0.1366 -0.3880 -0.1364
 6937TIP3    H142226   2.325   5.227   1.164  1.3139 -0.2655  0.5938
 6937TIP3    H242227   2.237   5.341   1.116  0.2219 -2.1011 -1.9829
 6938TIP3   OH242228   1.472   1.462  12.178 -0.2844 -0.6603 -0.2065
 6938TIP3    H142229   1.493   1.448  12.086  1.4498 -0.9520  0.2138
 6938TIP3    H242230   1.541   1.519  12.211 -1.6761  0.6609  0.6000
 6939TIP3   OH242231   0.100   1.230  16.500 -0.6976 -0.3550 -0.0957
 6939TIP3    H142232   0.012   1.267  16.499  0.0692  1.7164  1.5291
 6939TIP3    H242233   0.093   1.155  16.559 -1.6026 -0.9563 -0.9378
 6940TIP3   OH242234   0.615   2.616   4.612 -0.0886 -0.2571 -0.1789
 6940TIP3    H142235   0.642   2.572   4.692 -0.2125 -0.8622 -0.4601
 6940TIP3    H242236   0.621   2.548   4.545 -1.5250 -0.1893 -0.3992
 6941TIP3   OH242237   1.762   0.924  11.581 -0.1127 -0.7050 -0.3306
 6941TIP3    H142238   1.730   1.001  11.628 -1.3190 -0.4234 -1.5659
 6941TIP3    H242239   1.844   0.902  11.625  0.2515  1.2729  0.0706
 6942TIP3   OH242240   1.111   0.907   0.198  0.1728  0.2961 -0.1602
 6942TIP3    H142241   1.065   0.865   0.271  2.6824 -1.9414  0.2991
 6942TIP3    H242242   1.053   0.893   0.123 -0.5662 -1.1819  0.6240
 6943TIP3   OH242243   4.790   1.836   0.606 -0.4652  0.0435  0.3308
 6943TIP3    H142244   4.772   1.918   0.560 -1.1357 -0.1763  0.1968
 6943TIP3    H242245   4.796   1.862   0.699 -1.5901  0.1143  0.3958
 6944TIP3   OH242246   3.941   1.262   5.852  0.3000  0.0915 -0.2510
 6944TIP3    H142247   3.975   1.192   5.908  0.3569 -1.2777 -1.9255
 6944TIP3    H242248   4.012   1.282   5.791 -0.5640 -0.1833 -1.3945
 6945TIP3   OH242249   1.927   5.130  13.973  0.2284  0.1564 -0.1157
 6945TIP3    H142250   1.853   5.091  14.019  0.2186 -1.0702 -1.1169
 6945TIP3    H242251   1.910   5.224  13.974 -0.4272  0.0455  1.2098
 6946TIP3   OH242252   6.249   4.685   0.958  0.0895 -0.3672 -0.2841
 6946TIP3    H142253   6.181   4.654   1.018  0.4628 -1.0829 -0.2282
 6946TIP3    H242254   6.248   4.622   0.886  0.5557 -0.2634 -0.3810
 6947TIP3   OH242255   2.458   5.255  15.994 -0.3268 -0.2384 -0.6674
 6947TIP3    H142256   2.490   5.275  15.906 -0.5242 -0.7192 -0.8511
 6947TIP3    H242257   2.424   5.338  16.026  1.6299  0.4511 -0.2309
 6948TIP3   OH242258   1.085   6.585  16.391 -0.4289 -0.3421  0.1500
 6948TIP3    H142259   1.113   6.674  16.414  0.9471 -0.4410 -0.9735
 6948TIP3    H242260   1.164   6.532  16.403 -0.5615 -0.9621 -1.4926
 6949TIP3   OH242261   0.943   6.380   6.072 -0.0875  0.3388  0.0867
 6949TIP3    H142262   0.966   6.346   5.986  0.6357 -0.5092  0.5968
 6949TIP3    H242263   0.965   6.473   6.069 -3.4076  1.2408 -1.8060
 6950TIP3   OH242264   4.431   1.328   0.800 -0.5685 -0.5561  0.2990
 6950TIP3    H142265   4.523   1.352   0.786 -0.4610 -0.3247  1.3385
 6950TIP3    H242266   4.401   1.299   0.714  0.2253  0.2010 -0.2539
 6951TIP3   OH242267   3.521   2.597  13.074  0.3425 -0.1161  0.1461
 6951TIP3    H142268   3.545   2.651  13.150  0.6663 -2.2847  1.6669
 6951TIP3    H242269   3.427   2.586  13.082  0.4340 -0.6912  0.5049
 6952TIP3   OH242270   4.772   6.532  12.888  0.0508 -0.6127 -0.2933
 6952TIP3    H142271   4.842   6.545  12.951 -1.4968  0.3951  1.2947
 6952TIP3    H242272   4.784   6.601  12.823  1.7839 -1.7931 -1.3173
 6953TIP3   OH242273   0.068   0.948  15.313 -0.5224 -0.4866  0.1940
 6953TIP3    H142274   0.113   0.877  15.359 -2.9692 -1.5964  1.0211
 6953TIP3    H242275   0.063   1.018  15.377  2.5239  0.8780 -0.8390
 6954TIP3   OH242276   6.675   0.518   1.871  0.0743 -0.0753 -0.1579
 6954TIP3    H142277   6.591   0.520   1.824 -1.1664 -0.7727  1.9180
 6954TIP3    H242278   6.708   0.430   1.858 -0.0265 -0.1207 -0.1057
 6955TIP3   OH242279   0.591   2.213  12.698 -0.1776  0.2362 -0.3872
 6955TIP3    H142280   0.646   2.160  12.756 -1.2911 -0.5763 -0.0410
 6955TIP3    H242281   0.513   2.231  12.750 -1.1933 -0.4949 -1.6113
 6956TIP3   OH242282   2.744   3.125  15.133 -0.2171 -0.1223 -0.1819
 6956TIP3    H142283   2.746   3.188  15.060 -3.2037  2.0037  1.3367
 6956TIP3    H242284   2.653   3.097  15.137  0.5873 -2.8879  0.6852
 6957TIP3   OH242285   2.791   4.897   2.765 -0.1685  0.1500 -0.4264
 6957TIP3    H142286   2.698   4.876   2.771 -0.0049 -0.3718  0.3940
 6957TIP3    H242287   2.801   4.933   2.677 -0.7049 -2.1082 -1.5044
 6958TIP3   OH242288   3.688   3.564  15.558  0.6101 -0.2590 -0.2697
 6958TIP3    H142289   3.691   3.629  15.487  1.2687 -0.3606 -0.3414
 6958TIP3    H242290   3.612   3.590  15.611  1.0372  0.7543 -0.1250
 6959TIP3   OH242291   1.735   1.112  13.536 -0.5983 -0.2967  0.2280
 6959TIP3    H142292   1.744   1.083  13.445 -1.6829  2.0805 -0.7179
 6959TIP3    H242293   1.815   1.163  13.552 -1.8984  2.1805 -0.6499
 6960TIP3   OH242294   0.926   3.811   4.672  0.0465 -0.1172 -0.4831
 6960TIP3    H142295   0.969   3.835   4.591 -0.1984  0.0649 -0.5628
 6960TIP3    H242296   0.856   3.877   4.682  0.5304  0.3006  0.2449
 6961TIP3   OH242297   1.000   2.606   5.870 -0.2171 -0.2100  0.1701
 6961TIP3    H142298   0.930   2.643   5.816 -1.1106 -1.8916  0.0698
 6961TIP3    H242299   1.080   2.643   5.836 -0.8855 -0.1385 -1.3950
 6962TIP3   OH242300   2.153   2.896   1.159  0.0820 -0.4874  0.0730
 6962TIP3    H142301   2.076   2.840   1.172  0.4540 -0.7475  1.2808
 6962TIP3    H242302   2.159   2.947   1.240  1.0613 -0.3200 -0.0994
 6963TIP3   OH242303   1.156   4.543   3.276 -0.5207 -0.6067  0.4305
 6963TIP3    H142304   1.189   4.461   3.312 -0.8581 -1.2224 -0.6364
 6963TIP3    H242305   1.101   4.579   3.345 -0.5572 -1.3905  0.8167
 6964TIP3   OH242306   0.549   2.590   0.760  0.1939  0.3064  0.0571
 6964TIP3    H142307   0.487   2.651   0.801  0.9017 -0.4849  2.4594
 6964TIP3    H242308   0.494   2.517   0.730 -0.2877  0.6760  0.0139
 6965TIP3   OH242309   2.273   6.239   4.984  0.5762 -0.5075 -0.3349
 6965TIP3    H142310   2.273   6.260   5.077 -2.2263 -1.0482 -0.1358
 6965TIP3    H242311   2.312   6.315   4.942 -1.1504  1.2260  1.0478
 6966TIP3   OH242312   5.551   1.901   0.992 -0.0430  0.6225 -0.4919
 6966TIP3    H142313   5.616   1.971   0.992  0.8366 -0.1461  0.9753
 6966TIP3    H242314   5.597   1.826   1.030 -1.2759 -0.4562 -1.0545
 6967TIP3   OH242315   0.137   2.899  14.617  0.2208 -0.3210  0.0681
 6967TIP3    H142316   0.135   2.906  14.713  0.0349  2.2214 -0.0529
 6967TIP3    H242317   0.046   2.880  14.592  0.1512 -0.4001  0.3792
 6968TIP3   OH242318   0.740   4.861   3.929  0.4022  0.2104  0.1436
 6968TIP3    H142319   0.787   4.843   4.010 -2.3738 -2.3849  1.3414
 6968TIP3    H242320   0.691   4.941   3.947  1.5268  0.9305  0.1352
 6969TIP3   OH242321   5.375   4.732  13.673 -0.3861  0.4115  0.2521
 6969TIP3    H142322   5.394   4.818  13.711 -4.1206  1.8954 -0.7570
 6969TIP3    H242323   5.362   4.749  13.580 -0.7814 -1.3428 -0.0571
 6970TIP3   OH242324   2.137   4.040   4.578  0.1033 -0.2222  0.1836
 6970TIP3    H142325   2.076   3.979   4.619 -0.3802 -0.1185 -0.3715
 6970TIP3    H242326   2.177   4.088   4.651  1.4011 -2.0299  0.7391
 6971TIP3   OH242327   4.451   0.392  14.453  0.1718  0.3155  0.0358
 6971TIP3    H142328   4.372   0.423  14.409  0.2082  0.7131  0.2520
 6971TIP3    H242329   4.425   0.308  14.492 -0.8281  1.4921  2.0599
 6972TIP3   OH242330   0.945   2.117  10.928 -0.1283 -0.4153 -0.4395
 6972TIP3    H142331   0.870   2.083  10.879  0.2058 -1.0031 -0.5528
 6972TIP3    H242332   0.947   2.066  11.009  0.2165 -0.4847 -0.4872
 6973TIP3   OH242333   6.403   3.672  15.428  0.0062 -0.5599 -0.2845
 6973TIP3    H142334   6.442   3.640  15.509 -0.0416  0.1428  0.0294
 6973TIP3    H242335   6.365   3.595  15.387  1.1065 -1.1453 -0.2510
 6974TIP3   OH242336   5.421   4.056  11.374  0.2878  0.5191 -0.1406
 6974TIP3    H142337   5.425   3.964  11.349 -0.4597  0.3347  0.3681
 6974TIP3    H242338   5.328   4.073  11.389  0.6603  0.4455  3.0214
 6975TIP3   OH242339   4.377   5.292  12.986 -0.0621  0.1711 -0.1366
 6975TIP3    H142340   4.398   5.198  12.993  1.8971  0.6282  0.9472
 6975TIP3    H242341   4.416   5.331  13.064 -3.5526  1.5304  1.1513
 6976TIP3   OH242342   5.857   3.575   4.817  0.5897  0.5370  0.3104
 6976TIP3    H142343   5.917   3.513   4.857  0.2698  0.6133  0.9294
 6976TIP3    H242344   5.809   3.524   4.752 -0.1633 -0.0542  1.3022
 6977TIP3   OH242345   4.032   3.235   0.681 -0.2972  0.3309  0.2890
 6977TIP3    H142346   3.948   3.245   0.727 -0.4017  1.1421 -0.0669
 6977TIP3    H242347   4.018   3.160   0.622 -0.5007 -0.0501  0.8132
 6978TIP3   OH242348   5.368   3.898  13.827 -0.5738 -0.2474  0.2571
 6978TIP3    H142349   5.302   3.884  13.759  0.9000  0.1737 -1.3338
 6978TIP3    H242350   5.452   3.891  13.781  0.5197 -0.8308  2.2159
 6979TIP3   OH242351   5.936   3.645  10.877 -0.0570 -0.2789 -1.0406
 6979TIP3    H142352   6.031   3.631  10.876  0.0725  0.1904  0.8622
 6979TIP3    H242353   5.925   3.735  10.849  0.4589  1.0209  2.4279
 6980TIP3   OH242354   2.739   1.140  12.044 -0.0121  0.5754  0.4957
 6980TIP3    H142355   2.821   1.169  12.005 -0.5294  2.7612  0.8900
 6980TIP3    H242356   2.765   1.076  12.110  1.3390  0.8985  0.3085
 6981TIP3   OH242357   5.328   2.724  15.763  0.0274  0.0629  0.1550
 6981TIP3    H142358   5.290   2.702  15.678  1.4606 -0.1938 -0.4603
 6981TIP3    H242359   5.254   2.725  15.823 -1.1240  0.8845 -1.2062
 6982TIP3   OH242360   6.538   4.185  16.661 -0.0824  0.0592 -0.5572
 6982TIP3    H142361   6.469   4.118  16.654 -1.1278  0.9131  1.0916
 6982TIP3    H242362   6.608   4.142  16.711 -0.7927  0.1878  0.5850
 6983TIP3   OH242363   1.420   6.810  15.510  0.5851  0.3563  0.2435
 6983TIP3    H142364   1.384   6.721  15.503  1.1571  0.0093  1.4111
 6983TIP3    H242365   1.346   6.867  15.490  0.3319 -0.3668 -1.0366
 6984TIP3   OH242366   4.650   4.574  14.020 -0.1747 -0.2319  0.4535
 6984TIP3    H142367   4.730   4.610  14.059 -1.0859  1.5722  0.7693
 6984TIP3    H242368   4.583   4.639  14.039 -1.7598 -1.7332  0.2537
 6985TIP3   OH242369   4.578   6.455  16.932 -0.0700 -0.4668 -0.1193
 6985TIP3    H142370   4.551   6.430  16.844 -1.3220  1.4481 -0.3166
 6985TIP3    H242371   4.574   6.373  16.982  0.9810 -1.6539 -1.8531
 6986TIP3   OH242372   2.180   1.360   3.202 -0.1957 -0.2007 -0.3294
 6986TIP3    H142373   2.093   1.342   3.166 -0.3992 -1.2088  0.6244
 6986TIP3    H242374   2.229   1.280   3.188  0.2443 -0.0143  0.1087
 6987TIP3   OH242375   6.769   1.207  17.061  0.2168  0.4137 -0.0423
 6987TIP3    H142376   6.720   1.150  17.120 -0.6796  0.3683 -0.8035
 6987TIP3    H242377   6.704   1.270  17.029  0.6246  0.3065 -1.1266
 6988TIP3   OH242378   0.600   2.423  13.423  0.2029 -0.5557 -0.1839
 6988TIP3    H142379   0.574   2.348  13.370  1.1273 -1.4951  0.6438
 6988TIP3    H242380   0.639   2.384  13.502  0.4323  0.7950  0.3941
 6989TIP3   OH242381   2.844   5.123  14.142 -0.1952 -0.1573 -0.1400
 6989TIP3    H142382   2.859   5.118  14.236 -0.3220  0.9446 -0.0445
 6989TIP3    H242383   2.884   5.044  14.106 -0.2036 -0.6132  0.8438
 6990TIP3   OH242384   3.806   3.308  10.654 -0.1312  0.5599 -0.9994
 6990TIP3    H142385   3.764   3.385  10.693  1.0213  0.0029  1.5370
 6990TIP3    H242386   3.878   3.287  10.714  0.5708 -1.5489 -2.4740
 6991TIP3   OH242387   1.244   2.065  16.216  0.0352  0.0882 -0.7531
 6991TIP3    H142388   1.222   2.153  16.186 -2.9060  0.0048  0.7979
 6991TIP3    H242389   1.289   2.080  16.300 -0.6116  0.1429 -0.4077
 6992TIP3   OH242390   4.536   2.718   1.221  0.1484 -0.5457  0.3733
 6992TIP3    H142391   4.624   2.752   1.206 -0.4377  0.9981  0.2533
 6992TIP3    H242392   4.500   2.776   1.289 -0.2636 -2.0931  1.5374
 6993TIP3   OH242393   1.370   3.691  14.187 -0.0886  0.0422 -0.4467
 6993TIP3    H142394   1.411   3.740  14.116 -0.3417  1.6464  0.4499
 6993TIP3    H242395   1.280   3.677  14.157 -0.5732  1.8475  0.0223
 6994TIP3   OH242396   5.674   3.916  12.063 -0.2196 -0.2752 -0.1611
 6994TIP3    H142397   5.614   3.970  12.012 -0.8037 -1.9560 -1.3353
 6994TIP3    H242398   5.618   3.875  12.130 -0.1491 -0.8447 -0.4445
 6995TIP3   OH242399   1.544   3.801   4.089 -0.0230 -0.5215 -0.2225
 6995TIP3    H142400   1.505   3.717   4.113 -0.3398 -0.3493 -0.1238
 6995TIP3    H242401   1.600   3.781   4.014 -0.2906 -0.7796 -0.3561
 6996TIP3   OH242402   3.569   1.829   4.148 -0.0116  0.9785 -0.0603
 6996TIP3    H142403   3.506   1.854   4.081 -0.4680  1.0071  0.3706
 6996TIP3    H242404   3.523   1.844   4.231  0.9318  2.0121  0.3042
 6997TIP3   OH242405   2.802   5.079   1.298 -0.4808 -0.6560 -0.0457
 6997TIP3    H142406   2.778   5.091   1.206 -1.4982 -0.8624  0.1808
 6997TIP3    H242407   2.888   5.037   1.295 -1.1421 -2.0274 -0.9344
 6998TIP3   OH242408   1.731   5.318  12.521 -0.2990  0.2152  0.2619
 6998TIP3    H142409   1.635   5.321  12.530 -0.2702  1.5656  0.4460
 6998TIP3    H242410   1.750   5.228  12.497 -1.6678  0.0309 -0.2620
 6999TIP3   OH242411   1.764   3.112  13.202 -0.2160  0.4184 -0.0576
 6999TIP3    H142412   1.817   3.173  13.151  1.4223  0.0330  1.1112
 6999TIP3    H242413   1.675   3.146  13.196  0.1737  1.2242 -1.8863
 7000TIP3   OH242414   1.295   3.575  13.110 -0.3308 -0.0414 -0.2229
 7000TIP3    H142415   1.200   3.570  13.099 -0.5097 -0.9369  1.4490
 7000TIP3    H242416   1.329   3.500  13.063 -0.4595  0.2050 -0.7118
 7001TIP3   OH242417   1.432   0.481   5.223  0.0690  0.9201 -0.0527
 7001TIP3    H142418   1.408   0.467   5.315 -0.4953  1.4729 -0.1092
 7001TIP3    H242419   1.368   0.430   5.173  1.2459 -0.5657 -0.1237
 7002TIP3   OH242420   0.833   1.625  11.005  0.2312  0.7483 -0.7480
 7002TIP3    H142421   0.824   1.711  11.046  1.2126  1.4878 -2.0052
 7002TIP3    H242422   0.752   1.614  10.954 -1.2808 -0.4376  1.6750
 7003TIP3   OH242423   0.250   6.283   3.817  0.4590  0.5313  0.1023
 7003TIP3    H142424   0.201   6.297   3.736 -0.3280  2.1400  0.8172
 7003TIP3    H242425   0.290   6.368   3.835  1.8642 -0.2123  0.6308
 7004TIP3   OH242426   6.036   1.995  10.505 -0.2110 -0.2559  0.1285
 7004TIP3    H142427   5.969   2.052  10.467 -0.0029 -0.1521 -0.0903
 7004TIP3    H242428   6.104   1.990  10.437  0.5676  0.6371  0.8136
 7005TIP3   OH242429   4.816   1.960   3.162  0.3236  0.6276 -0.2816
 7005TIP3    H142430   4.748   1.983   3.225  1.0846 -0.4986  1.0022
 7005TIP3    H242431   4.768   1.937   3.082 -0.7963  0.1102  0.5204
 7006TIP3   OH242432   1.093   3.330   2.663  0.6047  0.5326  0.7138
 7006TIP3    H142433   1.107   3.237   2.681  0.9997  0.2046 -1.0627
 7006TIP3    H242434   1.005   3.335   2.628  1.6966  0.2355 -2.3715
 7007TIP3   OH242435   5.201   5.506  16.566 -0.0824 -0.3542  0.6500
 7007TIP3    H142436   5.174   5.414  16.575  0.7531 -0.8589 -1.3677
 7007TIP3    H242437   5.126   5.549  16.526  0.3599 -0.7215 -0.6251
 7008TIP3   OH242438   4.510   3.939  12.082 -0.1636  0.3814 -0.4255
 7008TIP3    H142439   4.555   4.023  12.076  0.1743  0.1846 -0.7190
 7008TIP3    H242440   4.440   3.944  12.017 -0.1257  0.4254 -0.4629
 7009TIP3   OH242441   4.813   3.831   2.629 -0.9815  0.2144 -0.0039
 7009TIP3    H142442   4.742   3.771   2.606  0.0792 -1.5769  1.1269
 7009TIP3    H242443   4.862   3.785   2.697  0.9148  1.6483 -0.3063
 7010TIP3   OH242444   0.064   0.102   2.796 -0.0532 -0.5229 -0.2645
 7010TIP3    H142445   0.032   0.017   2.766  1.4015 -0.9943 -0.5534
 7010TIP3    H242446   0.098   0.085   2.884 -0.7606  0.0176  0.1255
 7011TIP3   OH242447   2.925   2.215  14.780  0.6280 -0.4104  0.1391
 7011TIP3    H142448   2.853   2.163  14.815  0.0254 -0.8155 -1.6059
 7011TIP3    H242449   2.895   2.242  14.693  1.6373  1.4142  0.3119
 7012TIP3   OH242450   6.542   3.769   1.845 -0.2180  0.1218  0.3392
 7012TIP3    H142451   6.492   3.785   1.926  1.3576 -3.2504  2.2098
 7012TIP3    H242452   6.490   3.703   1.798  1.7339 -2.8036  1.9148
 7013TIP3   OH242453   3.704   5.496  12.911 -0.2910 -0.3050 -0.1571
 7013TIP3    H142454   3.625   5.543  12.887 -1.4682 -1.0478  1.9587
 7013TIP3    H242455   3.697   5.412  12.865 -1.1940 -0.6966  0.6561
 7014TIP3   OH242456   3.448   6.417   4.299 -0.4705 -0.0874  0.2698
 7014TIP3    H142457   3.428   6.331   4.336 -0.0986 -0.9647 -1.4733
 7014TIP3    H242458   3.543   6.417   4.289 -0.1310  1.5889  2.6518
 7015TIP3   OH242459   0.597   3.096  15.044  0.2960  0.0528 -0.1425
 7015TIP3    H142460   0.575   3.188  15.032  0.5955  0.0743 -0.5730
 7015TIP3    H242461   0.689   3.090  15.019 -0.1172 -0.6275 -1.6099
 7016TIP3   OH242462   5.493   5.180  16.237  0.2084  0.1919  0.0029
 7016TIP3    H142463   5.400   5.188  16.258  0.0592  0.3338 -0.6702
 7016TIP3    H242464   5.528   5.268  16.248 -0.5112  1.0278 -3.1694
 7017TIP3   OH242465   5.306   4.398   3.371 -0.3904 -0.4399  0.4314
 7017TIP3    H142466   5.308   4.315   3.418 -1.0918 -0.7338 -0.0442
 7017TIP3    H242467   5.217   4.431   3.382 -0.2960 -0.0568  0.1003
 7018TIP3   OH242468   2.586   3.260  13.737  0.0672 -0.2953 -0.5426
 7018TIP3    H142469   2.525   3.186  13.738 -0.0330 -0.2121 -0.1845
 7018TIP3    H242470   2.565   3.308  13.657 -0.2365 -0.3499 -0.4959
 7019TIP3   OH242471   1.453   5.669  16.091 -0.1415 -0.4468  0.0795
 7019TIP3    H142472   1.434   5.605  16.022 -0.3254 -1.0221  0.6594
 7019TIP3    H242473   1.373   5.673  16.143  0.6484 -1.5086  1.4305
 7020TIP3   OH242474   2.684   4.218  15.982 -0.5166 -0.1531 -0.0002
 7020TIP3    H142475   2.735   4.230  16.062  0.7115  0.1867 -0.8029
 7020TIP3    H242476   2.622   4.291  15.982  1.9257  2.1259 -1.1207
 7021TIP3   OH242477   1.183   5.791   0.316 -0.1943 -0.0976 -0.5725
 7021TIP3    H142478   1.197   5.702   0.348  0.3005  0.4602  0.8068
 7021TIP3    H242479   1.179   5.781   0.220 -1.0715 -1.7045 -0.4038
 7022TIP3   OH242480   2.015   1.668   1.462 -0.3615  0.1194 -0.4586
 7022TIP3    H142481   2.020   1.663   1.367  2.1974 -0.6046 -0.3445
 7022TIP3    H242482   2.019   1.576   1.491  0.6025  0.4035  0.3749
 7023TIP3   OH242483   1.515   1.168   6.159 -0.0017  0.4659  0.0411
 7023TIP3    H142484   1.468   1.207   6.233 -0.6117  0.0518 -0.1259
 7023TIP3    H242485   1.473   1.084   6.145  0.4607  0.3070 -0.4420
 7024TIP3   OH242486   4.482   6.179  10.295 -0.1791 -0.4978 -0.5731
 7024TIP3    H142487   4.480   6.250  10.360 -1.0447  2.0379 -3.1488
 7024TIP3    H242488   4.567   6.137  10.309  0.2916  0.9107  1.2194
 7025TIP3   OH242489   1.037   0.274  14.822 -0.0141  0.3766  0.0374
 7025TIP3    H142490   0.983   0.332  14.875  0.9794  0.4854  0.9751
 7025TIP3    H242491   0.975   0.218  14.775 -0.9380  0.9494  0.5617
 7026TIP3   OH242492   1.380   2.300  16.137 -0.1370 -0.3637  0.3449
 7026TIP3    H142493   1.346   2.382  16.102  0.2477 -1.2179 -2.2338
 7026TIP3    H242494   1.421   2.325  16.220 -1.4760  1.7328  0.4570
 7027TIP3   OH242495   6.554   5.851   0.868 -0.3078 -0.3339  0.6843
 7027TIP3    H142496   6.460   5.835   0.873 -0.0098 -2.0810  1.3175
 7027TIP3    H242497   6.578   5.823   0.779 -0.3020 -0.3176  0.6806
 7028TIP3   OH242498   6.037   0.158   2.560 -0.2003  0.5038  0.0810
 7028TIP3    H142499   6.026   0.148   2.466 -0.3466  1.5496 -0.0275
 7028TIP3    H242500   6.109   0.221   2.569 -1.2401  1.6595  0.6260
 7029TIP3   OH242501   1.299   2.192  13.166 -0.2446 -0.7743  0.2174
 7029TIP3    H142502   1.245   2.134  13.112 -0.2249 -0.3809 -0.2306
 7029TIP3    H242503   1.259   2.278  13.155  0.9481 -0.3132 -0.7734
 7030TIP3   OH242504   0.206   2.946  12.161 -0.1380  0.3001  0.3051
 7030TIP3    H142505   0.135   2.916  12.218 -0.7314  0.5328 -0.3022
 7030TIP3    H242506   0.213   2.878  12.094  1.0949 -0.3765  1.0791
 7031TIP3   OH242507   3.141   6.465  17.082 -0.2048  0.4063 -0.1659
 7031TIP3    H142508   3.056   6.506  17.065  0.2504  1.7373  0.6635
 7031TIP3    H242509   3.122   6.398  17.148 -0.6080  0.7488  0.0710
 7032TIP3   OH242510   6.322   6.102  15.845 -0.0690  0.0478 -0.1221
 7032TIP3    H142511   6.244   6.078  15.895 -0.2093 -1.3061 -0.9356
 7032TIP3    H242512   6.395   6.085  15.903 -0.2889 -0.3686  0.0332
 7033TIP3   OH242513   5.337   2.102   2.917 -0.5125  0.2815  0.4081
 7033TIP3    H142514   5.414   2.133   2.870 -1.1615  0.7717 -0.3537
 7033TIP3    H242515   5.360   2.013   2.945  0.4169  0.5144  0.4054
 7034TIP3   OH242516   6.695   5.939   5.121 -0.6280  0.6140 -0.1996
 7034TIP3    H142517   6.730   6.001   5.185 -0.0306 -0.7374  0.8471
 7034TIP3    H242518   6.757   5.941   5.049  0.2753  0.0809  0.5419
 7035TIP3   OH242519   0.668   1.470   4.773 -0.0415  0.5011 -0.0094
 7035TIP3    H142520   0.618   1.406   4.722  1.4379 -0.4723 -0.2853
 7035TIP3    H242521   0.677   1.546   4.714 -0.7245  0.4921 -0.1398
 7036TIP3   OH242522   0.010   2.086  11.468  0.6381 -0.0362  0.1718
 7036TIP3    H142523  -0.037   2.088  11.551  0.8456  1.4818  0.2694
 7036TIP3    H242524  -0.027   2.158  11.417  0.2708 -1.1444 -1.2073
 7037TIP3   OH242525   0.556   2.345   0.222 -0.0256  0.1719 -0.4951
 7037TIP3    H142526   0.477   2.378   0.180 -1.2193 -1.1014  0.6529
 7037TIP3    H242527   0.570   2.404   0.296  0.2459  0.5323 -0.8291
 7038TIP3   OH242528   5.356   4.824  13.983 -0.1354  0.1549  0.0386
 7038TIP3    H142529   5.398   4.882  13.920 -1.8620  1.3401 -0.0986
 7038TIP3    H242530   5.426   4.795  14.040  0.8963  1.9079 -0.2722
 7039TIP3   OH242531   1.206   1.133   4.896 -0.2523 -0.1794 -0.0391
 7039TIP3    H142532   1.217   1.228   4.891 -1.1101 -0.1054 -0.9617
 7039TIP3    H242533   1.137   1.114   4.832  0.9817 -1.6075 -1.0081
 7040TIP3   OH242534   1.422   1.622  11.899 -0.3377  0.6160 -0.5131
 7040TIP3    H142535   1.495   1.684  11.909 -0.6844  0.8878  0.4707
 7040TIP3    H242536   1.422   1.600  11.806  1.3302  0.1994 -0.4554
 7041TIP3   OH242537   3.088   2.080   5.725 -0.7715  0.3811  0.2363
 7041TIP3    H142538   3.098   2.013   5.793  0.0412  0.9130  0.6559
 7041TIP3    H242539   3.048   2.154   5.770 -0.4885  0.6338  0.0725
 7042TIP3   OH242540   3.322   1.082   1.014  0.1470 -0.5422 -0.0214
 7042TIP3    H142541   3.309   1.033   1.096 -0.9211  0.1304  0.2450
 7042TIP3    H242542   3.249   1.054   0.958  1.2425 -1.4900 -1.0160
 7043TIP3   OH242543   1.811   2.434  16.760 -0.1285  0.0783  0.0926
 7043TIP3    H142544   1.771   2.365  16.708 -0.4058  1.7186 -1.9902
 7043TIP3    H242545   1.888   2.460  16.710 -0.3470  1.6546  0.5150
 7044TIP3   OH242546   3.609   4.564   4.669  0.0450 -1.3558  0.3943
 7044TIP3    H142547   3.635   4.515   4.746 -0.7954  0.0962  1.6538
 7044TIP3    H242548   3.643   4.652   4.683  1.0779 -1.3846 -1.5751
 7045TIP3   OH242549   6.271   3.638  11.226 -0.0603  0.1622 -0.4420
 7045TIP3    H142550   6.315   3.708  11.177 -1.3163  0.3362 -1.3531
 7045TIP3    H242551   6.242   3.576  11.159 -1.1744  0.0412  0.1354
 7046TIP3   OH242552   6.161   4.757  16.432  0.3472 -0.0142  0.2065
 7046TIP3    H142553   6.186   4.697  16.503  0.8129 -0.1668 -0.0833
 7046TIP3    H242554   6.172   4.845  16.469  0.7509 -0.0921  0.2672
 7047TIP3   OH242555   5.100   0.490  13.660 -0.4041 -0.8270 -0.2809
 7047TIP3    H142556   5.084   0.415  13.718 -1.7243 -1.0882 -0.9476
 7047TIP3    H242557   5.111   0.451  13.573  3.4798 -0.6318 -0.0694
 7048TIP3   OH242558   3.484   5.153   0.857 -0.1990  0.6438 -0.3665
 7048TIP3    H142559   3.521   5.079   0.808 -0.2028  1.4404 -1.6025
 7048TIP3    H242560   3.389   5.141   0.851 -0.1958 -0.0261  0.6727
 7049TIP3   OH242561   4.115   3.101  12.335 -0.9472  0.2431 -0.2313
 7049TIP3    H142562   4.077   3.186  12.358  1.0928  0.8306  1.2745
 7049TIP3    H242563   4.166   3.119  12.256 -1.2409  0.1907 -0.4357
 7050TIP3   OH242564   6.600   1.117  16.191  0.1131  0.5367 -0.0207
 7050TIP3    H142565   6.553   1.163  16.261  0.1738  1.8281 -0.7887
 7050TIP3    H242566   6.668   1.178  16.163  1.4975 -0.8168  0.2369
 7051TIP3   OH242567   4.594   2.765   3.480  0.0366 -0.6156  0.0109
 7051TIP3    H142568   4.620   2.732   3.566  1.9204 -0.3894 -0.4372
 7051TIP3    H242569   4.607   2.860   3.486 -0.0902 -0.5688 -0.4384
 7052TIP3   OH242570   3.660   5.432   0.734  0.0914  0.4088 -0.8276
 7052TIP3    H142571   3.600   5.362   0.710  0.2418 -0.5712  1.3631
 7052TIP3    H242572   3.652   5.440   0.829  1.4654  2.0970 -0.7804
 7053TIP3   OH242573   6.026   0.637  14.127 -0.2147  0.2236 -0.1508
 7053TIP3    H142574   5.989   0.722  14.101 -1.4276 -0.1262  0.3661
 7053TIP3    H242575   6.048   0.649  14.220  0.6593  0.3193 -0.3674
 7054TIP3   OH242576   0.709   3.830   3.831  0.4921  0.1464  0.8357
 7054TIP3    H142577   0.749   3.764   3.774 -1.2217  1.1174 -1.7233
 7054TIP3    H242578   0.615   3.812   3.824 -0.0926  3.1538 -0.5407
 7055TIP3   OH242579   5.977   0.285   4.072 -0.0882 -0.1438  0.0150
 7055TIP3    H142580   6.014   0.301   3.985  1.7650  0.4524  0.8629
 7055TIP3    H242581   6.005   0.360   4.124  0.5759 -1.4558  1.6340
 7056TIP3   OH242582   2.377   4.250   5.975 -0.1809 -0.0642  0.0789
 7056TIP3    H142583   2.424   4.329   6.001  0.4895 -0.4331  0.0178
 7056TIP3    H242584   2.339   4.216   6.056 -0.6727  0.4475  0.0659
 7057TIP3   OH242585   6.473   1.833  15.391  0.4228 -0.6523 -0.3728
 7057TIP3    H142586   6.558   1.841  15.348  0.2600 -0.7922 -0.7261
 7057TIP3    H242587   6.483   1.882  15.473  0.5116  0.2129 -0.8901
 7058TIP3   OH242588   0.659   0.197  12.299 -0.7062  0.6235 -0.4292
 7058TIP3    H142589   0.634   0.256  12.371 -0.2174  0.1991  0.1002
 7058TIP3    H242590   0.652   0.110  12.337  1.0156  0.4679 -0.4322
 7059TIP3   OH242591   5.939   5.633  14.945  0.6532  0.3812 -0.3835
 7059TIP3    H142592   5.934   5.677  15.030  1.8861 -0.5665  0.2256
 7059TIP3    H242593   5.875   5.678  14.890 -0.0818  1.1015  1.0079
 7060TIP3   OH242594   5.748   0.347  11.467  0.0912  0.0677 -0.4016
 7060TIP3    H142595   5.806   0.280  11.431  0.5218  0.9588 -1.4160
 7060TIP3    H242596   5.735   0.321  11.558  3.2778  0.5953  0.3402
 7061TIP3   OH242597   0.761   2.985   2.808 -0.0361 -0.0473  0.0546
 7061TIP3    H142598   0.742   2.892   2.795 -0.6026  0.3001 -2.0436
 7061TIP3    H242599   0.729   3.027   2.728  2.0357  1.6979  0.0483
 7062TIP3   OH242600   1.842   3.690  13.263 -0.6104  0.1185 -0.4006
 7062TIP3    H142601   1.767   3.740  13.294 -0.6698 -0.4240  0.3701
 7062TIP3    H242602   1.811   3.646  13.184 -1.1241 -0.1303 -0.0700
 7063TIP3   OH242603   0.960   4.953   2.167  0.2787  0.4318 -0.0931
 7063TIP3    H142604   0.943   4.973   2.259  2.9957  1.6328  0.2582
 7063TIP3    H242605   0.962   4.857   2.163 -0.3254  0.3580  0.9841
 7064TIP3   OH242606   3.045   4.277  11.293  0.1403  0.1184  0.0540
 7064TIP3    H142607   2.996   4.240  11.366 -1.1415  0.2088 -0.7289
 7064TIP3    H242608   2.997   4.357  11.270  1.2823  0.7940 -0.0460
 7065TIP3   OH242609   2.343   3.999  14.194 -0.0169 -0.3064 -0.3508
 7065TIP3    H142610   2.294   3.919  14.177  0.4729 -0.7927  0.4303
 7065TIP3    H242611   2.433   3.969  14.210 -0.0849  0.2387  1.2508
 7066TIP3   OH242612   2.086   6.441   4.086  0.3208  0.5321 -0.0053
 7066TIP3    H142613   2.095   6.465   4.179  2.1830  1.3470 -0.3617
 7066TIP3    H242614   2.150   6.372   4.073 -0.6748 -0.3223 -0.4613
 7067TIP3   OH242615   3.792   5.519   6.041  0.4507 -0.4412 -0.2944
 7067TIP3    H142616   3.822   5.433   6.012 -1.4631 -0.8895 -1.1387
 7067TIP3    H242617   3.704   5.503   6.077  0.6089  0.9617  0.8424
 7068TIP3   OH242618   1.349   3.042  14.030  0.2510  0.6120  0.3046
 7068TIP3    H142619   1.253   3.043  14.019  0.4260  0.7714 -1.5487
 7068TIP3    H242620   1.370   3.131  14.058 -0.0117  1.0579 -0.8575
 7069TIP3   OH242621   0.220   2.220  13.319 -0.6864 -0.3386  0.5850
 7069TIP3    H142622   0.248   2.230  13.410  1.5771 -0.3088 -0.0483
 7069TIP3    H242623   0.292   2.173  13.277 -0.7231  1.3696 -1.6103
 7070TIP3   OH242624   4.343   5.008   1.478 -0.0192  0.1620 -0.2443
 7070TIP3    H142625   4.284   5.068   1.522  1.2126  2.3244 -1.3609
 7070TIP3    H242626   4.354   4.935   1.539 -4.3761 -0.7996 -0.3329
 7071TIP3   OH242627   3.184   2.105   0.925  0.0064 -0.4980 -0.0902
 7071TIP3    H142628   3.100   2.067   0.952 -0.1278  0.2323  0.5745
 7071TIP3    H242629   3.214   2.048   0.854 -0.7210 -1.1706  0.1160
 7072TIP3   OH242630   5.470   5.298   1.494  0.0005  0.0107 -0.4953
 7072TIP3    H142631   5.532   5.329   1.559 -1.1762  0.3600  0.4877
 7072TIP3    H242632   5.504   5.330   1.410  0.2981  1.5582  0.1969
 7073TIP3   OH242633   6.258   5.127  10.691  0.0975  0.1943  0.0999
 7073TIP3    H142634   6.250   5.060  10.624  0.9539  0.1771 -0.0027
 7073TIP3    H242635   6.226   5.207  10.649  1.2624  0.3287 -0.5804
 7074TIP3   OH242636   1.832   0.670  12.557  0.4466  0.0611 -0.0554
 7074TIP3    H142637   1.789   0.599  12.508 -2.6242  1.4041  0.4784
 7074TIP3    H242638   1.906   0.627  12.600 -0.5639 -2.5801 -0.6986
 7075TIP3   OH242639   1.225   0.512  12.192 -0.0746  0.1197 -0.0609
 7075TIP3    H142640   1.227   0.440  12.255 -3.0643 -0.3391 -0.3406
 7075TIP3    H242641   1.279   0.580  12.232  0.9484 -1.4017  1.3068
 7076TIP3   OH242642   0.065   4.152   0.622  0.2707 -0.3113  0.0150
 7076TIP3    H142643   0.090   4.131   0.532  0.0778  1.1487 -0.3997
 7076TIP3    H242644   0.113   4.232   0.643  0.3901 -0.6809  1.2535
 7077TIP3   OH242645   4.743   0.387   1.514 -0.1215 -0.0930  0.0732
 7077TIP3    H142646   4.807   0.431   1.459 -1.6134 -1.5252 -3.0416
 7077TIP3    H242647   4.745   0.296   1.485 -0.2782 -1.2436  3.2147
 7078TIP3   OH242648   3.415   1.794  13.461  0.6189 -0.0925  0.0298
 7078TIP3    H142649   3.388   1.828  13.375  1.2001  1.1402  0.3065
 7078TIP3    H242650   3.496   1.746  13.443  1.6291  1.5231  0.0858
 7079TIP3   OH242651   3.613   4.932  13.898 -0.3286  0.0057  0.5024
 7079TIP3    H142652   3.595   4.841  13.920 -0.3379 -0.3083 -0.7275
 7079TIP3    H242653   3.527   4.972  13.887 -0.3189  0.0420  0.5557
 7080TIP3   OH242654   2.457   0.102  17.044  0.5647 -0.1627 -0.0002
 7080TIP3    H142655   2.369   0.131  17.066  1.1394  2.2674 -0.5780
 7080TIP3    H242656   2.503   0.098  17.128  0.4082  0.4745  0.1229
 7081TIP3   OH242657   6.249   0.865   2.432  0.1923 -0.0861  0.2278
 7081TIP3    H142658   6.198   0.821   2.364 -1.5681  1.9747  0.1036
 7081TIP3    H242659   6.260   0.799   2.501 -1.3068 -1.0543 -0.4194
 7082TIP3   OH242660   4.678   5.698  14.488  0.1958 -0.2554 -0.4892
 7082TIP3    H142661   4.763   5.704  14.532  0.1402 -1.4695 -0.1708
 7082TIP3    H242662   4.619   5.747  14.545  0.5811  0.1166 -0.4088
 7083TIP3   OH242663   1.737   5.302   4.803 -0.0460 -0.1106 -0.0163
 7083TIP3    H142664   1.652   5.345   4.798  0.5421  1.0081 -1.0865
 7083TIP3    H242665   1.800   5.369   4.775  0.9968 -1.4381 -1.0401
 7084TIP3   OH242666   4.209   1.825   4.683 -0.3151 -0.6332  0.8889
 7084TIP3    H142667   4.285   1.772   4.706  0.0164  0.0927  1.4787
 7084TIP3    H242668   4.228   1.857   4.595  0.5190  0.3251  1.3958
 7085TIP3   OH242669   2.422   0.161   2.554 -0.2740  0.4078  0.1877
 7085TIP3    H142670   2.461   0.203   2.631 -2.1456  1.4263  0.6533
 7085TIP3    H242671   2.377   0.084   2.589  2.1472 -1.4721 -0.5055
 7086TIP3   OH242672   3.128   4.962  12.150 -0.0273 -0.4580 -0.0265
 7086TIP3    H142673   3.167   4.970  12.063 -1.5278 -0.2756 -0.7010
 7086TIP3    H242674   3.181   5.020  12.205  0.3389  0.1634 -1.0142
 7087TIP3   OH242675   3.324   4.072  14.359 -1.3589 -0.3680  0.2813
 7087TIP3    H142676   3.338   4.089  14.451 -2.5901 -0.1559  0.4570
 7087TIP3    H242677   3.333   4.157  14.316  2.3571 -0.9162 -0.3007
 7088TIP3   OH242678   0.743   1.755   4.333 -0.5781  0.1111  0.2918
 7088TIP3    H142679   0.793   1.837   4.332  2.2547 -1.4560  1.1384
 7088TIP3    H242680   0.699   1.755   4.418  0.8289  0.0211  1.0486
 7089TIP3   OH242681   4.305   6.229  14.433  0.0732  0.0500  0.4468
 7089TIP3    H142682   4.229   6.217  14.490 -0.8657  3.2594  0.0261
 7089TIP3    H242683   4.268   6.262  14.351  1.7304 -0.9488 -0.7534
 7090TIP3   OH242684   2.912   2.344   5.088 -0.0958  0.0469  0.2245
 7090TIP3    H142685   2.853   2.416   5.062  0.0114  0.2433  0.5192
 7090TIP3    H242686   2.906   2.282   5.016  0.7206  0.8901 -0.6023
 7091TIP3   OH242687   1.880   6.443   5.513 -0.4582  0.1154  0.8242
 7091TIP3    H142688   1.838   6.386   5.448 -0.8331  2.9026 -1.6044
 7091TIP3    H242689   1.964   6.466   5.474  0.3897 -0.0118  2.4970
 7092TIP3   OH242690   3.047   5.777  12.415  0.8160 -0.2036 -0.4570
 7092TIP3    H142691   3.068   5.842  12.482 -0.1562 -0.7016  0.3520
 7092TIP3    H242692   3.058   5.824  12.332  0.9835  0.7278  0.0784
 7093TIP3   OH242693   6.394   3.026   5.257  0.0842 -0.7254 -0.3535
 7093TIP3    H142694   6.479   2.985   5.275 -1.2848 -3.9024 -0.4946
 7093TIP3    H242695   6.340   3.004   5.333 -0.4456  2.0735  0.1911
 7094TIP3   OH242696   3.537   3.720  14.780 -0.1643 -0.1556  0.2682
 7094TIP3    H142697   3.574   3.780  14.844  0.1941 -2.1641  2.0850
 7094TIP3    H242698   3.571   3.634  14.806 -1.9774 -1.3774 -1.1564
 7095TIP3   OH242699   2.954   6.646   5.271  0.6045  0.3468  0.1976
 7095TIP3    H142700   3.009   6.577   5.233  0.0825  0.1884 -0.2891
 7095TIP3    H242701   2.902   6.679   5.197 -0.3402  0.1234  0.7346
 7096TIP3   OH242702   4.461   2.155   5.108  0.1124 -0.1636 -0.5540
 7096TIP3    H142703   4.554   2.178   5.106  1.0678 -3.1074  2.0062
 7096TIP3    H242704   4.434   2.173   5.198 -1.3360 -0.9744 -0.8011
 7097TIP3   OH242705   6.015   6.718  13.003 -0.3868 -0.3222  0.1549
 7097TIP3    H142706   6.023   6.704  13.097  0.0921 -1.7623 -0.0706
 7097TIP3    H242707   5.963   6.644  12.972 -2.5101  1.3237 -0.4340
 7098TIP3   OH242708   4.316   2.761  12.936 -0.4325 -0.0588 -0.8035
 7098TIP3    H142709   4.369   2.828  12.980 -0.8241 -0.3358  0.1231
 7098TIP3    H242710   4.376   2.720  12.874  0.7121 -0.8978  0.7692
 7099TIP3   OH242711   6.201   4.693   3.723 -0.7413 -0.2930 -1.1249
 7099TIP3    H142712   6.220   4.668   3.814 -1.6390  0.7092 -0.6361
 7099TIP3    H242713   6.126   4.638   3.699 -3.4111  2.3843  0.3087
 7100TIP3   OH242714   4.763   1.975  10.207  0.1162  0.4083 -0.9048
 7100TIP3    H142715   4.811   1.906  10.161  0.0268 -0.2462 -0.0282
 7100TIP3    H242716   4.789   2.055  10.161 -0.7364 -0.2981 -2.7436
 7101TIP3   OH242717   5.988   5.943   1.423  0.1721 -0.1414  0.2994
 7101TIP3    H142718   5.970   5.951   1.516  2.0558 -2.5297  0.9763
 7101TIP3    H242719   5.938   5.865   1.396  1.0103 -0.4995 -0.2615
 7102TIP3   OH242720   4.109   1.193   0.505 -0.1431 -0.4717  0.2737
 7102TIP3    H142721   4.081   1.148   0.426  0.6131 -2.8446  1.2567
 7102TIP3    H242722   4.030   1.199   0.559 -0.2223 -0.7557  0.1895
 7103TIP3   OH242723   4.299   0.613  12.753  0.4929 -0.5311 -0.4880
 7103TIP3    H142724   4.238   0.540  12.762  1.5754 -1.4875 -0.6326
 7103TIP3    H242725   4.254   0.675  12.696 -0.6555 -0.8397  0.0428
 7104TIP3   OH242726   4.048   2.177  13.490  0.1631 -0.2673  0.2095
 7104TIP3    H142727   4.031   2.086  13.465  1.1756 -0.8913  1.6807
 7104TIP3    H242728   3.965   2.207  13.527  0.0840 -0.9025  0.5701
 7105TIP3   OH242729   3.261   6.077  12.209  0.2728  0.4878 -0.2172
 7105TIP3    H142730   3.328   6.048  12.148 -0.3347  2.0906 -1.7176
 7105TIP3    H242731   3.311   6.116  12.282  0.9819 -0.4172 -0.1992
 7106TIP3   OH242732   0.066   1.729   2.081  0.6266  0.3412  0.0991
 7106TIP3    H142733  -0.018   1.697   2.112 -0.2786  4.1877  2.2742
 7106TIP3    H242734   0.046   1.784   2.006  1.2090  1.0542  0.4497
 7107TIP3   OH242735   0.504   5.884   0.324  0.3607 -0.0092  0.2947
 7107TIP3    H142736   0.488   5.953   0.260  2.2920 -0.0529 -0.2957
 7107TIP3    H242737   0.463   5.916   0.405 -0.0882  1.1086 -0.3540
 7108TIP3   OH242738   5.440   1.448   2.381 -0.4122  0.4244  0.0604
 7108TIP3    H142739   5.483   1.364   2.369 -1.2144 -0.0685  0.5431
 7108TIP3    H242740   5.370   1.431   2.444 -0.4234  1.5110  0.3612
 7109TIP3   OH242741   5.287   1.191   0.349 -0.3070 -0.0882  0.4290
 7109TIP3    H142742   5.310   1.253   0.418 -1.5708  0.8105  0.0736
 7109TIP3    H242743   5.370   1.149   0.325  0.5518  1.3690  0.7677
 7110TIP3   OH242744   3.915   6.197  12.223  0.1707 -0.6170  0.2127
 7110TIP3    H142745   3.949   6.142  12.294 -1.2600 -1.2649  0.4338
 7110TIP3    H242746   3.979   6.268  12.215  1.4952 -1.7078  0.6617
 7111TIP3   OH242747   6.499   0.663   5.649  0.7633  0.2359 -0.3259
 7111TIP3    H142748   6.541   0.717   5.582 -0.8352 -0.7649 -2.2309
 7111TIP3    H242749   6.555   0.586   5.657  0.8519  0.2636 -0.6745
 7112TIP3   OH242750   1.320   4.746   1.104 -1.0536  0.0398  0.3165
 7112TIP3    H142751   1.235   4.703   1.106 -0.4998 -1.1057 -0.1493
 7112TIP3    H242752   1.319   4.797   1.022 -2.0004  1.5810  1.2386
 7113TIP3   OH242753   4.653   1.266   0.362 -0.0842 -0.3100 -0.4180
 7113TIP3    H142754   4.688   1.192   0.311  3.1707  0.6408  0.1543
 7113TIP3    H242755   4.646   1.337   0.299 -0.4784 -0.3633 -0.4317
 7114TIP3   OH242756   0.110   2.811   1.368  0.0092  0.2433  0.6269
 7114TIP3    H142757   0.096   2.725   1.406  0.5453 -0.1854 -0.1320
 7114TIP3    H242758   0.047   2.868   1.414  0.4252 -0.3091  1.9246
 7115TIP3   OH242759   3.538   3.873   2.817 -0.5209 -0.1814  0.2554
 7115TIP3    H142760   3.536   3.939   2.748  0.0301 -0.0252  0.3876
 7115TIP3    H242761   3.627   3.836   2.812 -0.4767 -0.1636  0.8858
 7116TIP3   OH242762   6.122   5.945   6.089  0.4199  0.5856 -0.4951
 7116TIP3    H142763   6.208   5.908   6.108  1.0483  2.3071  0.2823
 7116TIP3    H242764   6.090   5.894   6.015  1.8989 -0.4086 -0.5013
 7117TIP3   OH242765   1.799   1.088  12.840  0.0762 -0.4572  0.0056
 7117TIP3    H142766   1.845   1.028  12.782  1.0959  0.0037  0.3160
 7117TIP3    H242767   1.866   1.122  12.899 -0.6638  0.2205  0.4926
 7118TIP3   OH242768   2.638   4.203  11.903  0.5643  0.3131 -0.5432
 7118TIP3    H142769   2.544   4.187  11.900  0.3664  1.4687 -0.5587
 7118TIP3    H242770   2.651   4.256  11.981  1.6095 -2.3522  1.2312
 7119TIP3   OH242771   5.764   4.211  14.882  0.7730  0.6988 -0.0271
 7119TIP3    H142772   5.812   4.199  14.801  0.5416 -1.7251  0.1068
 7119TIP3    H242773   5.685   4.259  14.857  2.4099  3.2969 -0.5101
 7120TIP3   OH242774   5.583   3.870  13.390 -0.6516 -0.2847 -0.3727
 7120TIP3    H142775   5.594   3.795  13.331  0.2961 -1.0471  0.7447
 7120TIP3    H242776   5.489   3.882  13.395 -0.8061 -1.1677 -0.8599
 7121TIP3   OH242777   0.702   5.326   0.866  0.2807 -0.2491  0.2226
 7121TIP3    H142778   0.753   5.319   0.785  0.5047  1.1614  0.2086
 7121TIP3    H242779   0.761   5.370   0.927 -1.0996  2.0508 -0.0047
 7122TIP3   OH242780   0.661   1.011   1.434  0.2399 -0.1833  0.1525
 7122TIP3    H142781   0.716   1.089   1.436  0.6345 -0.4657  1.4125
 7122TIP3    H242782   0.575   1.043   1.406  0.0987  0.9211  1.7399
 7123TIP3   OH242783   0.768   6.258   5.668 -0.3679 -0.4225  0.1160
 7123TIP3    H142784   0.768   6.331   5.731 -0.2886  0.1316 -0.5091
 7123TIP3    H242785   0.775   6.180   5.722 -3.6788 -0.2280  1.1072
 7124TIP3   OH242786   4.282   5.568  14.519 -0.3197 -0.1648 -0.6644
 7124TIP3    H142787   4.213   5.503  14.509 -0.1151 -0.8095  1.5990
 7124TIP3    H242788   4.268   5.605  14.606  1.3203  0.7368 -0.7422
 7125TIP3   OH242789   4.288   2.147   3.813 -0.5664  0.1591  0.0520
 7125TIP3    H142790   4.277   2.224   3.757 -2.0321  0.1918  0.3221
 7125TIP3    H242791   4.327   2.081   3.756  0.1845  0.9272 -0.3392
 7126TIP3   OH242792   0.240   2.305  13.884 -0.0791  0.6367  0.1806
 7126TIP3    H142793   0.247   2.378  13.823  0.7328 -0.4879 -1.1350
 7126TIP3    H242794   0.239   2.227  13.828  0.0267 -0.4163  1.5810
 7127TIP3   OH242795   0.317   2.945  13.254 -0.1992  0.0538 -0.2500
 7127TIP3    H142796   0.392   2.898  13.288 -0.3040 -0.5833 -0.8844
 7127TIP3    H242797   0.354   3.018  13.204 -0.0295  0.2468  0.1500
 7128TIP3   OH242798   4.169   2.607   1.602  0.1079  0.4016 -0.0683
 7128TIP3    H142799   4.252   2.568   1.630  1.3837  1.6540 -1.8251
 7128TIP3    H242800   4.186   2.701   1.604 -1.6198  0.7307  0.4161
 7129TIP3   OH242801   2.713   5.087   3.780  0.1697 -0.6989 -0.0752
 7129TIP3    H142802   2.771   5.156   3.748  0.1242 -0.8125 -0.4003
 7129TIP3    H242803   2.771   5.013   3.798  0.0970 -0.8852 -0.6083
 7130TIP3   OH242804   6.631   3.043  12.681  0.2664 -0.0315  0.4542
 7130TIP3    H142805   6.597   3.110  12.622  1.0414 -2.1835 -2.7221
 7130TIP3    H242806   6.698   3.087  12.733  0.2223  1.8137 -0.9675
 7131TIP3   OH242807   5.920   5.007  14.510 -0.6007  0.3251  0.2443
 7131TIP3    H142808   5.869   5.066  14.566  0.0477 -1.6554  3.1747
 7131TIP3    H242809   5.987   4.971  14.569  1.1690 -0.7674 -2.2673
 7132TIP3   OH242810   5.709   5.116  15.449 -1.1312  0.0851  0.1721
 7132TIP3    H142811   5.724   5.041  15.506  1.4667  0.8788  0.6137
 7132TIP3    H242812   5.639   5.166  15.492 -0.8861 -0.5800  1.3776
 7133TIP3   OH242813   4.714   5.116   0.924  0.2559 -0.1572  0.8236
 7133TIP3    H142814   4.756   5.191   0.882  0.9486 -0.5860  0.7358
 7133TIP3    H242815   4.703   5.142   1.015  0.9671 -0.1359  0.9075
 7134TIP3   OH242816   3.407   2.328  16.421  0.3768  0.4269 -0.0949
 7134TIP3    H142817   3.439   2.276  16.348 -1.0857 -0.6576 -0.0229
 7134TIP3    H242818   3.483   2.343  16.477  1.0145 -0.8647 -0.5962
 7135TIP3   OH242819   1.441   0.819   0.872 -0.4965 -0.0784 -0.2011
 7135TIP3    H142820   1.531   0.843   0.894 -0.3264 -0.9297  0.0417
 7135TIP3    H242821   1.431   0.730   0.904 -1.2155 -0.2374 -0.8436
 7136TIP3   OH242822   6.313   3.285  14.743 -0.6314  0.4676 -0.7706
 7136TIP3    H142823   6.232   3.266  14.695 -0.4219 -0.0392 -0.9364
 7136TIP3    H242824   6.374   3.316  14.677 -0.6971  0.8835 -0.6400
 7137TIP3   OH242825   3.472   6.345   5.156 -0.2507 -0.5919 -0.1637
 7137TIP3    H142826   3.395   6.299   5.190 -0.2228 -0.0817  0.6011
 7137TIP3    H242827   3.436   6.410   5.096 -0.4931  0.2082  0.8238
 7138TIP3   OH242828   0.459   1.644  13.700  0.6585 -0.5569 -0.1608
 7138TIP3    H142829   0.374   1.686  13.687  1.4605  0.5296 -2.5655
 7138TIP3    H242830   0.466   1.583  13.627  3.1660  1.6990 -2.0340
 7139TIP3   OH242831   6.283   6.310   1.107  0.4618 -0.1320  0.6769
 7139TIP3    H142832   6.290   6.350   1.194  1.6900  0.7905  0.1862
 7139TIP3    H242833   6.232   6.230   1.121 -0.7509  0.8158  1.9588
 7140TIP3   OH242834   1.240   5.199   1.371  0.2626 -0.0251  0.1802
 7140TIP3    H142835   1.241   5.206   1.467  0.3454  2.1983  0.0738
 7140TIP3    H242836   1.249   5.105   1.354  1.2660 -0.3922  2.3250
 7141TIP3   OH242837   3.694   5.370   5.345 -0.3127  0.1793 -0.1493
 7141TIP3    H142838   3.758   5.365   5.416  0.1143  1.3908 -0.4194
 7141TIP3    H242839   3.701   5.286   5.300  0.0172 -0.2743  0.7315
 7142TIP3   OH242840   6.521   5.336   5.831  0.6680  0.1910  0.1160
 7142TIP3    H142841   6.614   5.354   5.839  0.5523  0.5529  0.6647
 7142TIP3    H242842   6.480   5.384   5.903  0.2480 -1.4616  1.0447
 7143TIP3   OH242843   1.258   6.135   5.823 -0.4171 -0.1212  0.0704
 7143TIP3    H142844   1.292   6.045   5.819 -0.5303 -0.1536 -0.2085
 7143TIP3    H242845   1.307   6.176   5.894 -0.6785 -0.5373  0.5015
 7144TIP3   OH242846   6.357   2.714   2.036  0.0087  0.3338 -0.5316
 7144TIP3    H142847   6.329   2.785   1.979  0.0352  1.1261  0.4187
 7144TIP3    H242848   6.292   2.645   2.022 -0.5761  0.9163 -0.7522
 7145TIP3   OH242849   1.893   4.040  12.645  0.4707  0.0037 -0.0034
 7145TIP3    H142850   1.934   4.104  12.586 -0.4836  0.4899 -0.1590
 7145TIP3    H242851   1.921   3.955  12.612  1.4307  0.3176 -0.0380
 7146TIP3   OH242852   2.061   3.836  11.743 -0.1028 -0.0675  0.2680
 7146TIP3    H142853   2.117   3.810  11.817 -0.4015  1.1332  0.9512
 7146TIP3    H242854   2.119   3.887  11.686  0.4421 -2.0134 -0.9865
 7147TIP3   OH242855   3.432   5.392  14.239 -0.9480 -0.0380  0.4900
 7147TIP3    H142856   3.466   5.337  14.169 -0.9160  0.3217  0.2207
 7147TIP3    H242857   3.337   5.387  14.229 -0.9638 -0.5528  0.8627
 7148TIP3   OH242858   4.178   0.582   2.624  0.7720  0.5838  0.2834
 7148TIP3    H142859   4.144   0.591   2.535 -1.6117 -0.1433  1.0486
 7148TIP3    H242860   4.204   0.670   2.650 -1.3700  1.3835 -0.1003
 7149TIP3   OH242861   1.711   1.748   1.218  0.2973 -0.6366  0.3472
 7149TIP3    H142862   1.763   1.669   1.209  0.1698 -1.0614  2.6430
 7149TIP3    H242863   1.772   1.813   1.254  0.1977  0.0843 -0.7407
 7150TIP3   OH242864   4.618   3.595  10.928 -0.0460 -0.2804  0.0401
 7150TIP3    H142865   4.711   3.584  10.951  0.6629  0.5033 -2.2156
 7150TIP3    H242866   4.580   3.508  10.938  1.3192 -0.9676 -0.5472
 7151TIP3   OH242867   3.858   1.101  15.324 -0.0396  0.1058  0.2957
 7151TIP3    H142868   3.919   1.034  15.356 -1.9543 -2.5845 -1.2536
 7151TIP3    H242869   3.884   1.116  15.233  0.3422  1.5076  0.6140
 7152TIP3   OH242870   1.904   4.186  13.639  0.1054 -0.0066  0.4604
 7152TIP3    H142871   1.868   4.147  13.559  0.3805 -2.3592  1.3789
 7152TIP3    H242872   1.956   4.260  13.609 -0.8776 -0.0115 -1.4003
 7153TIP3   OH242873   2.881   3.314  15.757 -0.0625 -0.5280 -0.2818
 7153TIP3    H142874   2.859   3.280  15.670  0.0080 -0.9979 -0.1140
 7153TIP3    H242875   2.802   3.360  15.786 -0.7712 -2.0257  0.2294
 7154TIP3   OH242876   5.363   4.590  13.195  0.0350  0.1757  0.1949
 7154TIP3    H142877   5.302   4.529  13.152  1.3339 -0.9180 -0.1598
 7154TIP3    H242878   5.439   4.536  13.217  0.6744  1.4028  1.0861
 7155TIP3   OH242879   2.750   3.346  13.953  0.3751 -0.9749  0.2259
 7155TIP3    H142880   2.679   3.332  13.891  1.9552 -0.7513 -1.7666
 7155TIP3    H242881   2.735   3.281  14.022 -1.6436 -1.0229 -0.1917
 7156TIP3   OH242882   4.997   1.278  11.511  0.0510  0.1033  0.3254
 7156TIP3    H142883   5.011   1.218  11.438 -1.9821  0.1184 -0.1361
 7156TIP3    H242884   4.967   1.359  11.471  1.3243  0.9631  1.0481
 7157TIP3   OH242885   4.638   5.348   1.265  0.0883  0.2020  0.0560
 7157TIP3    H142886   4.687   5.429   1.257  1.4061 -0.6750 -1.4076
 7157TIP3    H242887   4.702   5.279   1.245 -1.3271 -1.0959 -0.2441
 7158TIP3   OH242888   6.515   1.875  13.744  0.8400 -0.4223  0.4317
 7158TIP3    H142889   6.421   1.862  13.732  0.7622 -0.4607  1.0343
 7158TIP3    H242890   6.523   1.906  13.835  1.4291 -0.6361  0.4545
 7159TIP3   OH242891   3.795   6.694  13.224  0.5561  0.4856  0.0242
 7159TIP3    H142892   3.809   6.603  13.251  0.3092  0.1171 -1.0563
 7159TIP3    H242893   3.862   6.743  13.271 -0.4848  0.0418  2.1089
 7160TIP3   OH242894   5.330   1.235   2.880  0.6397 -0.3303 -0.3761
 7160TIP3    H142895   5.235   1.226   2.874  0.7143 -0.5865 -1.3078
 7160TIP3    H242896   5.344   1.328   2.897  0.2920  0.3161 -3.0808
 7161TIP3   OH242897   5.897   3.197   1.991 -0.6251 -0.1021  0.1581
 7161TIP3    H142898   5.891   3.125   2.054  1.6050 -0.3396  0.1900
 7161TIP3    H242899   5.923   3.273   2.043 -1.7195  0.4350 -0.0620
 7162TIP3   OH242900   6.479   2.484   1.300 -0.3636 -0.8652 -0.4875
 7162TIP3    H142901   6.508   2.569   1.267  2.2784 -1.3661  0.3126
 7162TIP3    H242902   6.412   2.505   1.365 -0.0454  0.5928 -0.5947
 7163TIP3   OH242903   3.828   6.405  16.495 -0.0400  0.6061  0.3982
 7163TIP3    H142904   3.738   6.435  16.497  0.0930  0.9907  0.6432
 7163TIP3    H242905   3.880   6.481  16.522  0.3095  0.2058  0.8787
 7164TIP3   OH242906   6.470   3.288   5.209  0.2348  0.3516 -0.2050
 7164TIP3    H142907   6.402   3.352   5.228  0.3958 -0.2768  2.9166
 7164TIP3    H242908   6.423   3.205   5.197  0.2977  0.3567 -0.5031
 7165TIP3   OH242909   5.476   2.422   4.845  0.7310 -0.0355 -0.1092
 7165TIP3    H142910   5.532   2.371   4.904  1.2152 -0.1311 -0.6353
 7165TIP3    H242911   5.519   2.507   4.840  1.2524 -0.3412 -1.0878
 7166TIP3   OH242912   2.484   2.263  14.866 -0.1611  0.6873 -0.0109
 7166TIP3    H142913   2.526   2.348  14.856 -0.7138  0.7445 -2.4744
 7166TIP3    H242914   2.395   2.276  14.836 -0.6508 -0.4726  0.8490
 7167TIP3   OH242915   3.054   0.739   4.438 -0.0084 -0.2398  1.2097
 7167TIP3    H142916   3.037   0.645   4.446 -2.6174  0.0424 -0.0731
 7167TIP3    H242917   3.040   0.758   4.345  0.7720  1.3923  1.3869
 7168TIP3   OH242918   6.347   4.007  16.644 -0.8832 -0.8626 -0.8995
 7168TIP3    H142919   6.322   4.006  16.552  0.7534 -1.7152 -1.3837
 7168TIP3    H242920   6.331   3.917  16.674 -2.0166 -0.4327 -0.1495
 7169TIP3   OH242921   5.840   4.126  15.879 -0.0337  0.0060 -0.2269
 7169TIP3    H142922   5.853   4.214  15.915  0.4260 -0.6044  1.1785
 7169TIP3    H242923   5.750   4.103  15.904 -0.2498  0.1809 -0.8367
 7170TIP3   OH242924   5.583   1.292  11.711  0.1543  0.4450 -0.0909
 7170TIP3    H142925   5.605   1.374  11.756  1.1776  0.5761 -0.7937
 7170TIP3    H242926   5.505   1.313  11.660 -0.2966  0.6332  0.6591
 7171TIP3   OH242927   2.575   6.253  15.858  0.4992  0.4378  0.2029
 7171TIP3    H142928   2.512   6.312  15.817 -0.5160  0.3189  1.5291
 7171TIP3    H242929   2.586   6.182  15.795  1.3375  1.7222 -1.1849
 7172TIP3   OH242930   4.722   5.155   3.686 -0.2138  0.1803 -0.1999
 7172TIP3    H142931   4.776   5.172   3.608  0.3974  0.1456  0.2070
 7172TIP3    H242932   4.718   5.239   3.731 -1.3867  0.4451 -0.7582
 7173TIP3   OH242933   4.630   6.363  13.029  0.0489 -0.5961 -0.5038
 7173TIP3    H142934   4.570   6.314  12.972 -0.3071  0.6640 -1.2392
 7173TIP3    H242935   4.679   6.420  12.970  1.6490 -1.2333  0.1436
 7174TIP3   OH242936   0.802   5.691   0.819  1.1490 -0.0733 -0.0789
 7174TIP3    H142937   0.728   5.691   0.880  0.3679  0.3084 -0.9942
 7174TIP3    H242938   0.879   5.690   0.875  0.4620  0.8883  0.9416
 7175TIP3   OH242939   1.404   0.806  16.758 -0.8224  0.1455  0.0779
 7175TIP3    H142940   1.309   0.797  16.753 -0.7144 -0.6426 -0.7456
 7175TIP3    H242941   1.432   0.734  16.814 -0.6420 -0.0628 -0.2808
 7176TIP3   OH242942   1.888   3.344  13.708  0.4221 -0.8616 -0.0821
 7176TIP3    H142943   1.891   3.252  13.684 -0.5415 -0.6920 -0.9273
 7176TIP3    H242944   1.855   3.388  13.630 -1.5149 -0.1158  1.0862
 7177TIP3   OH242945   5.140   4.695  11.452  0.5841 -0.3725  0.3572
 7177TIP3    H142946   5.058   4.735  11.424  0.3472 -0.7849  0.4613
 7177TIP3    H242947   5.117   4.605  11.475  1.0318 -0.4414  0.5498
 7178TIP3   OH242948   5.181   6.061  13.739  0.2442 -0.5286  0.1195
 7178TIP3    H142949   5.088   6.085  13.743  0.2750 -0.6190  2.8338
 7178TIP3    H242950   5.222   6.131  13.689 -0.6719  1.8157  2.4507
 7179TIP3   OH242951   1.316   6.459  15.458 -0.3225 -0.2024 -0.3357
 7179TIP3    H142952   1.376   6.407  15.512  0.0688 -0.1392 -0.7070
 7179TIP3    H242953   1.353   6.455  15.370 -2.5346 -2.8818 -1.3146
 7180TIP3   OH242954   4.852   5.285   3.498 -0.4167 -0.1910 -0.2480
 7180TIP3    H142955   4.882   5.374   3.481 -3.3830  0.9698 -0.0022
 7180TIP3    H242956   4.846   5.244   3.412  0.3535  0.0232 -0.4140
 7181TIP3   OH242957   2.802   6.306   4.781 -0.9824  0.1453  0.0015
 7181TIP3    H142958   2.847   6.362   4.844  1.1195 -1.4271 -0.0087
 7181TIP3    H242959   2.784   6.225   4.829 -1.8751 -0.0571 -0.6372
 7182TIP3   OH242960   4.408   2.001   1.314 -0.1040  0.2629  0.7803
 7182TIP3    H142961   4.317   1.983   1.290 -0.3350  1.4598  0.6854
 7182TIP3    H242962   4.416   1.969   1.403 -0.3422 -0.7137  0.4664
 7183TIP3   OH242963   3.463   6.478  11.803  0.2241  0.4783 -0.5672
 7183TIP3    H142964   3.438   6.467  11.712  3.6586  1.6383 -1.7961
 7183TIP3    H242965   3.497   6.393  11.830  0.7673  0.5850 -0.9173
 7184TIP3   OH242966   5.561   2.255   5.277 -0.1342 -0.2422 -0.2704
 7184TIP3    H142967   5.519   2.296   5.201 -0.2707  0.2463  0.0664
 7184TIP3    H242968   5.491   2.245   5.341  0.1702  0.1843  0.1307
 7185TIP3   OH242969   6.521   3.363  13.714  0.3577  0.0248  0.7416
 7185TIP3    H142970   6.550   3.372  13.623  0.7674 -1.5828  0.6806
 7185TIP3    H242971   6.502   3.270  13.723 -0.5896  0.3291  2.0449
 7186TIP3   OH242972   5.563   2.870  14.742 -0.2144  0.2374 -0.2061
 7186TIP3    H142973   5.578   2.801  14.807 -3.0530 -1.0888 -0.7929
 7186TIP3    H242974   5.587   2.951  14.786  1.2477 -0.9347  1.2428
 7187TIP3   OH242975   6.192   2.454  11.676 -0.0536  0.1336  0.0790
 7187TIP3    H142976   6.114   2.495  11.711 -0.4768  0.1960 -0.9028
 7187TIP3    H242977   6.189   2.363  11.708 -1.0755 -0.1520 -0.7826
 7188TIP3   OH242978   5.076   5.019   5.144 -0.4971  0.4672 -0.6157
 7188TIP3    H142979   5.103   5.111   5.144 -1.1700  0.6840  0.4598
 7188TIP3    H242980   5.154   4.971   5.118  0.2554  1.2540  0.1311
 7189TIP3   OH242981   4.260   3.508  15.029  0.4147  0.0888  0.2860
 7189TIP3    H142982   4.263   3.580  14.967 -1.2182 -0.5726 -0.6331
 7189TIP3    H242983   4.239   3.431  14.976  0.1466 -0.7141  1.4985
 7190TIP3   OH242984   2.544   6.170  11.506  0.1572 -0.2090 -0.3875
 7190TIP3    H142985   2.496   6.165  11.422  1.4317  1.0701 -1.2205
 7190TIP3    H242986   2.594   6.251  11.501 -0.7463  0.6010  2.2057
 7191TIP3   OH242987   5.166   4.873   0.957  0.1317 -0.0582 -0.1055
 7191TIP3    H142988   5.220   4.940   0.998  0.2822  0.0136 -0.4237
 7191TIP3    H242989   5.174   4.797   1.015  1.1170 -0.2739 -0.5059
 7192TIP3   OH242990   4.134   2.332  14.951 -0.2206 -0.1331 -0.1377
 7192TIP3    H142991   4.208   2.274  14.968 -1.1086 -0.9993  0.8731
 7192TIP3    H242992   4.169   2.420  14.963  0.6523 -0.5292  0.3032
 7193TIP3   OH242993   0.841   2.866   4.648  0.2575  0.6823  0.5217
 7193TIP3    H142994   0.774   2.886   4.583  0.9073 -1.8967 -1.1030
 7193TIP3    H242995   0.923   2.867   4.600  0.8715 -0.3471  1.4798
 7194TIP3   OH242996   0.821   4.502   2.827 -0.4783 -0.0149 -0.4137
 7194TIP3    H142997   0.728   4.512   2.806 -0.6948 -0.2579  0.4116
 7194TIP3    H242998   0.835   4.408   2.828 -0.1235  0.0262 -0.9245
 7195TIP3   OH242999   5.033   2.041  13.809  0.2023  0.4073 -0.1052
 7195TIP3    H143000   4.945   2.004  13.821  0.0844  0.5489 -0.5297
 7195TIP3    H243001   5.067   2.049  13.898 -1.9823  4.7258  0.5802
 7196TIP3   OH243002   3.256   3.243  13.526  0.1592  0.0816 -0.3899
 7196TIP3    H143003   3.290   3.272  13.611  1.2411  0.5655 -0.9561
 7196TIP3    H243004   3.219   3.322  13.486  0.4527  0.0573 -0.7221
 7197TIP3   OH243005   5.448   0.491  16.931  0.3708 -0.0889  0.1043
 7197TIP3    H143006   5.377   0.518  16.873 -1.4134  1.0653  2.6467
 7197TIP3    H243007   5.508   0.565  16.931 -0.1598  0.3503  0.4962
 7198TIP3   OH243008   0.463   2.274   2.113 -0.1610 -0.0332 -0.2225
 7198TIP3    H143009   0.397   2.231   2.167 -0.5992  0.5101 -0.3116
 7198TIP3    H243010   0.539   2.216   2.116 -0.0783  0.1237  1.2182
 7199TIP3   OH243011   2.527   0.745   4.924 -0.1387  0.3596 -0.2501
 7199TIP3    H143012   2.522   0.809   4.995 -0.0987  1.2878 -1.0623
 7199TIP3    H243013   2.553   0.796   4.847  0.2220 -0.6882 -0.8528
 7200TIP3   OH243014   1.656   4.214   2.067  0.3077 -0.8214 -0.0237
 7200TIP3    H143015   1.660   4.170   1.982  2.6910  0.3461 -0.6047
 7200TIP3    H243016   1.744   4.205   2.103  0.1350  1.1168  1.0359
 7201TIP3   OH243017   1.821   2.027  16.924  0.0339 -0.8348  0.2174
 7201TIP3    H143018   1.857   1.940  16.905 -0.3054 -0.9741  0.2058
 7201TIP3    H243019   1.736   2.028  16.880 -0.4382 -0.8861  1.1054
 7202TIP3   OH243020   3.367   6.552   1.222 -0.2172 -0.7463 -0.1889
 7202TIP3    H143021   3.366   6.519   1.311 -0.6152  0.8399  0.4193
 7202TIP3    H243022   3.280   6.531   1.188 -1.4291  1.8581  1.0741
 7203TIP3   OH243023   5.751   3.982  13.851  0.2436  0.5260  0.2098
 7203TIP3    H143024   5.757   4.068  13.894 -2.3508  1.4623 -1.0547
 7203TIP3    H243025   5.683   3.936  13.900 -1.2409  0.7988 -1.4826
 7204TIP3   OH243026   4.026   3.369   1.420 -0.1438 -0.1007  0.3584
 7204TIP3    H143027   4.095   3.432   1.397 -0.5462  0.2400  0.0636
 7204TIP3    H243028   4.069   3.284   1.412 -0.2446 -0.0196 -1.7746
 7205TIP3   OH243029   6.761   2.364  12.783  0.0625 -0.3623 -0.7895
 7205TIP3    H143030   6.824   2.322  12.725  0.6697 -0.3217 -0.1733
 7205TIP3    H243031   6.793   2.344  12.871 -0.0035  0.8411 -0.4812
 7206TIP3   OH243032   4.114   0.856  13.059 -0.0576  0.4722 -0.4872
 7206TIP3    H143033   4.151   0.784  13.008 -0.8557  0.1183 -0.5877
 7206TIP3    H243034   4.184   0.921  13.063  1.4410 -1.1191  1.3165
 7207TIP3   OH243035   4.963   4.632   2.865  0.2320  0.5733  0.0792
 7207TIP3    H143036   4.970   4.656   2.957 -0.1496  2.3164 -0.2947
 7207TIP3    H243037   5.023   4.692   2.820  0.4520 -0.2830 -0.7993
 7208TIP3   OH243038   6.386   1.248   1.800  0.2023 -0.4276  0.7610
 7208TIP3    H143039   6.368   1.223   1.709 -1.4792  1.0543  0.6148
 7208TIP3    H243040   6.399   1.343   1.796 -1.1186 -0.1434  2.1838
 7209TIP3   OH243041   4.750   2.227  16.627 -0.2717 -1.0687 -0.2128
 7209TIP3    H143042   4.711   2.145  16.597 -0.8326 -1.8965  2.5668
 7209TIP3    H243043   4.839   2.225  16.591 -0.7164 -2.1925 -1.3231
 7210TIP3   OH243044   6.096   5.313  13.156 -0.5403  0.1276  0.0906
 7210TIP3    H143045   6.054   5.365  13.087  0.9529  0.7506 -0.3897
 7210TIP3    H243046   6.177   5.282  13.117 -0.9181 -1.7476  0.7182
 7211TIP3   OH243047   4.119   6.647  12.144 -0.8129  0.7142 -0.0447
 7211TIP3    H143048   4.196   6.703  12.134  0.0663 -0.6808 -1.6822
 7211TIP3    H243049   4.146   6.578  12.204 -1.3518  1.1460  0.7008
 7212TIP3   OH243050   4.278   0.192  15.640 -0.2226  0.2617  0.3255
 7212TIP3    H143051   4.318   0.239  15.566  1.1101  0.4946  1.1583
 7212TIP3    H243052   4.320   0.106  15.638 -0.5057  0.1211  0.5399
 7213TIP3   OH243053   4.845   2.358   0.235  0.0906 -0.2426 -0.3170
 7213TIP3    H143054   4.824   2.336   0.144  0.5716 -0.3712 -0.3989
 7213TIP3    H243055   4.760   2.369   0.277 -0.1518  1.4205 -1.1670
 7214TIP3   OH243056   2.349   0.022   0.614 -0.4252  0.1365  0.3569
 7214TIP3    H143057   2.278   0.085   0.623 -0.1100  0.4906  0.3835
 7214TIP3    H243058   2.307  -0.056   0.579 -0.7376  0.5266 -0.1572
 7215TIP3   OH243059   1.667   1.634   0.951 -0.4020 -0.7083  0.0144
 7215TIP3    H143060   1.680   1.706   1.012  0.8481 -0.9866  0.0850
 7215TIP3    H243061   1.608   1.670   0.885 -3.1620 -0.8955  2.1890
 7216TIP3   OH243062   0.929   6.306  11.803  0.1272 -0.3982  0.1512
 7216TIP3    H143063   0.892   6.381  11.850  1.0269  0.6912 -0.8242
 7216TIP3    H243064   0.934   6.237  11.869 -2.4539 -0.2385  0.6251
 7217TIP3   OH243065   0.483   2.940  14.790  0.1012  0.7661  0.4927
 7217TIP3    H143066   0.530   2.858  14.801  0.5326  0.9259 -0.1036
 7217TIP3    H243067   0.474   2.975  14.878  0.9705  0.6617  0.6231
 7218TIP3   OH243068   1.158   1.427   0.322  0.0693 -0.3123  0.2309
 7218TIP3    H143069   1.101   1.469   0.387 -0.7493  0.2340 -0.8179
 7218TIP3    H243070   1.167   1.337   0.354 -1.6714 -0.5048  0.2609
 7219TIP3   OH243071   5.005   0.044  13.067  0.0473 -0.1527 -1.0207
 7219TIP3    H143072   4.932   0.037  13.005 -0.0382  1.1002 -1.0809
 7219TIP3    H243073   4.962   0.054  13.152  0.1585 -0.3294 -0.9434
 7220TIP3   OH243074   5.738   0.232   5.155 -0.0679  0.4444 -0.5472
 7220TIP3    H143075   5.762   0.140   5.151  0.7237  0.6724 -1.2937
 7220TIP3    H243076   5.738   0.253   5.248  1.2341  0.0648 -0.4498
 7221TIP3   OH243077   2.429   6.778   6.512 -0.2926 -0.1360  0.0099
 7221TIP3    H143078   2.403   6.752   6.601 -1.8300 -0.2971 -0.4592
 7221TIP3    H243079   2.508   6.726   6.495 -2.1202 -3.1250 -0.1358
 7222TIP3   OH243080   0.512   1.946  15.007  0.2037 -0.1023 -0.3380
 7222TIP3    H143081   0.456   1.967  14.932  0.8158  1.9797 -0.2628
 7222TIP3    H243082   0.450   1.932  15.080 -0.2995  0.3979 -0.6599
 7223TIP3   OH243083   6.148   0.468  13.608  0.4577  0.7689  0.2564
 7223TIP3    H143084   6.097   0.533  13.657  0.7846  0.9910  0.3012
 7223TIP3    H243085   6.201   0.520  13.548  0.7643  0.5446  0.3348
 7224TIP3   OH243086   2.275   2.165   4.777  0.0612  0.5179  0.4936
 7224TIP3    H143087   2.239   2.233   4.721 -0.7849  0.0805  0.4942
 7224TIP3    H243088   2.290   2.091   4.718  0.5750  0.5610  0.5692
 7225TIP3   OH243089   3.400   0.308   5.608  0.3391  0.3455 -0.5642
 7225TIP3    H143090   3.466   0.361   5.653 -0.3287  0.9227 -0.2432
 7225TIP3    H243091   3.428   0.218   5.623  1.3954  0.5898 -0.9670
 7226TIP3   OH243092   6.259   2.769  12.363  0.0298 -0.3585 -1.2040
 7226TIP3    H143093   6.307   2.724  12.433  0.9196  1.8228 -0.3227
 7226TIP3    H243094   6.174   2.789  12.401  0.0011 -0.4179 -1.2376
 7227TIP3   OH243095   1.084   6.650   5.892  0.0887 -0.4400 -0.3579
 7227TIP3    H143096   1.073   6.664   5.986 -0.0205  2.2609 -0.7010
 7227TIP3    H243097   1.168   6.605   5.884 -0.3858 -1.6569  1.0561
 7228TIP3   OH243098   4.680   3.506  15.116 -0.1758  0.2730  0.2825
 7228TIP3    H143099   4.747   3.439  15.128 -0.4452  0.0221  0.4265
 7228TIP3    H243100   4.720   3.587  15.148  0.2901  0.2560 -0.2574
 7229TIP3   OH243101   0.074   0.310  10.765 -0.5235  0.0192  0.7659
 7229TIP3    H143102   0.016   0.269  10.701 -1.7346  2.0733  0.4531
 7229TIP3    H243103   0.042   0.279  10.849  0.8385 -2.3986  0.4947
 7230TIP3   OH243104   4.972   1.484   2.638 -0.3776  0.4548 -0.0549
 7230TIP3    H143105   5.031   1.435   2.581 -1.9577 -0.0223 -1.3900
 7230TIP3    H243106   4.886   1.445   2.622 -0.7927 -0.3681  3.4361
 7231TIP3   OH243107   6.673   3.953   1.206  0.1970 -0.1938  0.2718
 7231TIP3    H143108   6.726   3.971   1.129 -1.2389  1.5016 -0.3885
 7231TIP3    H243109   6.661   3.859   1.205  1.7634 -0.4262 -0.4868
 7232TIP3   OH243110   5.464   6.425  12.787  0.0707  0.3428 -0.3732
 7232TIP3    H143111   5.390   6.390  12.836  2.2554 -0.4055  2.6835
 7232TIP3    H243112   5.459   6.519  12.801  0.2788  0.1975  0.7771
 7233TIP3   OH243113   1.280   5.147  11.933  0.4037 -0.1182 -0.8612
 7233TIP3    H143114   1.314   5.117  12.017  2.1798  0.3433 -1.3628
 7233TIP3    H243115   1.297   5.074  11.873  2.6942  0.8966 -1.5945
 7234TIP3   OH243116   0.230   0.662  14.861 -0.0181  0.0359  0.4913
 7234TIP3    H143117   0.207   0.576  14.895  1.6114 -0.2628  0.9161
 7234TIP3    H243118   0.233   0.719  14.938 -2.3197  0.8327  0.0891
 7235TIP3   OH243119   5.046   6.808   0.818 -0.2859 -0.5475 -0.2044
 7235TIP3    H143120   5.134   6.835   0.844 -1.0767  0.8088  1.1728
 7235TIP3    H243121   5.059   6.721   0.780  1.6410 -0.3919 -0.0260
 7236TIP3   OH243122   0.923   6.250   5.010 -0.5614 -0.1972  0.4813
 7236TIP3    H143123   0.912   6.295   4.927  1.5695  1.2038  0.8933
 7236TIP3    H243124   0.917   6.157   4.988  1.0603  0.0862 -1.4463
 7237TIP3   OH243125   1.800   4.351  16.298  0.5189  0.1665 -0.2575
 7237TIP3    H143126   1.854   4.360  16.377  0.2262 -1.4446  0.1728
 7237TIP3    H243127   1.717   4.393  16.321  0.3720 -0.4451  0.3849
 7238TIP3   OH243128   1.540   0.784  15.933  0.2973 -0.0417 -0.0419
 7238TIP3    H143129   1.460   0.801  15.883  0.1669  2.2075  0.8008
 7238TIP3    H243130   1.611   0.807  15.873  0.2026  0.7310  0.1311
 7239TIP3   OH243131   5.967   2.471  11.392  0.1383  0.0702  0.0349
 7239TIP3    H143132   6.051   2.468  11.437 -0.5486 -1.0621  1.3134
 7239TIP3    H243133   5.989   2.462  11.299  1.3896 -0.8956  0.3933
 7240TIP3   OH243134   1.209   3.561   4.971 -0.3482 -0.2513 -0.0248
 7240TIP3    H143135   1.258   3.642   4.952 -2.4285  0.6000 -2.2090
 7240TIP3    H243136   1.124   3.591   5.002 -0.7655 -1.6482  0.2518
 7241TIP3   OH243137   2.413   6.755  10.305 -0.5363  0.4446  0.3041
 7241TIP3    H143138   2.372   6.731  10.389 -0.7598 -0.7348 -0.1277
 7241TIP3    H243139   2.461   6.677  10.279 -1.6619  0.2693 -1.3834
 7242TIP3   OH243140   1.133   5.150  15.210  0.0542 -0.0743 -0.0173
 7242TIP3    H143141   1.118   5.236  15.169  3.9354  0.9765  0.3433
 7242TIP3    H243142   1.066   5.144  15.278 -1.2419  1.9785 -1.0037
 7243TIP3   OH243143   6.316   1.399   0.054 -0.3372  0.3717 -0.9682
 7243TIP3    H143144   6.390   1.412  -0.006  0.7177 -1.6397 -0.1893
 7243TIP3    H243145   6.259   1.337   0.009 -0.0760 -0.3176 -0.3671
 7244TIP3   OH243146   2.913   5.820   1.903  0.1563 -0.1328  0.1994
 7244TIP3    H143147   2.861   5.883   1.852 -1.8919 -1.4822  0.5354
 7244TIP3    H243148   2.901   5.847   1.994 -0.2056 -0.6035  0.2964
 7245TIP3   OH243149   0.339   4.695   5.460  0.2181  0.5114  0.4249
 7245TIP3    H143150   0.298   4.777   5.488  0.6627  0.9554 -0.1739
 7245TIP3    H243151   0.426   4.722   5.430  0.4766 -0.2271  0.5004
 7246TIP3   OH243152   6.810   0.248  13.986  0.4154  0.2511 -0.0098
 7246TIP3    H143153   6.749   0.221  13.917  0.4468  0.8580 -0.2819
 7246TIP3    H243154   6.757   0.250  14.065 -0.3416  2.2413 -0.4824
 7247TIP3   OH243155   6.283   2.032   5.103  0.2599 -0.0813  0.4382
 7247TIP3    H143156   6.349   2.002   5.166 -0.1784  0.7757  1.3350
 7247TIP3    H243157   6.203   2.040   5.154 -0.2121  0.2201 -0.3370
 7248TIP3   OH243158   3.036   1.102  16.642 -0.1336  0.0634 -0.1409
 7248TIP3    H143159   3.110   1.129  16.696 -0.6133 -1.2240  1.2281
 7248TIP3    H243160   3.069   1.027  16.592 -0.4131 -0.3090  0.2290
 7249TIP3   OH243161   4.123   0.542  15.992 -0.1207  0.4621  0.4315
 7249TIP3    H143162   4.087   0.576  15.910 -0.0908  0.9592  0.6260
 7249TIP3    H243163   4.062   0.571  16.059  1.3058  2.4485  0.9451
 7250TIP3   OH243164   1.452   1.894  11.604  0.3581  0.0124 -0.0948
 7250TIP3    H143165   1.541   1.866  11.625  0.7320 -0.4412 -2.0319
 7250TIP3    H243166   1.463   1.953  11.529 -0.8514  1.3430  0.7312
 7251TIP3   OH243167   4.839   4.203   5.733  0.4223  0.1526  0.0542
 7251TIP3    H143168   4.832   4.127   5.791  0.0880 -1.2272 -1.7347
 7251TIP3    H243169   4.919   4.189   5.683  0.8922  1.5113  0.3653
 7252TIP3   OH243170   4.713   1.584   0.519 -0.1439 -0.3874 -0.0250
 7252TIP3    H143171   4.742   1.576   0.428 -2.9641  0.4119 -1.1074
 7252TIP3    H243172   4.765   1.656   0.554  0.8102 -0.5408 -1.0680
 7253TIP3   OH243173   2.025   3.091   3.293 -0.6661 -0.0322 -0.3053
 7253TIP3    H143174   1.978   3.010   3.274  0.2273 -0.3409 -1.2554
 7253TIP3    H243175   1.962   3.160   3.270 -0.7516 -0.4393 -1.3616
 7254TIP3   OH243176   1.047   6.327  13.013 -0.0188 -0.5485 -0.0346
 7254TIP3    H143177   1.073   6.256  12.954 -0.6864  0.4953 -1.6524
 7254TIP3    H243178   0.954   6.311  13.030 -0.3364  0.2901 -0.9402
 7255TIP3   OH243179   6.274   1.602   2.016  0.1768 -0.4007  0.1683
 7255TIP3    H143180   6.305   1.576   2.103  0.8524 -0.3090 -0.0404
 7255TIP3    H243181   6.353   1.605   1.962  0.1790  2.1497  0.1957
 7256TIP3   OH243182   2.657   3.153  12.298 -0.2834  0.0140  0.4769
 7256TIP3    H143183   2.689   3.069  12.264 -2.5240 -0.6279 -0.1943
 7256TIP3    H243184   2.696   3.219  12.241  0.2875 -0.6800  0.0459
 7257TIP3   OH243185   1.161   1.146   2.026  0.0524 -0.3127 -0.0960
 7257TIP3    H143186   1.172   1.233   1.987  1.7907 -0.0513  0.8552
 7257TIP3    H243187   1.067   1.138   2.041 -0.0398  1.9970  1.0263
 7258TIP3   OH243188   2.301   5.822  16.194 -0.0672  0.1321  0.1107
 7258TIP3    H143189   2.371   5.787  16.249  1.7703  1.2848 -1.3310
 7258TIP3    H243190   2.239   5.860  16.256  1.9291  1.4312  1.4679
 7259TIP3   OH243191   4.373   0.314  12.022  0.0368  0.0198 -0.1407
 7259TIP3    H143192   4.351   0.370  12.097  0.6292  0.5244 -0.3297
 7259TIP3    H243193   4.447   0.359  11.981  0.3786 -0.7978 -0.4249
 7260TIP3   OH243194   6.727   1.826   3.348  0.1056 -0.0252  0.7814
 7260TIP3    H143195   6.734   1.744   3.299  1.4429  1.8441 -2.5590
 7260TIP3    H243196   6.810   1.871   3.330 -0.5567  2.0372  2.5056
 7261TIP3   OH243197   3.039   3.708   1.637 -0.3998  0.1162  0.0310
 7261TIP3    H143198   3.067   3.772   1.573 -1.4693  0.1570 -0.4132
 7261TIP3    H243199   3.032   3.757   1.719  1.3180 -0.0159  0.2846
 7262TIP3   OH243200   0.957   2.531  14.924 -0.0042 -0.5433  0.2253
 7262TIP3    H143201   0.939   2.442  14.893 -0.5440 -0.4333  0.2072
 7262TIP3    H243202   1.012   2.570  14.856  0.1153 -0.8212  0.1661
 7263TIP3   OH243203   6.435   5.410   2.844  0.0264  0.4550 -0.5889
 7263TIP3    H143204   6.516   5.383   2.800  0.4610  1.4196 -0.4039
 7263TIP3    H243205   6.379   5.332   2.842  1.3812 -0.5751  0.2916
 7264TIP3   OH243206   5.603   5.453   4.316 -0.2330  0.3383  0.6274
 7264TIP3    H143207   5.625   5.360   4.323  1.5963  0.7756  1.0502
 7264TIP3    H243208   5.598   5.483   4.407 -0.7164  0.6918  0.4885
 7265TIP3   OH243209   0.457   0.128  12.070 -0.1506  0.2112  0.1771
 7265TIP3    H143210   0.433   0.072  11.996 -0.3793  0.9042 -0.2829
 7265TIP3    H243211   0.553   0.130  12.068 -0.0251 -1.6810  1.3586
 7266TIP3   OH243212   2.404   1.619  10.924 -0.4357 -0.1020 -0.1158
 7266TIP3    H143213   2.364   1.662  10.849 -1.0446  0.6176  0.5936
 7266TIP3    H243214   2.485   1.582  10.890  1.1876  3.3199 -0.4333
 7267TIP3   OH243215   2.983   4.442  14.425  0.6180 -0.2021 -0.8010
 7267TIP3    H143216   2.961   4.503  14.496  0.9235  0.1680 -1.0269
 7267TIP3    H243217   2.970   4.355  14.465  2.6001 -0.0420  0.3032
 7268TIP3   OH243218   5.420   1.251   5.381 -0.4863  0.8543  0.6298
 7268TIP3    H143219   5.347   1.231   5.440 -0.7806 -0.8255 -0.2406
 7268TIP3    H243220   5.470   1.170   5.376  0.4316  1.4431 -0.1867
 7269TIP3   OH243221   1.958   5.996   5.539  0.4565 -0.0260  0.1001
 7269TIP3    H143222   1.875   5.972   5.581  0.9283  0.4833  1.3950
 7269TIP3    H243223   1.962   5.942   5.461 -0.7543 -0.5888  0.3998
 7270TIP3   OH243224   2.351   2.517  16.812 -0.2166  0.2261  0.0663
 7270TIP3    H143225   2.437   2.541  16.846  0.0012 -1.5341  0.9027
 7270TIP3    H243226   2.367   2.492  16.721  0.0847  0.2534  0.1099
 7271TIP3   OH243227   2.986   5.006  13.059  0.2574  0.0838  0.3795
 7271TIP3    H143228   2.911   4.963  13.100  0.7592 -1.4504 -0.2460
 7271TIP3    H243229   3.062   4.963  13.097  0.7511 -0.8545 -1.5324
 7272TIP3   OH243230   0.602   5.527  12.210  0.4667 -0.1679 -0.6711
 7272TIP3    H143231   0.593   5.456  12.146  0.3365 -0.0736 -0.7610
 7272TIP3    H243232   0.516   5.531  12.253  0.3860  0.1048 -0.8499
 7273TIP3   OH243233   6.028   0.045   3.153  0.0198 -0.0200 -0.6821
 7273TIP3    H143234   5.935   0.054   3.177  0.3024 -2.2648  1.7637
 7273TIP3    H243235   6.061   0.135   3.151 -1.7850  0.7318  0.3439
 7274TIP3   OH243236   1.767   0.098   2.976 -0.2743  0.4027 -0.6464
 7274TIP3    H143237   1.729   0.011   2.985  0.1678  0.2946  0.3737
 7274TIP3    H243238   1.697   0.151   2.937 -0.7613 -0.2626 -0.6968
 7275TIP3   OH243239   3.868   3.964   5.773  0.0471  0.2536 -0.1103
 7275TIP3    H143240   3.838   4.054   5.762 -2.0272 -0.3648  0.0164
 7275TIP3    H243241   3.819   3.931   5.849  0.1597 -1.2105 -0.6333
 7276TIP3   OH243242   0.011   4.206  16.770  0.1026 -0.4422 -0.0965
 7276TIP3    H143243   0.092   4.227  16.818 -0.0824 -0.0253  0.0383
 7276TIP3    H243244   0.016   4.260  16.691 -0.5315  0.3746  0.4106
 7277TIP3   OH243245   4.603   6.355  10.999  0.8009 -0.2864 -0.0709
 7277TIP3    H143246   4.663   6.299  10.950  0.7633  2.0553 -3.0364
 7277TIP3    H243247   4.517   6.335  10.964  0.0842 -1.5654  2.1699
 7278TIP3   OH243248   0.241   0.332  14.706  0.6287  0.1251 -0.1487
 7278TIP3    H143249   0.249   0.263  14.771  1.9980 -0.2350 -0.6575
 7278TIP3    H243250   0.148   0.338  14.688  0.4011 -0.9398  0.5862
 7279TIP3   OH243251   4.018   3.266  14.479 -0.4674 -0.0053  0.0834
 7279TIP3    H143252   3.990   3.342  14.528 -0.6843 -0.5500  0.8151
 7279TIP3    H243253   4.027   3.297  14.389  0.2660  1.0852  0.5108
 7280TIP3   OH243254   1.822   5.525  12.364  0.2005 -0.0714 -0.5118
 7280TIP3    H143255   1.773   5.455  12.407  2.7986 -1.1948  0.8343
 7280TIP3    H243256   1.861   5.483  12.287  0.3308  0.3911 -0.7022
 7281TIP3   OH243257   6.295   2.574  13.985 -0.7583 -0.1583  0.2953
 7281TIP3    H143258   6.241   2.623  13.923  2.8211  2.2351 -1.2374
 7281TIP3    H243259   6.314   2.491  13.940 -1.9135 -0.4347  0.2776
 7282TIP3   OH243260   0.023   3.051  15.685  0.0927 -0.4886 -0.0025
 7282TIP3    H143261  -0.022   3.135  15.671  0.2868 -0.7370 -2.4277
 7282TIP3    H243262  -0.034   3.005  15.747  0.0561  1.4497  1.5136
 7283TIP3   OH243263   6.563   3.147  16.317  0.2723 -0.3427  0.7699
 7283TIP3    H143264   6.486   3.132  16.261 -0.3031  0.3091  1.3640
 7283TIP3    H243265   6.573   3.065  16.366  0.3649 -0.6723  0.2063
 7284TIP3   OH243266   0.345   2.795  16.270 -0.4018 -0.6397 -0.0961
 7284TIP3    H143267   0.254   2.807  16.241 -0.9511  0.1182  1.8131
 7284TIP3    H243268   0.369   2.880  16.308  0.8112 -1.1116  0.2147
 7285TIP3   OH243269   1.758   5.383   6.002 -0.5800  0.1501  0.1193
 7285TIP3    H143270   1.834   5.403   6.058 -0.7075 -0.7669  0.6282
 7285TIP3    H243271   1.686   5.369   6.063 -1.0031  0.3054 -0.3381
 7286TIP3   OH243272   4.782   4.979   5.093 -0.3559 -0.3064 -0.2496
 7286TIP3    H143273   4.787   4.884   5.090  0.8387 -0.5358  3.3000
 7286TIP3    H243274   4.858   5.005   5.146 -1.5193  2.4545  0.2619
 7287TIP3   OH243275   0.506   2.854   4.945  0.1013 -0.5799  0.7419
 7287TIP3    H143276   0.463   2.845   5.030 -0.8501  0.1470  0.3613
 7287TIP3    H243277   0.488   2.945   4.919  2.6970  0.0738  0.9807
 7288TIP3   OH243278   3.538   5.349  11.748  0.5599  0.1097  0.4268
 7288TIP3    H143279   3.503   5.439  11.745  1.9260  0.6626  0.1705
 7288TIP3    H243280   3.569   5.339  11.838  2.4273  0.7270 -0.1187
 7289TIP3   OH243281   3.475   5.205  12.009  0.3882 -0.3057 -1.0507
 7289TIP3    H143282   3.462   5.112  12.027 -1.8020  0.1071 -0.1538
 7289TIP3    H243283   3.465   5.248  12.094 -0.1457  0.8703 -1.6852
 7290TIP3   OH243284   4.657   5.972   6.317 -0.5836  0.4821 -0.2349
 7290TIP3    H143285   4.742   5.932   6.296  0.0978  1.3486  0.7401
 7290TIP3    H243286   4.677   6.065   6.329 -1.9142  0.9257 -1.2139
 7291TIP3   OH243287   6.660   4.461   3.311 -0.1612  0.0756  0.6032
 7291TIP3    H143288   6.663   4.556   3.319 -1.8296  0.3683 -1.3082
 7291TIP3    H243289   6.567   4.439   3.318  0.0627 -1.2467 -0.1584
 7292TIP3   OH243290   0.990   4.346   5.157  0.0846  0.0631  0.6108
 7292TIP3    H143291   0.945   4.263   5.146  2.7644 -1.5076  0.6214
 7292TIP3    H243292   0.954   4.403   5.089  1.5967 -2.7095 -2.8150
 7293TIP3   OH243293   0.544   4.457   3.964 -0.0750  0.7867  0.1849
 7293TIP3    H143294   0.582   4.470   4.051 -0.8684 -0.6931  0.8071
 7293TIP3    H243295   0.450   4.469   3.977 -0.2036  0.5522 -0.4606
 7294TIP3   OH243296   2.221   6.067   3.535  0.6884  0.1136  0.1087
 7294TIP3    H143297   2.286   6.130   3.503  0.2129  0.6039  0.0951
 7294TIP3    H243298   2.146   6.078   3.476 -0.2713  1.1377  1.4446
 7295TIP3   OH243299   0.342   1.371  13.043 -1.1445  0.3900 -0.0667
 7295TIP3    H143300   0.382   1.316  13.110 -3.0773 -0.5857  0.3678
 7295TIP3    H243301   0.380   1.340  12.960 -0.0045  0.4551  0.4137
 7296TIP3   OH243302   0.821   2.025  13.174  0.1159 -0.0882  0.0633
 7296TIP3    H143303   0.808   1.952  13.114 -1.2753  0.7073 -0.6498
 7296TIP3    H243304   0.873   2.088  13.124  0.0672  0.0259  0.1555
 7297TIP3   OH243305   3.830   3.729   4.942  0.4674 -0.3410 -0.7321
 7297TIP3    H143306   3.888   3.797   4.977  1.0862 -0.9593 -0.5378
 7297TIP3    H243307   3.888   3.656   4.920 -0.1137 -0.5791 -1.5186
 7298TIP3   OH243308   3.758   4.333  11.146 -0.1124  0.1240 -0.3304
 7298TIP3    H143309   3.751   4.408  11.086 -1.1171  0.7480  0.5339
 7298TIP3    H243310   3.812   4.366  11.219 -0.6440  0.0449  0.1028
 7299TIP3   OH243311   1.889   3.358   2.329  0.2723  0.0233 -0.3649
 7299TIP3    H143312   1.795   3.348   2.317  0.2445  0.7773 -0.8765
 7299TIP3    H243313   1.901   3.451   2.349  0.7955 -0.2876  0.9083
 7300TIP3   OH243314   2.537   6.790  13.881 -0.2293 -0.0278 -0.2528
 7300TIP3    H143315   2.604   6.784  13.950  1.1197  1.8697 -1.3167
 7300TIP3    H243316   2.467   6.842  13.921  0.9943  1.9561 -0.5625
 7301TIP3   OH243317   1.875   1.342  14.758  0.3109 -0.0339  0.9838
 7301TIP3    H143318   1.932   1.400  14.809  1.0848 -0.4438  0.5896
 7301TIP3    H243319   1.913   1.342  14.670 -0.0803 -0.6109  0.8122
 7302TIP3   OH243320   1.123   1.183  15.917  0.0280 -0.3574  0.3717
 7302TIP3    H143321   1.186   1.148  15.853  0.6234  0.6401  0.3908
 7302TIP3    H243322   1.178   1.218  15.987 -0.5271  0.7105  0.2941
 7303TIP3   OH243323   0.874   6.215  16.050 -0.3185 -0.7601  0.6292
 7303TIP3    H143324   0.891   6.296  16.003  0.6500 -0.4756  1.4261
 7303TIP3    H243325   0.781   6.199  16.040 -1.3515  2.4210  3.5079
 7304TIP3   OH243326   3.116   1.911  16.717 -0.3380  0.1867 -0.1830
 7304TIP3    H143327   3.163   1.961  16.650 -0.7612  1.3407  0.3477
 7304TIP3    H243328   3.182   1.853  16.755  0.5400  1.3595  0.1445
 7305TIP3   OH243329   4.086   4.390  15.378 -0.2369 -0.0614  0.3571
 7305TIP3    H143330   4.034   4.467  15.400  0.4294  0.5682 -0.2244
 7305TIP3    H243331   4.044   4.318  15.425 -0.0168  0.8953  2.1115
 7306TIP3   OH243332   6.370   6.706  11.197  0.2344  0.4512 -0.0945
 7306TIP3    H143333   6.419   6.692  11.116 -1.3999 -0.7257 -0.9305
 7306TIP3    H243334   6.384   6.798  11.219  2.9500  0.1238 -0.1565
 7307TIP3   OH243335   5.788   6.048   3.130  0.0272  0.1094  0.3063
 7307TIP3    H143336   5.850   5.977   3.115 -1.1442 -0.7800 -0.5140
 7307TIP3    H243337   5.824   6.122   3.081  0.3057 -0.4776 -0.3922
 7308TIP3   OH243338   4.018   4.041   3.534  0.2294  0.1615  0.3286
 7308TIP3    H143339   4.049   4.129   3.510  3.1120 -0.7932  0.1483
 7308TIP3    H243340   4.042   4.031   3.626 -0.4303 -0.3106  0.4557
 7309TIP3   OH243341   5.065   1.847   1.483 -0.3195  0.0500 -0.3593
 7309TIP3    H143342   5.158   1.862   1.501 -0.6628  1.6440  0.2635
 7309TIP3    H243343   5.051   1.755   1.503  0.6821  0.2864  1.6479
 7310TIP3   OH243344   4.887   5.707   3.274  0.0202 -0.2126 -0.3532
 7310TIP3    H143345   4.982   5.699   3.280 -0.1287 -1.0910  1.5713
 7310TIP3    H243346   4.861   5.746   3.357 -1.3554 -0.4576 -0.6416
 7311TIP3   OH243347   1.408   2.813   4.547 -0.3040  0.8419 -0.2871
 7311TIP3    H143348   1.393   2.856   4.631  2.6256 -0.7393  1.2083
 7311TIP3    H243349   1.503   2.818   4.535  0.1321 -3.9718 -0.5705
 7312TIP3   OH243350   1.388   5.332   5.775  0.0565  0.3788 -0.4393
 7312TIP3    H143351   1.453   5.402   5.781 -0.0225  0.4239 -0.0529
 7312TIP3    H243352   1.408   5.275   5.849  0.7958 -0.6031 -1.3701
 7313TIP3   OH243353   3.218   6.601   4.059 -0.1113  0.3930 -0.3853
 7313TIP3    H143354   3.242   6.678   4.110  1.2793 -0.7626  0.7951
 7313TIP3    H243355   3.298   6.549   4.054 -0.7783 -0.5716 -1.9096
 7314TIP3   OH243356   1.492   2.281   2.290  0.4117  0.1955  0.4527
 7314TIP3    H143357   1.492   2.249   2.380 -2.4596 -0.0639  0.4540
 7314TIP3    H243358   1.498   2.376   2.298  0.6778  0.1485  0.8589
 7315TIP3   OH243359   2.251   0.509  15.119  0.9698 -0.8637  0.5815
 7315TIP3    H143360   2.185   0.439  15.113 -1.3042  1.1372  0.5223
 7315TIP3    H243361   2.334   0.465  15.103 -0.4130 -3.4154 -0.1918
 7316TIP3   OH243362   0.073   1.585  13.476 -0.0324 -0.1268 -0.1077
 7316TIP3    H143363   0.086   1.513  13.538  0.6539 -0.1988 -0.3287
 7316TIP3    H243364  -0.001   1.634  13.512 -0.3440 -0.8012  0.1750
 7317TIP3   OH243365   6.710   2.684  10.898  0.2340  0.1758  0.2340
 7317TIP3    H143366   6.689   2.766  10.853  0.7598 -0.4734 -1.2160
 7317TIP3    H243367   6.782   2.707  10.957 -0.4137  1.0076  0.7323
 7318TIP3   OH243368   5.860   0.328   0.670 -0.1003 -0.0730  0.3862
 7318TIP3    H143369   5.808   0.348   0.592  0.4003 -0.7783 -0.1492
 7318TIP3    H243370   5.945   0.302   0.635 -0.0822 -1.0589  1.1305
 7319TIP3   OH243371   1.519   0.344   0.303  0.0351 -0.0445 -0.5094
 7319TIP3    H143372   1.441   0.399   0.306  0.2502  0.2335  0.0924
 7319TIP3    H243373   1.513   0.289   0.381  1.4514  1.3982  0.6934
 7320TIP3   OH243374   6.570   5.292  12.269 -0.0514  0.1155  0.8364
 7320TIP3    H143375   6.549   5.218  12.326 -1.4445 -0.0066  0.1933
 7320TIP3    H243376   6.492   5.348  12.271  0.5027  0.9349  0.3265
 7321TIP3   OH243377   5.665   4.453  12.885  0.2988 -0.1856  0.3716
 7321TIP3    H143378   5.647   4.538  12.927 -1.0927 -1.2160  1.9967
 7321TIP3    H243379   5.701   4.476  12.800 -0.4379  2.0518  0.5864
 7322TIP3   OH243380   5.806   0.004  12.729  0.2070  0.4102 -1.3718
 7322TIP3    H143381   5.885   0.004  12.676  0.5309 -0.8234 -0.9158
 7322TIP3    H243382   5.817  -0.070  12.789 -0.7189  0.9990 -0.4419
 7323TIP3   OH243383   3.163   1.006  16.123 -0.1522 -0.3162  0.3821
 7323TIP3    H143384   3.196   1.082  16.075  1.1348 -0.9625  0.2056
 7323TIP3    H243385   3.183   1.025  16.215 -0.7366 -0.0071  0.4492
 7324TIP3   OH243386   2.367   5.654  13.992  0.5018 -0.1420  0.0117
 7324TIP3    H143387   2.375   5.558  13.996  0.6662 -0.1079  0.7125
 7324TIP3    H243388   2.397   5.683  14.078  0.9474  0.5801 -0.3879
 7325TIP3   OH243389   3.473   4.917   1.042 -0.3391 -0.2732 -0.1602
 7325TIP3    H143390   3.457   4.985   0.976 -1.5122 -2.2939 -2.1126
 7325TIP3    H243391   3.568   4.909   1.045 -0.2351 -0.4699 -2.1190
 7326TIP3   OH243392   3.317   0.314  13.347 -0.2200 -0.1276  0.1143
 7326TIP3    H143393   3.288   0.331  13.258 -0.7443 -0.2234  0.2654
 7326TIP3    H243394   3.279   0.385  13.399  1.6217  1.0270 -0.0128
 7327TIP3   OH243395   6.704   6.485  11.716  0.6772  0.1045 -0.2828
 7327TIP3    H143396   6.728   6.393  11.722  2.8991  0.6048 -0.5086
 7327TIP3    H243397   6.757   6.519  11.645  0.4658  1.7117  0.2862
 7328TIP3   OH243398   2.179   0.146   4.227  0.3931 -0.3476 -0.0712
 7328TIP3    H143399   2.148   0.233   4.202  0.1853 -0.3731  0.0929
 7328TIP3    H243400   2.230   0.161   4.306  1.4729 -0.1993 -0.7812
 7329TIP3   OH243401   2.325   4.282  15.297  0.1085 -0.5067 -0.4892
 7329TIP3    H143402   2.309   4.249  15.208  1.8531 -0.4303 -0.8850
 7329TIP3    H243403   2.386   4.355  15.284 -1.2264  0.8555  0.6329
 7330TIP3   OH243404   3.159   4.212  12.383  0.0620  0.0354 -0.4637
 7330TIP3    H143405   3.195   4.224  12.295 -3.8524  1.2810 -2.1314
 7330TIP3    H243406   3.185   4.291  12.430  0.0628  0.6127 -1.3970
 7331TIP3   OH243407   0.835   5.563  15.593 -0.1599  0.0700  0.4345
 7331TIP3    H143408   0.919   5.580  15.551  0.0945  0.5170  1.1082
 7331TIP3    H243409   0.822   5.469  15.584 -0.2715  0.1926 -0.9195
 7332TIP3   OH243410   6.383   1.207   1.515  0.7002  0.1030 -0.2027
 7332TIP3    H143411   6.462   1.223   1.463  0.5056 -0.0712 -0.5560
 7332TIP3    H243412   6.311   1.237   1.458  0.0338 -4.2256 -2.0053
 7333TIP3   OH243413   2.281   3.135  13.915  0.1260 -0.5261 -0.4684
 7333TIP3    H143414   2.319   3.048  13.902  1.1863  0.0599 -1.4233
 7333TIP3    H243415   2.259   3.165  13.827  0.3793  0.4387 -0.2154
 7334TIP3   OH243416   0.628   3.975  13.538 -0.2513 -0.1200  0.3816
 7334TIP3    H143417   0.630   3.913  13.610 -0.9635 -0.6670 -0.0664
 7334TIP3    H243418   0.577   4.049  13.571  0.8024  0.3599  0.9993
 7335TIP3   OH243419   3.245   4.651   0.011  0.6330 -0.1559 -0.8810
 7335TIP3    H143420   3.179   4.715   0.037  1.0624  0.0835 -0.3578
 7335TIP3    H243421   3.313   4.658   0.078  0.9423 -0.7726 -1.1206
 7336TIP3   OH243422   6.284   6.242  15.405  0.5970  0.1828 -0.4627
 7336TIP3    H143423   6.324   6.169  15.451  1.1916  0.5419 -0.3984
 7336TIP3    H243424   6.257   6.205  15.321  1.0562 -0.0732 -0.5052
 7337TIP3   OH243425   4.848   0.373   5.483  0.3701 -0.1439  0.1655
 7337TIP3    H143426   4.827   0.444   5.544  0.4530 -0.9813  1.2145
 7337TIP3    H243427   4.894   0.309   5.538  0.2385 -1.0295 -0.7455
 7338TIP3   OH243428   2.002   0.118   5.240 -0.1046  0.1716 -0.4424
 7338TIP3    H143429   2.059   0.135   5.314 -0.7263 -2.0468  0.6444
 7338TIP3    H243430   1.914   0.116   5.278 -0.5922  0.4871 -1.5211
 7339TIP3   OH243431   5.863   6.518  13.637  0.2528 -0.0180 -0.0999
 7339TIP3    H143432   5.929   6.587  13.626 -2.1681  2.3049 -0.9414
 7339TIP3    H243433   5.780   6.564  13.638 -1.6992 -3.0697 -2.7035
 7340TIP3   OH243434   0.999   0.162  12.499  0.0133  0.0943 -0.0427
 7340TIP3    H143435   0.980   0.251  12.531 -0.7033 -0.5971  1.5924
 7340TIP3    H243436   1.088   0.167  12.466 -0.9140  2.0936 -2.6613
 7341TIP3   OH243437   0.714   0.511  13.956 -0.2417 -0.5178 -0.2311
 7341TIP3    H143438   0.768   0.439  13.923 -0.2664 -0.7871  0.3169
 7341TIP3    H243439   0.688   0.559  13.877  0.6564 -0.4841 -0.5165
 7342TIP3   OH243440   0.571   6.153   6.578 -0.5171 -0.2133 -0.7598
 7342TIP3    H143441   0.478   6.150   6.601 -0.3057 -1.4125 -0.0297
 7342TIP3    H243442   0.609   6.074   6.616  0.8033  0.2262 -1.0931
 7343TIP3   OH243443   1.705   0.243  16.702  0.1433 -0.0759 -0.5087
 7343TIP3    H143444   1.657   0.315  16.662  1.6549  0.8166 -0.7843
 7343TIP3    H243445   1.731   0.276  16.788  3.0239  0.7665 -1.5761
 7344TIP3   OH243446   6.699   5.721  14.981  0.2147  0.1900  0.3868
 7344TIP3    H143447   6.706   5.675  15.064 -1.6758 -1.1093 -0.1248
 7344TIP3    H243448   6.610   5.755  14.979  0.0588 -0.2117 -1.2795
 7345TIP3   OH243449   0.925   0.371  16.159 -0.1481  0.1520 -0.3524
 7345TIP3    H143450   0.961   0.459  16.150 -1.5143  0.7166 -0.4148
 7345TIP3    H243451   0.839   0.375  16.116 -0.1873 -1.2399 -0.4533
 7346TIP3   OH243452   5.356   0.688  14.736 -0.1567 -0.0395  0.5009
 7346TIP3    H143453   5.423   0.635  14.694  0.5941  1.0911  0.2144
 7346TIP3    H243454   5.378   0.684  14.829  1.1697  1.3734  0.3087
 7347TIP3   OH243455   0.719   0.854  14.896 -0.2498 -0.6591 -0.0289
 7347TIP3    H143456   0.749   0.910  14.824  0.0133 -1.9456 -0.9562
 7347TIP3    H243457   0.643   0.809  14.862 -1.4308  0.2670  1.2586
 7348TIP3   OH243458   1.309   4.999   5.183 -0.0052 -0.3510 -0.1338
 7348TIP3    H143459   1.358   4.943   5.242 -0.4026 -0.8622 -0.2781
 7348TIP3    H243460   1.254   5.053   5.240  1.3123  0.8185  0.0747
 7349TIP3   OH243461   5.405   4.995  16.887 -0.3197 -0.1428  0.1386
 7349TIP3    H143462   5.363   5.080  16.880 -0.8505 -0.2642  1.4454
 7349TIP3    H243463   5.464   5.003  16.962 -0.2032 -0.8373  0.1356
 7350TIP3   OH243464   4.101   1.011  10.741  0.1855 -0.8424  0.3275
 7350TIP3    H143465   4.039   0.984  10.673  0.1918 -0.4100  0.1477
 7350TIP3    H243466   4.175   1.047  10.692  0.0843 -0.3030  0.5718
 7351TIP3   OH243467   3.138   2.433   4.433  0.0180  0.4827  0.1719
 7351TIP3    H143468   3.051   2.439   4.393  0.1611  0.3899 -0.1623
 7351TIP3    H243469   3.136   2.354   4.486  1.1128 -1.8481 -2.9402
 7352TIP3   OH243470   4.917   0.980   5.406  0.6139  0.0779  0.5021
 7352TIP3    H143471   4.908   0.926   5.484  1.2856 -0.0464  0.5046
 7352TIP3    H243472   4.953   0.921   5.340 -0.5157  0.0304 -0.0879
 7353TIP3   OH243473   3.134   3.601  16.996 -0.2404  0.0321 -0.5120
 7353TIP3    H143474   3.194   3.646  16.937 -1.4380  1.1704 -0.9063
 7353TIP3    H243475   3.098   3.670  17.051 -2.3135 -0.3388 -1.2999
 7354TIP3   OH243476   1.384   3.135   5.392  0.1270  0.0617  0.1140
 7354TIP3    H143477   1.318   3.166   5.329  0.6015  0.3286 -0.2584
 7354TIP3    H243478   1.401   3.211   5.447 -1.1797 -0.5129  1.3593
 7355TIP3   OH243479   0.283   4.474   5.704  0.1424  0.5324 -0.0177
 7355TIP3    H143480   0.349   4.542   5.716  2.1524 -1.3180 -0.0597
 7355TIP3    H243481   0.274   4.432   5.789 -2.0299  1.5658  0.3424
 7356TIP3   OH243482   2.618   6.724  12.548 -0.1795 -0.2336 -0.5128
 7356TIP3    H143483   2.693   6.769  12.588 -0.2859 -0.8321  0.3981
 7356TIP3    H243484   2.643   6.711  12.457  0.7372 -0.2354 -0.2721
 7357TIP3   OH243485   3.470   6.720   4.820  0.6563 -0.1953 -0.4076
 7357TIP3    H143486   3.413   6.678   4.756 -0.7386  0.2898  0.4646
 7357TIP3    H243487   3.515   6.788   4.771  0.4103 -0.5260 -1.1045
 7358TIP3   OH243488   1.752   1.885   5.315 -0.1577 -0.1292 -0.3263
 7358TIP3    H143489   1.662   1.864   5.289 -1.0090 -1.0154  2.9233
 7358TIP3    H243490   1.743   1.956   5.379  1.1757 -1.8338  1.8753
 7359TIP3   OH243491   4.161   2.789  15.533 -0.4315 -0.5166  0.4576
 7359TIP3    H143492   4.094   2.839  15.485 -0.8418  0.2501  1.7882
 7359TIP3    H243493   4.119   2.705  15.550 -0.4505 -0.6292 -0.1195
 7360TIP3   OH243494   4.663   3.508  15.832 -0.4588  0.1676  0.2852
 7360TIP3    H143495   4.752   3.540  15.847 -0.9741  0.7071  2.7497
 7360TIP3    H243496   4.662   3.420  15.870 -0.9376  0.1149  0.1641
 7361TIP3   OH243497   4.325   3.376   6.325 -0.0786 -0.4853  0.1373
 7361TIP3    H143498   4.360   3.348   6.410 -0.9698  1.3804  1.1827
 7361TIP3    H243499   4.250   3.319   6.310  1.3990 -2.3609 -0.5690
 7362TIP3   OH243500   1.708   3.694  12.310 -0.2748 -0.1669  0.2441
 7362TIP3    H143501   1.735   3.655  12.393  1.2303 -0.8486 -0.5209
 7362TIP3    H243502   1.789   3.727  12.272 -1.0746  0.9327 -0.5715
 7363TIP3   OH243503   4.936   5.538   1.033  0.0681  0.1110 -0.4767
 7363TIP3    H143504   4.965   5.448   1.047  2.3686  0.8081 -0.2130
 7363TIP3    H243505   4.991   5.569   0.961 -0.3906  1.4146 -0.2824
 7364TIP3   OH243506   3.556   4.499   5.370 -0.8268 -0.1272 -0.7458
 7364TIP3    H143507   3.621   4.481   5.438 -0.1876 -1.4155 -1.6644
 7364TIP3    H243508   3.492   4.556   5.413 -0.4483 -0.9089  0.9391
 7365TIP3   OH243509   0.399   5.471   0.882  0.4195  0.3079 -0.2023
 7365TIP3    H143510   0.491   5.451   0.895 -0.2060 -1.9187  1.2462
 7365TIP3    H243511   0.383   5.548   0.936  1.1249 -0.1222  0.6320
 7366TIP3   OH243512   2.824   2.998   3.943  0.4657 -0.3401 -0.3865
 7366TIP3    H143513   2.734   3.009   3.975 -0.0783 -1.8677 -1.2758
 7366TIP3    H243514   2.841   3.076   3.891  0.1532  0.5882  0.8484
 7367TIP3   OH243515   6.229   1.808   5.340 -0.3662  0.0608  0.0182
 7367TIP3    H143516   6.310   1.771   5.304 -0.6519  0.0554 -0.6475
 7367TIP3    H243517   6.194   1.739   5.396  0.0065  0.0017  0.1807
 7368TIP3   OH243518   5.532   3.269  13.843  0.4545 -0.0175 -0.1254
 7368TIP3    H143519   5.464   3.257  13.910  0.6969 -0.8250 -0.0022
 7368TIP3    H243520   5.485   3.261  13.760  0.4735 -1.2164 -0.0451
 7369TIP3   OH243521   0.484   4.209  11.270  0.0236  0.3466 -0.2650
 7369TIP3    H143522   0.394   4.181  11.252  0.3870 -0.5580 -0.7302
 7369TIP3    H243523   0.530   4.129  11.293  0.6089  0.8717  0.4380
 7370TIP3   OH243524   1.529   3.821  12.051  0.3069  0.0720 -0.2319
 7370TIP3    H143525   1.548   3.774  11.969 -0.0139  0.2965 -0.4384
 7370TIP3    H243526   1.544   3.757  12.120  1.1839  0.0575 -0.4261
 7371TIP3   OH243527   2.605   2.528   5.131 -0.4155 -0.0535  0.3794
 7371TIP3    H143528   2.645   2.607   5.166  0.8286 -0.9036  0.9425
 7371TIP3    H243529   2.604   2.541   5.036 -2.0155  1.4279  0.5413
 7372TIP3   OH243530   3.310   4.378  13.551  1.1632 -0.6050  0.8148
 7372TIP3    H143531   3.401   4.375  13.581  0.9680 -0.9542  1.3998
 7372TIP3    H243532   3.292   4.471  13.536  1.7937 -0.5916  0.1189
 7373TIP3   OH243533   4.293   3.326   0.912  0.0301  0.6122 -0.4970
 7373TIP3    H143534   4.215   3.271   0.925 -0.9780  2.3517  1.3948
 7373TIP3    H243535   4.361   3.284   0.964 -0.3050  0.3682 -0.2468
 7374TIP3   OH243536   0.955   2.503  11.454  0.5277  0.3466  0.5215
 7374TIP3    H143537   0.867   2.467  11.458  0.5104  0.4863  1.7597
 7374TIP3    H243538   1.007   2.435  11.410 -0.1918  0.2927 -0.2670
 7375TIP3   OH243539   2.744   3.950  15.273 -0.1636 -0.1298  0.0079
 7375TIP3    H143540   2.730   3.945  15.367  0.7786 -0.0148  0.1643
 7375TIP3    H243541   2.699   4.030  15.246 -1.5613 -0.8390  0.1251
 7376TIP3   OH243542   2.642   2.617   1.489  0.1724 -0.0819 -0.2702
 7376TIP3    H143543   2.557   2.587   1.521  0.8139 -2.3854 -0.5328
 7376TIP3    H243544   2.662   2.557   1.417  1.7170  0.8490 -0.6395
 7377TIP3   OH243545   3.221   1.582  14.626  0.3055 -0.6395  0.0003
 7377TIP3    H143546   3.310   1.616  14.634 -0.4824  1.0935  2.4966
 7377TIP3    H243547   3.231   1.500  14.578  3.2159 -0.4441  0.0992
 7378TIP3   OH243548   3.927   0.730  15.005 -1.3539  0.1762 -0.1447
 7378TIP3    H143549   3.920   0.640  14.974 -2.6108 -0.2014  1.1465
 7378TIP3    H243550   3.899   0.783  14.930 -0.3993 -0.4663 -0.9843
 7379TIP3   OH243551   4.625   3.710   1.730  0.3974 -0.5414 -0.3868
 7379TIP3    H143552   4.620   3.616   1.714  0.3784 -0.5329 -0.4312
 7379TIP3    H243553   4.534   3.739   1.728  0.3654 -0.6081  0.1371
 7380TIP3   OH243554   2.573   2.323  11.527 -0.3149  0.0551 -0.7293
 7380TIP3    H143555   2.593   2.385  11.457  0.0195  0.2981 -0.4269
 7380TIP3    H243556   2.642   2.338  11.592  1.5781 -2.6679 -1.9292
 7381TIP3   OH243557   3.904   2.488  12.197 -0.1768 -0.2826  0.8621
 7381TIP3    H143558   3.865   2.488  12.285  0.0409  2.4053  1.0422
 7381TIP3    H243559   3.861   2.561  12.152  1.4096 -0.1158 -0.4604
 7382TIP3   OH243560   5.802   3.760   0.475 -0.0776 -0.4852  0.0821
 7382TIP3    H143561   5.872   3.699   0.496 -2.0618 -1.7070  4.1778
 7382TIP3    H243562   5.837   3.846   0.499  0.4268 -0.9124  0.9032
 7383TIP3   OH243563   5.278   5.763   1.104  0.2014 -0.0278  0.3372
 7383TIP3    H143564   5.358   5.732   1.063 -0.4142 -0.7456 -0.3465
 7383TIP3    H243565   5.214   5.768   1.033 -0.5270 -0.0317  0.9745
 7384TIP3   OH243566   4.466   5.431  14.339 -0.8464  0.5459  0.2129
 7384TIP3    H143567   4.392   5.442  14.280 -1.2079 -0.5549  0.4327
 7384TIP3    H243568   4.437   5.473  14.421 -1.4149 -0.2622  0.4373
 7385TIP3   OH243569   4.311   0.951   0.470  0.2518 -0.2017  0.4161
 7385TIP3    H143570   4.244   1.020   0.472 -0.4710 -0.8631  2.7560
 7385TIP3    H243571   4.393   0.997   0.488  0.4610  0.5659 -2.1102
 7386TIP3   OH243572   0.451   4.516  11.896 -0.0083  0.6356 -0.4228
 7386TIP3    H143573   0.365   4.555  11.878  0.5846  1.7265 -0.9807
 7386TIP3    H243574   0.487   4.495  11.810 -0.0003 -0.4829 -0.1584
 7387TIP3   OH243575   6.301   1.960   2.660 -0.0898  0.0438  0.3805
 7387TIP3    H143576   6.356   1.919   2.727  0.3377 -2.2202 -1.2208
 7387TIP3    H243577   6.315   2.054   2.672  1.6237 -0.3537  2.0771
 7388TIP3   OH243578   6.405   3.718   2.753  0.3566  0.3699 -0.0131
 7388TIP3    H143579   6.385   3.811   2.767 -0.7455 -0.0509  1.4031
 7388TIP3    H243580   6.457   3.694   2.829 -1.4202 -0.7437  0.9047
 7389TIP3   OH243581   3.831   0.375   1.673  0.6234 -0.1527  0.4781
 7389TIP3    H143582   3.878   0.294   1.652 -0.6520 -0.6700 -0.4845
 7389TIP3    H243583   3.885   0.444   1.636 -0.1836 -0.8533 -2.3094
 7390TIP3   OH243584   0.139   3.475   1.126  0.3814 -0.1364  0.3839
 7390TIP3    H143585   0.194   3.539   1.079 -0.3362  0.2264  0.0271
 7390TIP3    H243586   0.063   3.463   1.070 -1.2863  1.5163  2.1662
 7391TIP3   OH243587   5.407   2.722   4.191  0.3837 -0.1241 -0.2947
 7391TIP3    H143588   5.473   2.712   4.259  0.1697  0.6521  0.0319
 7391TIP3    H243589   5.386   2.632   4.165  0.6805 -0.4183  0.4515
 7392TIP3   OH243590   4.636   0.974  13.874  0.1913  0.3023 -0.7339
 7392TIP3    H143591   4.664   1.050  13.926 -0.6657  0.7902 -0.9758
 7392TIP3    H243592   4.697   0.904  13.900  0.0522  0.6523  0.6139
 7393TIP3   OH243593   0.881   4.515   3.106 -0.2522 -0.0448 -0.0724
 7393TIP3    H143594   0.888   4.514   3.011 -1.8033  1.3851 -0.2620
 7393TIP3    H243595   0.883   4.608   3.129  1.0347 -0.3835  1.4122
 7394TIP3   OH243596   0.842   6.128  14.441 -0.1650 -0.3240 -0.1062
 7394TIP3    H143597   0.854   6.166  14.527 -1.2313 -1.7139  0.7141
 7394TIP3    H243598   0.770   6.178  14.402 -0.4900 -0.4635  0.3097
 7395TIP3   OH243599   0.284   2.421   3.309 -0.1297  0.4109 -0.2640
 7395TIP3    H143600   0.294   2.362   3.384 -0.5035 -1.9754 -2.0030
 7395TIP3    H243601   0.341   2.496   3.330  0.1666 -0.4132  2.1429
 7396TIP3   OH243602   5.637   5.509  15.370 -0.2077 -0.0310  0.3083
 7396TIP3    H143603   5.567   5.446  15.351 -1.1558  0.8555  0.7762
 7396TIP3    H243604   5.631   5.573  15.299 -1.1022  1.0592  1.3332
 7397TIP3   OH243605   1.863   6.405  14.962  0.1243 -0.0756 -0.0324
 7397TIP3    H143606   1.884   6.472  14.897  1.0561 -1.1386 -0.8592
 7397TIP3    H243607   1.912   6.432  15.040  0.1611  0.4385 -0.2299
 7398TIP3   OH243608   0.029   4.753  11.248 -0.1903 -0.0263  0.1400
 7398TIP3    H143609  -0.038   4.736  11.181  0.1440  0.9667 -0.4701
 7398TIP3    H243610   0.111   4.725  11.207  0.0703  0.9757 -0.0302
 7399TIP3   OH243611   2.201   3.464   6.081 -0.1853  0.1922  0.0339
 7399TIP3    H143612   2.281   3.412   6.076 -0.8088 -0.8013 -0.0080
 7399TIP3    H243613   2.142   3.411   6.135 -1.0681  0.5491 -0.5676
 7400TIP3   OH243614   4.072   3.736  11.235  0.2447  0.7580 -0.0280
 7400TIP3    H143615   4.018   3.658  11.221 -0.5438  1.3485 -0.3552
 7400TIP3    H243616   4.065   3.785  11.153  0.3936  1.3759  0.3225
 7401TIP3   OH243617   4.107   2.351  15.956  0.0148 -0.5705  0.0482
 7401TIP3    H143618   4.141   2.321  16.041  0.3977 -0.8729 -0.2086
 7401TIP3    H243619   4.184   2.352  15.899 -0.2370 -0.3333 -0.2892
 7402TIP3   OH243620   0.054   6.432   4.937  0.7092 -0.1073  0.1770
 7402TIP3    H143621  -0.037   6.411   4.957  0.5515 -0.2788 -0.6548
 7402TIP3    H243622   0.049   6.513   4.886  0.8624 -0.9628 -1.2747
 7403TIP3   OH243623   3.280   3.794  11.437 -0.0154  0.2084 -0.2535
 7403TIP3    H143624   3.333   3.870  11.414 -0.4463  0.8471  0.8005
 7403TIP3    H243625   3.292   3.734  11.363  1.3975  0.7248 -0.4877
 7404TIP3   OH243626   1.659   0.085  12.718 -0.6468 -0.5112 -0.5127
 7404TIP3    H143627   1.646  -0.009  12.707 -0.4718 -0.5538 -0.3573
 7404TIP3    H243628   1.748   0.093  12.752 -1.4251 -0.4493  1.7247
 7405TIP3   OH243629   1.456   4.359  16.076  0.0167 -0.6148 -0.4856
 7405TIP3    H143630   1.508   4.282  16.054  0.7025 -1.2022  2.7067
 7405TIP3    H243631   1.510   4.433  16.048  1.4374 -1.2700  0.3658
 7406TIP3   OH243632   4.866   1.369  13.207 -0.0055  0.1654  0.3187
 7406TIP3    H143633   4.898   1.402  13.124  1.0955 -0.1029  0.6187
 7406TIP3    H243634   4.776   1.400  13.212  0.5984  2.1149  0.0532
 7407TIP3   OH243635   4.459   0.498  10.625  0.1164 -0.6517 -0.7229
 7407TIP3    H143636   4.414   0.454  10.553 -0.4547 -2.3885  0.6481
 7407TIP3    H243637   4.526   0.437  10.653 -0.5728 -0.6297  1.1151
 7408TIP3   OH243638   6.717   5.100  16.483 -0.6081  0.3002 -0.4197
 7408TIP3    H143639   6.654   5.167  16.511 -0.9158 -0.3478  0.4685
 7408TIP3    H243640   6.664   5.034  16.438 -0.5124 -0.0700  0.0092
 7409TIP3   OH243641   5.738   0.504  12.161 -0.7421 -0.2072  0.3211
 7409TIP3    H143642   5.771   0.593  12.150  1.5648 -0.9859  0.4190
 7409TIP3    H243643   5.809   0.458  12.205 -2.8079 -1.5282  2.5497
 7410TIP3   OH243644   4.895   3.674   1.332  0.4333 -0.0549  0.8063
 7410TIP3    H143645   4.876   3.627   1.414 -1.1440 -0.5632  0.1698
 7410TIP3    H243646   4.869   3.764   1.349 -1.4141 -0.4710  0.3921
 7411TIP3   OH243647   2.650   3.830   3.392 -0.0126  0.2034  0.0639
 7411TIP3    H143648   2.561   3.847   3.421  0.2937  0.6278  0.7856
 7411TIP3    H243649   2.687   3.774   3.460  0.8871  1.6358  0.8024
 7412TIP3   OH243650   1.766   3.614   3.067 -0.1056  0.1292  0.5184
 7412TIP3    H143651   1.837   3.563   3.028  0.4507 -0.1546  1.8518
 7412TIP3    H243652   1.794   3.630   3.157 -1.6781  0.1377  1.0390
 7413TIP3   OH243653   5.346   2.866  10.785 -0.0849 -0.1435  0.0269
 7413TIP3    H143654   5.300   2.790  10.820 -0.9573  1.5512  2.8856
 7413TIP3    H243655   5.287   2.940  10.801  0.8234  1.2499 -2.4113
 7414TIP3   OH243656   1.257   4.506   2.579  0.1560 -0.3879  0.2662
 7414TIP3    H143657   1.211   4.584   2.611  0.3282 -0.0395 -0.3295
 7414TIP3    H243658   1.275   4.455   2.658  1.6053  1.0115  0.8735
 7415TIP3   OH243659   1.403   0.479   0.748  0.2792 -0.1624  0.1232
 7415TIP3    H143660   1.337   0.548   0.734  0.2110 -0.7587 -3.5705
 7415TIP3    H243661   1.360   0.417   0.807 -1.4554  0.7490 -0.0947
 7416TIP3   OH243662   4.430   0.798  12.121 -0.0721 -1.3255 -0.1675
 7416TIP3    H143663   4.381   0.720  12.145 -1.6707 -0.3377 -0.0535
 7416TIP3    H243664   4.416   0.808  12.027  0.9311 -1.6796 -0.3724
 7417TIP3   OH243665   3.757   1.052   4.019 -0.0414  0.2859 -0.5135
 7417TIP3    H143666   3.668   1.066   3.986  0.7742  1.4410 -2.3878
 7417TIP3    H243667   3.805   1.130   3.990  1.4985 -0.1500  0.7775
 7418TIP3   OH243668   2.443   6.420  16.497 -1.0509  0.0401 -0.1347
 7418TIP3    H143669   2.419   6.331  16.471  0.9547 -0.4485 -0.4978
 7418TIP3    H243670   2.481   6.410  16.584 -2.6269  0.8725  0.6964
 7419TIP3   OH243671   1.246   2.591   3.085 -0.6595 -0.2362 -0.0182
 7419TIP3    H143672   1.240   2.663   3.148 -1.4492  0.0521 -0.4112
 7419TIP3    H243673   1.183   2.527   3.117  0.2729 -0.9095  0.5100
 7420TIP3   OH243674   0.622   3.783  12.502 -0.0241 -0.5604  0.0260
 7420TIP3    H143675   0.679   3.817  12.571  1.0926 -0.0329 -1.1134
 7420TIP3    H243676   0.682   3.746  12.438 -1.0475 -1.1520 -0.6068
 7421TIP3   OH243677   1.466   4.616  12.241 -0.3387  0.2447 -0.0300
 7421TIP3    H143678   1.561   4.616  12.238 -0.2816 -1.3913  0.7221
 7421TIP3    H243679   1.439   4.635  12.151  0.6993 -0.3896 -0.4853
 7422TIP3   OH243680   0.668   1.291   4.125  0.3854  0.3973 -0.5403
 7422TIP3    H143681   0.622   1.313   4.205  1.7026 -1.5820  0.8509
 7422TIP3    H243682   0.755   1.331   4.135  0.9160 -0.7316 -0.4609
 7423TIP3   OH243683   5.752   2.041  12.866 -0.5163 -0.2711  0.4944
 7423TIP3    H143684   5.820   1.976  12.879  0.3114  0.3154 -0.8030
 7423TIP3    H243685   5.741   2.081  12.953  1.2602  0.0699  0.6048
 7424TIP3   OH243686   1.033   5.148  11.668 -0.2208  0.1510 -0.8229
 7424TIP3    H143687   0.991   5.124  11.585 -0.7056  1.3176 -0.9380
 7424TIP3    H243688   1.051   5.242  11.660  1.1325 -0.0351 -0.1980
 7425TIP3   OH243689   5.813   5.741   0.766  0.0238  0.2358 -0.4622
 7425TIP3    H143690   5.845   5.673   0.708 -2.7649 -1.3954 -0.3094
 7425TIP3    H243691   5.884   5.756   0.828  0.5154 -3.2111 -0.0008
 7426TIP3   OH243692   3.248   0.321  16.509  0.4263 -0.0969 -0.1144
 7426TIP3    H143693   3.211   0.245  16.465  1.6609 -0.2574 -0.9174
 7426TIP3    H243694   3.341   0.320  16.485  0.4328  1.7631 -0.2761
 7427TIP3   OH243695   5.437   5.022  13.317  0.2305  0.2962 -0.2347
 7427TIP3    H143696   5.413   4.983  13.233  1.8189  1.3072 -1.2244
 7427TIP3    H243697   5.387   5.104  13.320  0.8171  0.6750 -0.6156
 7428TIP3   OH243698   5.135   3.116  12.306  0.9099  0.7327  0.0004
 7428TIP3    H143699   5.121   3.026  12.337 -0.1387  0.7962 -0.2358
 7428TIP3    H243700   5.229   3.130  12.314  1.3028 -0.8618 -1.2308
 7429TIP3   OH243701   3.315   6.335   3.794  0.7336  0.4224  0.5763
 7429TIP3    H143702   3.380   6.300   3.733  1.1453  1.0106  0.6644
 7429TIP3    H243703   3.356   6.326   3.881  1.0078  1.4210  0.5704
 7430TIP3   OH243704   2.376   1.211  12.018 -0.2011  0.7032 -0.0852
 7430TIP3    H143705   2.306   1.254  11.969 -1.5868 -0.2283  1.0182
 7430TIP3    H243706   2.412   1.280  12.074 -1.0760  0.9125  0.2326
 7431TIP3   OH243707   0.188   5.373   6.399  0.4310  0.2762 -0.0271
 7431TIP3    H143708   0.184   5.278   6.384 -1.2860  0.3924 -0.4543
 7431TIP3    H243709   0.189   5.411   6.311 -0.6612  0.6922  0.1273
 7432TIP3   OH243710   2.974   5.570   1.831  0.3656  0.2307 -0.2550
 7432TIP3    H143711   2.979   5.665   1.841 -0.4942  0.3308 -0.7475
 7432TIP3    H243712   2.895   5.544   1.878 -1.2421  0.1790 -2.7802
 7433TIP3   OH243713   2.241   5.181  16.142 -0.2410 -0.0899 -0.3108
 7433TIP3    H143714   2.269   5.242  16.210 -1.8861  2.8125 -2.0358
 7433TIP3    H243715   2.295   5.205  16.066 -1.5239 -0.1062 -1.2674
 7434TIP3   OH243716   0.737   6.167   0.988 -0.4843  0.4538  0.2574
 7434TIP3    H143717   0.718   6.107   1.060 -0.8611  2.0031  1.5134
 7434TIP3    H243718   0.676   6.142   0.918 -0.5731 -0.6453  0.7094
 7435TIP3   OH243719   5.266   0.361  14.262  0.5298  0.5640 -0.0898
 7435TIP3    H143720   5.263   0.274  14.223  2.0981  1.0047 -1.3330
 7435TIP3    H243721   5.216   0.416  14.202 -1.3582  0.3840  1.2405
 7436TIP3   OH243722   5.107   3.089   5.656 -0.0429  0.0414  0.3047
 7436TIP3    H143723   5.030   3.134   5.691 -0.3515 -0.4175  0.2177
 7436TIP3    H243724   5.174   3.158   5.649  0.1666  0.0799  2.1729
 7437TIP3   OH243725   6.186   1.423  12.070 -0.3216 -0.1728 -0.6022
 7437TIP3    H143726   6.149   1.509  12.087  1.9604  1.0249 -1.2654
 7437TIP3    H243727   6.155   1.369  12.143 -1.4258  1.3225  0.0830
 7438TIP3   OH243728   5.080   6.304  16.775 -0.7658  0.7988  0.4756
 7438TIP3    H143729   5.003   6.345  16.815 -0.0536  0.4078  2.3657
 7438TIP3    H243730   5.149   6.312  16.842  0.6219  0.4222 -0.8402
 7439TIP3   OH243731   5.013   4.742  10.588 -0.0160  0.5365 -0.4274
 7439TIP3    H143732   4.936   4.710  10.636 -1.4793  1.3485 -2.1219
 7439TIP3    H243733   5.048   4.664  10.545 -0.6527  0.3695 -0.6531
 7440TIP3   OH243734   1.673   3.210   4.494 -0.5350  0.2128  0.5601
 7440TIP3    H143735   1.698   3.297   4.462  1.4909  0.0886  1.6378
 7440TIP3    H243736   1.636   3.226   4.581 -3.1924  0.2536 -0.4948
 7441TIP3   OH243737   6.586   2.968  13.349  0.1570  0.5203 -0.3069
 7441TIP3    H143738   6.493   2.948  13.360 -0.4627  3.4525  0.4865
 7441TIP3    H243739   6.588   3.051  13.302  2.4139  0.2998 -0.7315
 7442TIP3   OH243740   5.232   3.353   2.653 -0.2138 -0.3923  0.3917
 7442TIP3    H143741   5.177   3.297   2.708 -1.3836  0.6847  0.3717
 7442TIP3    H243742   5.290   3.292   2.607 -1.0353 -1.5286  0.8155
 7443TIP3   OH243743   2.328   1.739  12.302  0.3077  0.1087  0.2971
 7443TIP3    H143744   2.261   1.672  12.289 -0.0551  0.7533 -1.3793
 7443TIP3    H243745   2.283   1.822  12.289  0.9431  0.6695  1.4698
 7444TIP3   OH243746   5.071   3.588   3.330  0.2467  0.1850  0.5436
 7444TIP3    H143747   5.003   3.526   3.354  0.4195  0.3891  1.5806
 7444TIP3    H243748   5.151   3.552   3.367  0.6665  0.0996 -0.4121
 7445TIP3   OH243749   3.073   2.258   0.238 -0.0156  0.2555  0.5002
 7445TIP3    H143750   3.128   2.213   0.303 -0.2666  0.5387  0.9168
 7445TIP3    H243751   3.132   2.276   0.165  0.2747 -0.0637  0.6525
 7446TIP3   OH243752   5.639   1.591   5.816  0.3500 -0.5386  0.3096
 7446TIP3    H143753   5.607   1.629   5.898  0.4325  0.6961 -0.2085
 7446TIP3    H243754   5.582   1.516   5.801 -1.6318  0.9464 -0.0211
 7447TIP3   OH243755   2.312   3.716   3.308  0.1733 -0.5633 -0.3790
 7447TIP3    H143756   2.251   3.651   3.271 -0.5113  0.0835 -0.4037
 7447TIP3    H243757   2.270   3.800   3.292  0.2627 -0.2123  1.1200
 7448TIP3   OH243758   2.187   1.206  15.388 -0.2682  1.1813 -0.3660
 7448TIP3    H143759   2.272   1.172  15.416 -0.9452 -0.2647  0.0560
 7448TIP3    H243760   2.158   1.144  15.321 -1.0751  1.5633 -0.3780
 7449TIP3   OH243761   0.504   4.999  17.030  0.0167 -0.1540 -0.2392
 7449TIP3    H143762   0.560   5.073  17.008 -0.5297  0.4668  0.3659
 7449TIP3    H243763   0.561   4.939  17.077  0.7808 -0.7320 -1.8346
 7450TIP3   OH243764   0.584   6.430   4.005 -0.3268 -0.3891  0.0784
 7450TIP3    H143765   0.650   6.490   3.969  1.3454 -0.4649  2.7434
 7450TIP3    H243766   0.622   6.343   3.993 -1.2363 -0.6882 -0.7873
 7451TIP3   OH243767   6.551   1.155   2.914 -0.0593  0.6692 -0.1242
 7451TIP3    H143768   6.617   1.103   2.868  0.3634 -0.9512  2.1244
 7451TIP3    H243769   6.470   1.105   2.905 -0.2831  1.0668 -0.3121
 7452TIP3   OH243770   6.246   1.644  11.086  0.1481  0.0759  0.1391
 7452TIP3    H143771   6.278   1.729  11.118  0.0210 -0.4706  1.7581
 7452TIP3    H243772   6.242   1.656  10.991  3.9998  0.5909 -0.1314
 7453TIP3   OH243773   4.346   5.792  15.985 -0.0416 -0.1376 -0.2522
 7453TIP3    H143774   4.345   5.784  15.890 -2.8286 -0.5224 -0.2836
 7453TIP3    H243775   4.307   5.710  16.016  0.1341  0.2986  1.1658
 7454TIP3   OH243776   5.412   6.755   2.736 -0.0303  0.4371  0.3956
 7454TIP3    H143777   5.456   6.793   2.812  2.0883 -0.7657 -0.1553
 7454TIP3    H243778   5.457   6.794   2.661 -0.3679 -0.3079 -0.2083
 7455TIP3   OH243779   3.587   5.997  15.941 -0.2229 -0.1757  0.1438
 7455TIP3    H143780   3.534   6.039  16.009 -0.2251 -1.2616  0.8433
 7455TIP3    H243781   3.537   5.918  15.918 -0.4371  0.3888 -1.4443
 7456TIP3   OH243782   3.662   4.396   1.152  0.1731  0.0536  0.0904
 7456TIP3    H143783   3.751   4.377   1.124  0.2442 -1.4655  1.1972
 7456TIP3    H243784   3.669   4.418   1.245 -0.6038 -0.1682  0.2134
 7457TIP3   OH243785   5.410   0.761   3.779  0.4118 -0.3817 -0.0985
 7457TIP3    H143786   5.415   0.806   3.695  1.8969 -0.6697 -0.1919
 7457TIP3    H243787   5.359   0.682   3.761 -1.5722  0.8374 -0.0985
 7458TIP3   OH243788   3.652   0.519   6.423  0.9682  0.5430 -0.6054
 7458TIP3    H143789   3.668   0.433   6.463 -1.5392 -0.9246 -2.4389
 7458TIP3    H243790   3.714   0.524   6.351  1.0190  0.1825 -0.5897
 7459TIP3   OH243791   1.189   1.700  11.289 -0.3101  0.2651  0.3244
 7459TIP3    H143792   1.254   1.630  11.280 -1.4055 -0.8333  0.6847
 7459TIP3    H243793   1.105   1.656  11.280 -1.0300  1.7928 -1.0496
 7460TIP3   OH243794   4.139   6.322   3.427  0.6206 -0.3569  0.5400
 7460TIP3    H143795   4.096   6.328   3.512  1.4223  2.8787  0.8494
 7460TIP3    H243796   4.112   6.237   3.392 -0.6752 -1.2762  3.4844
 7461TIP3   OH243797   5.277   1.008  16.002 -0.2903  0.4498  0.3780
 7461TIP3    H143798   5.237   1.068  16.065  0.6397  0.2498  1.1922
 7461TIP3    H243799   5.276   1.055  15.919  0.9219  1.8670  1.1080
 7462TIP3   OH243800   2.166   2.361   3.000 -0.0842 -0.7688 -0.6086
 7462TIP3    H143801   2.147   2.427   2.932 -2.3047 -1.4670 -0.7607
 7462TIP3    H243802   2.256   2.378   3.026 -0.2465  1.6517 -1.3911
 7463TIP3   OH243803   2.114   6.441   0.514  0.1119 -0.0577  0.6653
 7463TIP3    H143804   2.187   6.396   0.557  0.8089 -0.2409 -0.6549
 7463TIP3    H243805   2.057   6.370   0.484 -1.9219  0.1050  3.7414
 7464TIP3   OH243806   0.768   0.759   0.859 -0.1212  0.0585  0.4602
 7464TIP3    H143807   0.756   0.821   0.786  0.0453 -0.8610 -0.3695
 7464TIP3    H243808   0.680   0.725   0.875 -0.3794  1.2025  1.5632
 7465TIP3   OH243809   5.551   1.159   5.100 -0.5186  0.1325 -0.1410
 7465TIP3    H143810   5.574   1.087   5.159 -1.6776 -0.0562  0.0934
 7465TIP3    H243811   5.590   1.236   5.141  1.7101 -0.4542 -0.9607
 7466TIP3   OH243812   5.030   1.835  15.215  0.0730  1.0770 -0.4558
 7466TIP3    H143813   5.070   1.761  15.262  0.1437  1.3521 -0.0748
 7466TIP3    H243814   5.060   1.825  15.125  0.1223  0.6672 -0.3961
 7467TIP3   OH243815   4.124   1.339   5.654  0.1998 -0.2920  0.4818
 7467TIP3    H143816   4.086   1.366   5.570  0.5671  1.7066  0.9093
 7467TIP3    H243817   4.216   1.364   5.648  0.3269 -0.5151  1.3270
 7468TIP3   OH243818   0.820   4.375  13.500 -0.3712 -0.2417  0.2826
 7468TIP3    H143819   0.789   4.322  13.573 -0.8482  1.6158  1.4762
 7468TIP3    H243820   0.741   4.413  13.462  0.1351  2.6289  1.8680
 7469TIP3   OH243821   3.952   0.859   3.451 -0.1666 -0.4636 -0.9358
 7469TIP3    H143822   4.022   0.908   3.494 -1.2810  1.8106 -1.5267
 7469TIP3    H243823   3.993   0.824   3.372  0.3185  0.9675 -1.3574
 7470TIP3   OH243824   1.384   3.854  13.755 -0.4219 -0.4201  0.3295
 7470TIP3    H143825   1.412   3.776  13.707  0.4722 -0.0732  0.2719
 7470TIP3    H243826   1.297   3.874  13.719  0.2326 -0.1438 -1.1857
 7471TIP3   OH243827   3.612   1.005  16.978  0.7925  0.6748 -0.3673
 7471TIP3    H143828   3.586   1.061  17.051  0.7376 -0.3752  0.4286
 7471TIP3    H243829   3.677   0.945  17.015  1.9829  1.1623 -1.5602
 7472TIP3   OH243830   0.861   4.801   3.148  0.2011 -0.0922  0.5438
 7472TIP3    H143831   0.916   4.804   3.071  0.5451 -2.1170  0.6622
 7472TIP3    H243832   0.884   4.880   3.197  0.3778  0.9270 -1.1201
 7473TIP3   OH243833   2.381   6.774  11.526 -0.1433 -0.0785  0.0731
 7473TIP3    H143834   2.350   6.726  11.449 -2.4977  0.8877  0.3174
 7473TIP3    H243835   2.418   6.706  11.583 -2.5723 -1.5790  0.0240
 7474TIP3   OH243836   0.217   1.670  16.430  0.3848 -0.0229 -0.3748
 7474TIP3    H143837   0.213   1.697  16.522  0.5924  0.4863 -0.5093
 7474TIP3    H243838   0.253   1.582  16.432 -2.6183 -1.3591  0.2577
 7475TIP3   OH243839   2.836   5.084  16.555  0.0254 -0.2204 -0.1142
 7475TIP3    H143840   2.779   5.007  16.556  0.7522 -0.8405 -1.7825
 7475TIP3    H243841   2.850   5.101  16.461  0.5168  1.4676  0.2433
 7476TIP3   OH243842   0.072   4.814  16.096 -0.4399 -0.4668  0.4590
 7476TIP3    H143843   0.075   4.895  16.045  1.5717 -0.5831  0.2906
 7476TIP3    H243844  -0.021   4.798  16.111 -0.9951  0.6621 -1.4307
 7477TIP3   OH243845   3.761   2.048   3.091  0.0182  0.2316 -0.3013
 7477TIP3    H143846   3.674   2.053   3.050  0.2988  0.4862 -0.8713
 7477TIP3    H243847   3.793   1.960   3.069  1.0491  1.0835 -2.4625
 7478TIP3   OH243848   5.542   4.105   2.375  0.3376  0.0576 -0.4033
 7478TIP3    H143849   5.535   4.191   2.333 -1.5556 -0.0288 -0.3681
 7478TIP3    H243850   5.451   4.077   2.387  0.8923 -2.2530 -1.0135
 7479TIP3   OH243851   6.771   3.462   5.629 -0.2720  0.7373 -0.0972
 7479TIP3    H143852   6.757   3.391   5.693  0.5454 -0.3077 -1.0365
 7479TIP3    H243853   6.765   3.419   5.544  2.3338  1.3261 -0.6874
 7480TIP3   OH243854   3.333   5.690  12.596 -0.4880  0.5559 -0.0800
 7480TIP3    H143855   3.265   5.744  12.637  2.2389  2.6921  2.0678
 7480TIP3    H243856   3.398   5.753  12.565  1.2896 -1.3843 -0.5286
 7481TIP3   OH243857   6.150   1.387  14.608  0.1920 -0.9080 -0.3120
 7481TIP3    H143858   6.163   1.468  14.560  0.9414  0.7493  2.4726
 7481TIP3    H243859   6.055   1.382  14.622 -0.0981 -1.6494 -2.1624
 7482TIP3   OH243860   2.869   5.321  17.000  0.2716 -0.3018 -0.4549
 7482TIP3    H143861   2.916   5.397  16.967  0.3912 -0.4031 -0.5188
 7482TIP3    H243862   2.803   5.357  17.059  1.0592 -0.2177  0.3993
 7483TIP3   OH243863   4.912   6.590   6.351  0.6073 -0.0632 -0.3399
 7483TIP3    H143864   4.945   6.640   6.276 -0.6371  0.5434 -0.5001
 7483TIP3    H243865   4.830   6.633   6.375 -1.8782 -3.3675 -2.0349
 7484TIP3   OH243866   1.688   1.117   3.950 -0.2835  0.8881 -0.2524
 7484TIP3    H143867   1.737   1.040   3.978  0.4824  1.6181  0.4903
 7484TIP3    H243868   1.597   1.087   3.945 -0.3375  0.4578  2.1869
 7485TIP3   OH243869   5.052   5.465   3.766 -0.5202 -0.0925  0.0823
 7485TIP3    H143870   4.979   5.522   3.792 -1.4149 -1.2552  0.1828
 7485TIP3    H243871   5.125   5.492   3.822 -1.6629 -0.7939  2.0069
 7486TIP3   OH243872   2.211   0.531   6.249 -0.4962  0.6932  0.1305
 7486TIP3    H143873   2.287   0.480   6.222 -0.8375  0.2652 -0.0391
 7486TIP3    H243874   2.246   0.616   6.274  0.0728  0.4068  0.3196
 7487TIP3   OH243875   3.338   6.236   1.011  0.0364  0.7903  0.2061
 7487TIP3    H143876   3.353   6.220   1.104  0.0074  1.3531  0.3148
 7487TIP3    H243877   3.397   6.176   0.966 -0.0208  0.4474  0.5869
 7488TIP3   OH243878   5.999   3.960   2.814  0.5641  0.1924 -0.0400
 7488TIP3    H143879   5.918   3.963   2.864  1.2346 -0.7407  1.1751
 7488TIP3    H243880   6.043   3.881   2.845  2.2970  1.0878 -0.0733
 7489TIP3   OH243881   6.652   3.407  13.464  0.1532 -0.1079  0.6643
 7489TIP3    H143882   6.693   3.334  13.419 -0.9145 -1.8695  2.3868
 7489TIP3    H243883   6.633   3.471  13.395  3.3560 -0.3106 -0.5387
 7490TIP3   OH243884   0.677   1.662  11.901  0.3016 -0.9230  0.4158
 7490TIP3    H143885   0.717   1.747  11.882  1.0373 -1.4137 -0.3210
 7490TIP3    H243886   0.590   1.667  11.861  0.8482 -0.9845 -0.8444
 7491TIP3   OH243887   1.973   0.908  13.413 -0.2341  0.1177  0.3185
 7491TIP3    H143888   2.010   0.820  13.418  0.7006  0.4626 -0.2683
 7491TIP3    H243889   1.918   0.907  13.335  1.2934  0.5792 -0.8122
 7492TIP3   OH243890   3.104   1.425  13.462 -0.1548 -0.2084 -0.7780
 7492TIP3    H143891   3.066   1.456  13.545  2.2033  0.4825  0.1112
 7492TIP3    H243892   3.140   1.339  13.483 -0.0094 -0.2602 -1.2410
 7493TIP3   OH243893   5.911   0.854  13.979 -0.4839  0.1203  0.2508
 7493TIP3    H143894   5.836   0.879  13.925 -0.8662 -0.4027  0.5414
 7493TIP3    H243895   5.974   0.926  13.967  0.0003 -0.5946 -1.9557
 7494TIP3   OH243896   6.502   6.380  12.534  0.6583 -0.2168  0.2087
 7494TIP3    H143897   6.449   6.449  12.493 -1.4189 -1.3625  0.8344
 7494TIP3    H243898   6.578   6.371  12.477  2.2928  4.1468  1.3009
 7495TIP3   OH243899   6.441   5.133  16.855 -0.1160  0.1646  0.6330
 7495TIP3    H143900   6.448   5.214  16.804 -0.5871 -0.1045  0.1222
 7495TIP3    H243901   6.473   5.065  16.796 -0.6219 -0.1460  0.7135
 7496TIP3   OH243902   1.803   0.277  13.191  0.2835  0.5654  0.2743
 7496TIP3    H143903   1.728   0.277  13.131  0.2823  0.5609  0.2754
 7496TIP3    H243904   1.772   0.324  13.268  0.0165 -0.1163  0.5958
 7497TIP3   OH243905   5.119   3.855  12.947  0.7782 -0.6619  0.4563
 7497TIP3    H143906   5.176   3.815  13.014  1.4043 -0.2234  0.1973
 7497TIP3    H243907   5.030   3.842  12.981  1.0286 -1.2867  0.9118
 7498TIP3   OH243908   2.158   5.900   2.699 -0.6125  0.4834 -0.0742
 7498TIP3    H143909   2.214   5.971   2.669 -1.0744  0.9094  0.0676
 7498TIP3    H243910   2.116   5.934   2.778 -0.0024 -0.3429  0.6264
 7499TIP3   OH243911   6.319   0.899   4.249  1.0082 -0.3151  0.4407
 7499TIP3    H143912   6.397   0.859   4.287  0.4299 -1.5143  0.3853
 7499TIP3    H243913   6.272   0.937   4.324  0.4611 -1.6594  0.8012
 7500TIP3   OH243914   2.579   3.498  13.483  0.6559 -0.0266 -0.3597
 7500TIP3    H143915   2.490   3.468  13.502  0.2830  1.0551 -0.3263
 7500TIP3    H243916   2.598   3.463  13.396  0.1841 -0.2268 -0.3847
 7501TIP3   OH243917   6.195   3.139   1.236 -0.1121  0.0866  0.8039
 7501TIP3    H143918   6.232   3.173   1.155 -0.2192 -1.2225  0.1794
 7501TIP3    H243919   6.267   3.141   1.299  0.6301 -1.0395  0.0194
 7502TIP3   OH243920   1.375   3.312   2.036  0.6636 -0.9206 -0.2933
 7502TIP3    H143921   1.432   3.238   2.058  0.4592 -0.7145  1.0127
 7502TIP3    H243922   1.292   3.272   2.013  1.1737 -1.1965 -1.7176
 7503TIP3   OH243923   2.735   0.398  14.645  0.4034  0.5720 -0.2589
 7503TIP3    H143924   2.699   0.429  14.562  1.0598  1.3378 -0.2718
 7503TIP3    H243925   2.783   0.318  14.623  2.1362  1.7522 -0.9702
 7504TIP3   OH243926   5.887   0.969  15.340  0.5971 -0.1566  0.2720
 7504TIP3    H143927   5.931   0.930  15.265  0.9865  1.3125 -0.2868
 7504TIP3    H243928   5.921   0.921  15.415  0.7901 -1.1193 -0.4104
 7505TIP3   OH243929   2.738   6.740   1.326  0.0175 -0.3322 -0.0649
 7505TIP3    H143930   2.664   6.793   1.297  2.8933  3.1194 -1.8499
 7505TIP3    H243931   2.763   6.778   1.410 -0.4986 -1.9051  0.8515
 7506TIP3   OH243932   2.985   0.369   0.463  0.0171  0.1188  0.1739
 7506TIP3    H143933   3.059   0.310   0.476 -0.3655 -0.5382 -0.5559
 7506TIP3    H243934   2.909   0.312   0.459 -0.4309  0.7136  0.0586
 7507TIP3   OH243935   4.283   6.002   1.630 -0.3753  0.0049  0.4664
 7507TIP3    H143936   4.311   5.974   1.717 -1.2731  0.2371  0.8342
 7507TIP3    H243937   4.365   6.011   1.581  0.2721  1.4021  1.7255
 7508TIP3   OH243938   2.551   0.820   1.188 -0.3736  0.5133  0.1494
 7508TIP3    H143939   2.598   0.875   1.125  3.2363 -0.6933  1.5087
 7508TIP3    H243940   2.540   0.737   1.143 -0.4590  0.5543  0.0951
 7509TIP3   OH243941   5.677   5.328  12.107  0.1974  0.5582  0.2141
 7509TIP3    H143942   5.597   5.335  12.055  0.4124 -0.4228 -0.2745
 7509TIP3    H243943   5.695   5.417  12.136  0.3644  1.2424 -1.8453
 7510TIP3   OH243944   1.796   4.268  13.142  0.6376 -0.3823  0.2276
 7510TIP3    H143945   1.779   4.186  13.095  1.3307 -0.3419 -0.1176
 7510TIP3    H243946   1.772   4.337  13.079  1.0789 -0.3292  0.1081
 7511TIP3   OH243947   2.644   6.261  13.670 -0.1505 -0.0786  0.5529
 7511TIP3    H143948   2.646   6.356  13.685 -1.9943 -0.4405  4.1840
 7511TIP3    H243949   2.719   6.227  13.719 -0.4346 -0.6349  0.6102
 7512TIP3   OH243950   4.511   3.363   3.301 -0.9786  0.0002  0.1173
 7512TIP3    H143951   4.427   3.372   3.256 -0.8362  0.9155  0.0118
 7512TIP3    H243952   4.570   3.328   3.234 -0.9202  0.7617 -0.2354
 7513TIP3   OH243953   5.423   2.300  15.341 -0.1979 -0.3175  1.0021
 7513TIP3    H143954   5.358   2.248  15.292 -1.7033 -0.9288  3.4925
 7513TIP3    H243955   5.479   2.234  15.382 -1.5839 -0.0849  3.4668
 7514TIP3   OH243956   0.706   3.003  10.570 -0.1762 -0.5706  0.1392
 7514TIP3    H143957   0.648   3.077  10.587 -0.4208 -0.5841 -0.5667
 7514TIP3    H243958   0.662   2.956  10.498 -1.4132 -2.8679  2.2465
 7515TIP3   OH243959   0.596   2.319  13.709  0.3643  0.2856 -0.2911
 7515TIP3    H143960   0.564   2.245  13.658  0.2277  0.8740 -1.0761
 7515TIP3    H243961   0.576   2.296  13.800  1.3561 -1.1463 -0.4056
 7516TIP3   OH243962   0.453   4.147  10.651  0.3498 -0.4292  0.5460
 7516TIP3    H143963   0.423   4.092  10.724 -0.4481 -0.1542  0.4361
 7516TIP3    H243964   0.398   4.121  10.577  1.8111 -1.4084 -0.2445
 7517TIP3   OH243965   2.191   1.954   2.081 -0.6525  0.6966 -0.2161
 7517TIP3    H143966   2.152   2.041   2.072 -1.7821  0.3185  0.8569
 7517TIP3    H243967   2.284   1.972   2.095 -0.8120  1.7072 -0.3501
 7518TIP3   OH243968   0.441   3.437  11.799  0.1289  0.5575 -0.1332
 7518TIP3    H143969   0.387   3.392  11.863 -0.3810  1.8588  0.3899
 7518TIP3    H243970   0.400   3.418  11.714 -0.1525  0.1571  0.0938
 7519TIP3   OH243971   0.199   3.113  11.281  0.4078 -0.6248 -0.2540
 7519TIP3    H143972   0.161   3.070  11.205  1.3509 -1.8521 -0.0601
 7519TIP3    H243973   0.143   3.087  11.354 -0.6446  0.7537 -0.5242
 7520TIP3   OH243974   2.331   0.859   2.767  0.2525 -0.5018 -0.2714
 7520TIP3    H143975   2.374   0.930   2.719  2.9140 -1.5069  0.4491
 7520TIP3    H243976   2.362   0.779   2.724 -1.3056 -1.2920  0.0252
 7521TIP3   OH243977   5.962   2.079   3.062  0.2014 -0.6256 -0.3128
 7521TIP3    H143978   5.928   2.144   3.123 -1.8894 -0.6175 -1.3793
 7521TIP3    H243979   5.918   1.998   3.088 -0.3371 -0.7196 -1.4784
 7522TIP3   OH243980   0.244   0.572   6.157  0.1012  0.6297  0.2706
 7522TIP3    H143981   0.151   0.591   6.143 -0.1007 -1.7623 -2.6071
 7522TIP3    H243982   0.290   0.648   6.122 -0.6802  2.0753  2.1962
 7523TIP3   OH243983   4.516   1.315   1.469 -0.4286 -0.5791  0.6933
 7523TIP3    H143984   4.607   1.295   1.491 -0.6132 -2.3260  0.0479
 7523TIP3    H243985   4.474   1.229   1.462 -2.1514  0.1929  1.0411
 7524TIP3   OH243986   0.236   5.522   2.073  0.1622  0.1217  0.1759
 7524TIP3    H143987   0.268   5.502   2.161  2.5358  1.4149 -0.3061
 7524TIP3    H243988   0.174   5.594   2.086 -1.4113 -1.2957  0.9657
 7525TIP3   OH243989   2.334   3.396   1.053 -0.1680  0.7267  0.1292
 7525TIP3    H143990   2.405   3.368   1.110  0.9714  0.8671 -1.1712
 7525TIP3    H243991   2.254   3.370   1.099  0.7237 -3.2159 -0.1639
 7526TIP3   OH243992   2.211   0.911  12.756  0.5701  0.0874  0.0912
 7526TIP3    H143993   2.283   0.916  12.818  0.6086  2.8713 -0.0809
 7526TIP3    H243994   2.210   0.996  12.712 -2.2614 -0.1536 -0.5190
 7527TIP3   OH243995   2.882   1.659  12.675 -0.1156 -0.1924  0.6456
 7527TIP3    H143996   2.816   1.601  12.638  0.5388  0.1145 -1.1091
 7527TIP3    H243997   2.863   1.745  12.636  0.5855  0.1613  1.0600
 7528TIP3   OH243998   1.751   3.745  16.333  0.3819  0.0350  0.2415
 7528TIP3    H143999   1.673   3.691  16.319  0.9846 -0.5879 -0.7960
 7528TIP3    H244000   1.824   3.690  16.307  1.2819  0.2900  2.0064
 7529TIP3   OH244001   4.369   1.944  12.891  0.5170  0.1299  0.1057
 7529TIP3    H144002   4.356   1.859  12.935  0.5256  0.0971  0.0449
 7529TIP3    H244003   4.449   1.933  12.841 -0.1253 -0.2370 -0.8731
 7530TIP3   OH244004   0.071   1.259   0.515  0.4716 -0.4279  0.0156
 7530TIP3    H144005   0.084   1.280   0.608 -1.2499  0.5247  0.0782
 7530TIP3    H244006  -0.009   1.208   0.513  2.1783 -3.3021 -0.6601
 7531TIP3   OH244007   0.619   2.382   5.499 -0.2932  0.0946  0.1788
 7531TIP3    H144008   0.633   2.456   5.559 -0.2155 -0.0185  0.3032
 7531TIP3    H244009   0.608   2.307   5.558  0.1347 -0.0781  0.0463
 7532TIP3   OH244010   4.572   5.824  12.287 -0.2144 -0.2724 -0.7273
 7532TIP3    H144011   4.542   5.851  12.200 -0.9386 -0.5752 -0.5825
 7532TIP3    H244012   4.656   5.867  12.299  0.1695 -0.6889 -1.8213
 7533TIP3   OH244013   4.558   6.042  11.210  0.4760 -0.2472  0.0519
 7533TIP3    H144014   4.611   6.097  11.151  0.3531  0.7313  0.8150
 7533TIP3    H244015   4.492   6.102  11.245  0.6157 -0.7673  1.2569
 7534TIP3   OH244016   3.389   6.739  12.884  0.4998 -0.3899  0.1285
 7534TIP3    H144017   3.439   6.761  12.805  0.0181  0.9672  0.1633
 7534TIP3    H244018   3.297   6.751  12.858  0.1382 -2.7445  0.0921
 7535TIP3   OH244019   3.876   6.029   5.129 -0.2658  1.0192  0.3462
 7535TIP3    H144020   3.967   6.037   5.157 -0.1070  2.2732 -0.4476
 7535TIP3    H244021   3.841   6.118   5.135 -1.0309  0.8086 -0.6597
 7536TIP3   OH244022   2.395   5.513  12.682  0.2565  0.5913 -0.0445
 7536TIP3    H144023   2.336   5.569  12.732  0.8975  0.9297  0.3549
 7536TIP3    H244024   2.449   5.469  12.748 -0.7384 -1.1181 -0.2937
 7537TIP3   OH244025   6.465   4.029   4.605  0.3558 -0.0316  0.8381
 7537TIP3    H144026   6.556   4.049   4.580  0.8669 -1.8265  1.1538
 7537TIP3    H244027   6.464   3.934   4.617 -1.7376 -0.1305  0.2050
 7538TIP3   OH244028   4.035   2.242   3.937 -0.7081  0.0680 -0.0110
 7538TIP3    H144029   3.990   2.157   3.942 -1.8318  0.6577  0.0639
 7538TIP3    H244030   4.118   2.221   3.894 -0.7860 -1.1399  0.3707
 7539TIP3   OH244031   5.644   6.256  16.420 -0.2462  0.4768 -0.1342
 7539TIP3    H144032   5.685   6.190  16.477  2.2115  1.7014 -0.3342
 7539TIP3    H244033   5.651   6.219  16.332 -1.3246 -0.1224  0.0183
 7540TIP3   OH244034   6.612   2.306   4.349 -0.2917  0.4681 -0.3536
 7540TIP3    H144035   6.644   2.351   4.427 -0.4303  0.1442 -0.1078
 7540TIP3    H244036   6.656   2.221   4.351 -1.4938 -0.1610  0.2334
 7541TIP3   OH244037   6.777   2.782  12.678  1.0253 -0.0215  0.0013
 7541TIP3    H144038   6.784   2.718  12.607  1.3883 -0.0680  0.0784
 7541TIP3    H244039   6.729   2.855  12.639 -0.2210 -0.7150  0.1746
 7542TIP3   OH244040   4.205   3.890  14.458 -0.2328  0.7455  0.3028
 7542TIP3    H144041   4.265   3.823  14.425  2.6280  2.8146  0.9217
 7542TIP3    H244042   4.135   3.893  14.393  0.4426 -1.5629 -0.6601
 7543TIP3   OH244043   5.123   2.904   1.526  0.1529  0.5775 -0.1797
 7543TIP3    H144044   5.038   2.859   1.516 -0.8538  2.1094  1.0319
 7543TIP3    H244045   5.185   2.849   1.478 -1.5334 -0.5692 -1.1484
 7544TIP3   OH244046   2.262   5.429   2.576 -0.1911  0.2288  0.2922
 7544TIP3    H144047   2.280   5.513   2.618  1.6836 -0.3239  0.6983
 7544TIP3    H244048   2.195   5.448   2.510 -1.7272  1.5005  2.1399
 7545TIP3   OH244049   4.455   3.912   3.264  0.1807  0.3485 -0.2910
 7545TIP3    H144050   4.436   3.969   3.190  1.8112  3.2264  1.3530
 7545TIP3    H244051   4.407   3.951   3.338 -1.4110 -2.4338  0.3032
 7546TIP3   OH244052   2.611   4.710  13.503 -0.4593  0.0296 -0.3844
 7546TIP3    H144053   2.659   4.674  13.577  0.3388  0.5402 -0.6390
 7546TIP3    H244054   2.532   4.657  13.497 -0.2060 -0.4498  0.4069
 7547TIP3   OH244055   6.649   6.633  14.077 -0.1341 -0.0400 -0.6792
 7547TIP3    H144056   6.613   6.719  14.101 -0.1436 -0.6071  1.6035
 7547TIP3    H244057   6.616   6.617  13.989 -2.8189  0.9040  0.0469
 7548TIP3   OH244058   2.029   6.021  15.587  0.3633 -0.1787  0.1820
 7548TIP3    H144059   1.979   5.959  15.639  0.1789 -1.2894 -1.2592
 7548TIP3    H244060   2.012   5.996  15.496  1.8309  0.7726 -0.3964
 7549TIP3   OH244061   2.308   2.876   1.454 -0.1442 -0.5109 -0.3330
 7549TIP3    H144062   2.404   2.873   1.462  0.0012  1.6049 -0.6791
 7549TIP3    H244063   2.286   2.968   1.467 -2.0446 -0.7592 -1.4364
 7550TIP3   OH244064   6.125   2.493  16.922 -0.3161 -0.7987  0.0261
 7550TIP3    H144065   6.171   2.409  16.922 -0.6191 -1.0078  1.9584
 7550TIP3    H244066   6.032   2.470  16.931 -0.5289 -0.2739 -0.6875
 7551TIP3   OH244067   0.286   5.521  10.770  0.2341 -0.0720  0.4438
 7551TIP3    H144068   0.346   5.511  10.843 -0.5137 -1.0856  0.9520
 7551TIP3    H244069   0.218   5.455  10.785 -0.4086  0.2857 -0.6986
 7552TIP3   OH244070   3.343   1.811  11.764 -0.5310 -0.5980 -0.1565
 7552TIP3    H144071   3.330   1.727  11.720 -1.1242 -1.1214  0.9608
 7552TIP3    H244072   3.360   1.787  11.856 -1.6215  0.5381  0.3642
 7553TIP3   OH244073   0.100   4.412  11.191  0.4499  0.5145 -0.3577
 7553TIP3    H144074   0.123   4.321  11.173  1.7101  0.7348  0.0471
 7553TIP3    H244075   0.097   4.454  11.105  0.1029  0.1524 -0.5248
 7554TIP3   OH244076   6.807   5.088  12.034 -0.5150  0.4613  0.5891
 7554TIP3    H144077   6.811   5.136  12.116 -0.2309 -0.6506  1.2456
 7554TIP3    H244078   6.731   5.125  11.988 -0.7943  0.9586  1.4349
 7555TIP3   OH244079   5.529   0.531   2.635 -0.5339 -0.7384  0.3325
 7555TIP3    H144080   5.576   0.535   2.718 -2.3061  0.2948  1.3507
 7555TIP3    H244081   5.460   0.467   2.649 -0.8960 -0.5048 -0.3096
 7556TIP3   OH244082   4.680   1.756   4.097 -0.1551 -0.2551 -0.5633
 7556TIP3    H144083   4.765   1.715   4.080  0.6473  1.2180 -0.2556
 7556TIP3    H244084   4.657   1.797   4.014 -0.9119 -1.1984 -0.8405
 7557TIP3   OH244085   5.128   5.921   2.029  0.2849 -0.4820 -0.2979
 7557TIP3    H144086   5.063   5.870   1.981 -0.2499 -0.7283  0.6882
 7557TIP3    H244087   5.108   6.012   2.007 -0.9159 -0.5045  0.6363
 7558TIP3   OH244088   2.116   6.257  16.318 -0.0166  0.6999  0.2212
 7558TIP3    H144089   2.030   6.223  16.342 -0.1544  0.8917 -0.0020
 7558TIP3    H244090   2.100   6.315  16.243  0.2858  0.8466  0.2660
 7559TIP3   OH244091   5.362   5.191  16.537 -0.1924  0.0179 -0.6648
 7559TIP3    H144092   5.317   5.111  16.566 -0.4711  0.0716 -0.9452
 7559TIP3    H244093   5.335   5.202  16.446 -0.5663  0.7200 -0.4770
 7560TIP3   OH244094   2.029   0.519  11.677  0.4454  0.4126 -0.4182
 7560TIP3    H144095   2.060   0.552  11.761  0.3224  0.4858 -0.4006
 7560TIP3    H244096   1.988   0.595  11.635  1.5033  0.6634 -1.0283
 7561TIP3   OH244097   2.391   2.751   0.240  0.0753 -0.4878  0.0059
 7561TIP3    H144098   2.452   2.677   0.242 -1.2789 -1.6418  1.7955
 7561TIP3    H244099   2.342   2.739   0.159  0.8693 -0.6700 -0.4630
 7562TIP3   OH244100   5.642   1.262  12.663  0.5631 -0.3349  0.5843
 7562TIP3    H144101   5.693   1.187  12.693 -0.1286 -0.3291  1.8333
 7562TIP3    H244102   5.558   1.225  12.636  1.4244 -0.4632 -2.2604
 7563TIP3   OH244103   3.603   6.375  14.500  0.0534 -0.3149 -0.5884
 7563TIP3    H144104   3.594   6.373  14.404 -0.0146 -2.0360 -0.5843
 7563TIP3    H244105   3.521   6.337  14.532  1.5345 -3.2945 -0.0288
 7564TIP3   OH244106   1.303   0.216  16.556 -0.4229 -0.5314 -0.0848
 7564TIP3    H144107   1.276   0.168  16.635 -0.8722  1.2781  0.9115
 7564TIP3    H244108   1.243   0.290  16.551  0.0916 -0.1886 -1.7257
 7565TIP3   OH244109   4.311   0.216   1.670 -0.0769 -0.2608 -0.1345
 7565TIP3    H144110   4.259   0.296   1.657  1.3203  0.6361 -0.4912
 7565TIP3    H244111   4.279   0.179   1.751 -0.4888  0.9012  0.2569
 7566TIP3   OH244112   3.873   6.033  11.765  0.1269  1.0315  0.0702
 7566TIP3    H144113   3.828   6.062  11.844 -0.1354 -0.8894  0.6750
 7566TIP3    H244114   3.914   6.112  11.731  0.2502  1.9257  2.1246
 7567TIP3   OH244115   5.244   3.234  16.009  0.3931 -0.7938  0.8602
 7567TIP3    H144116   5.262   3.141  16.023 -1.2311 -1.7114 -2.2587
 7567TIP3    H244117   5.164   3.251  16.059  0.9622 -0.9013  1.8325
 7568TIP3   OH244118   0.996   6.749  13.297 -0.4315  0.1210  0.5264
 7568TIP3    H144119   1.011   6.657  13.272 -2.4733 -0.7749  2.3330
 7568TIP3    H244120   1.085   6.785  13.307  0.4328 -1.7688  0.1937
 7569TIP3   OH244121   1.959   3.431  15.952 -0.0344 -0.2604 -0.0963
 7569TIP3    H144122   1.912   3.458  15.873  0.0703 -0.2156 -0.1423
 7569TIP3    H244123   1.942   3.337  15.958 -0.8861 -0.0937  0.3832
 7570TIP3   OH244124   5.135   2.452  15.116 -0.0322  0.0306 -0.5356
 7570TIP3    H144125   5.095   2.408  15.191  0.3150  0.1864 -0.2584
 7570TIP3    H244126   5.175   2.382  15.066  0.7588  0.0485  0.0514
 7571TIP3   OH244127   4.944   4.992  12.097  0.8690  0.3376  0.2412
 7571TIP3    H144128   4.852   4.968  12.087  0.5174  1.2032  1.1862
 7571TIP3    H244129   4.943   5.063  12.162  2.1820  0.4911  0.1173
 7572TIP3   OH244130   3.113   3.181  11.409  0.4496 -0.7192 -0.0469
 7572TIP3    H144131   3.180   3.250  11.414 -0.9510  0.7582 -0.7710
 7572TIP3    H244132   3.030   3.227  11.420 -0.5058 -2.4323  0.3128
 7573TIP3   OH244133   1.774   1.780  13.580 -0.8389 -0.2121  0.7445
 7573TIP3    H144134   1.715   1.711  13.609 -0.8481 -0.4104  0.2679
 7573TIP3    H244135   1.754   1.790  13.486 -0.0373 -0.3598  0.5513
 7574TIP3   OH244136   0.986   5.588  16.421 -0.2608 -0.1107 -0.3446
 7574TIP3    H144137   1.060   5.528  16.432  0.7713  1.1334 -0.1566
 7574TIP3    H244138   0.909   5.535  16.437  0.5565 -1.5927 -1.0803
 7575TIP3   OH244139   2.272   1.921  14.502 -0.6282  0.0596  0.4271
 7575TIP3    H144140   2.273   1.826  14.502  0.2647  0.0563  0.6957
 7575TIP3    H244141   2.263   1.945  14.410 -0.5807 -0.2860  0.3320
 7576TIP3   OH244142   2.928   2.538  17.028  0.2365 -0.2535  0.2054
 7576TIP3    H144143   2.854   2.577  17.075 -1.1768 -0.7558 -1.4953
 7576TIP3    H244144   2.969   2.612  16.982  0.7192 -0.0023  1.0156
 7577TIP3   OH244145   0.918   6.448  15.931 -0.4931 -0.3325 -0.0116
 7577TIP3    H144146   0.975   6.455  15.855  1.0475 -3.8123  0.6511
 7577TIP3    H244147   0.957   6.507  15.996 -0.3533  0.7262 -1.0222
 7578TIP3   OH244148   3.733   4.718  11.430 -0.3077 -0.3779 -0.0683
 7578TIP3    H144149   3.701   4.658  11.497  1.5573 -0.3412  0.9190
 7578TIP3    H244150   3.817   4.682  11.402 -0.9145 -0.2627 -2.2688
 7579TIP3   OH244151   0.739   0.286   4.431 -0.0057  0.2800  0.8729
 7579TIP3    H144152   0.805   0.353   4.412  0.5212 -0.4817 -0.1283
 7579TIP3    H244153   0.789   0.213   4.468 -0.1779 -0.5083 -0.3780
 7580TIP3   OH244154   4.460   1.799   0.285 -0.0753 -0.0577 -0.5509
 7580TIP3    H144155   4.462   1.879   0.338  0.9775 -0.0885 -0.5243
 7580TIP3    H244156   4.367   1.777   0.279 -0.2293 -0.0559  1.2651
 7581TIP3   OH244157   3.659   5.847   1.638 -0.0387 -0.0186 -0.8579
 7581TIP3    H144158   3.601   5.770   1.638 -0.2561  0.1388 -0.2145
 7581TIP3    H244159   3.622   5.905   1.571  1.0046 -1.1037 -2.4577
 7582TIP3   OH244160   1.969   1.634  16.285  0.7826  0.1486  0.5942
 7582TIP3    H144161   1.983   1.699  16.217  1.4143  0.1395  0.7111
 7582TIP3    H244162   1.881   1.600  16.268  0.4143  1.0807  0.5827
 7583TIP3   OH244163   2.478   2.068  15.915  0.5396 -0.4696  0.4170
 7583TIP3    H144164   2.474   1.976  15.942 -0.6090  0.2169  2.7780
 7583TIP3    H244165   2.522   2.112  15.987 -0.3053  1.0785  0.0188
 7584TIP3   OH244166   4.673   2.372   2.198 -0.2100  0.5664 -0.2790
 7584TIP3    H144167   4.766   2.391   2.186  1.1084 -1.8963  3.8458
 7584TIP3    H244168   4.646   2.429   2.271 -1.4688  0.0972 -0.3574
 7585TIP3   OH244169   1.233   2.519  11.303  0.2829 -0.0044  0.2792
 7585TIP3    H144170   1.266   2.608  11.315 -2.0689  1.7396 -3.9333
 7585TIP3    H244171   1.303   2.474  11.256  1.1674 -0.2297  1.7421
 7586TIP3   OH244172   4.165   6.280   4.927  0.5182 -0.2068 -0.0218
 7586TIP3    H144173   4.095   6.326   4.880  0.8759  0.7976  0.4000
 7586TIP3    H244174   4.192   6.342   4.995 -0.0738 -1.6679  1.6069
 7587TIP3   OH244175   3.689   0.084  12.489  0.6540 -0.8812 -0.3380
 7587TIP3    H144176   3.729   0.101  12.574  0.6169 -0.3891 -0.4169
 7587TIP3    H244177   3.729   0.149  12.430 -0.1964 -0.4238 -0.4311
 7588TIP3   OH244178   0.587   1.393   2.367 -0.0127  0.2580 -0.2721
 7588TIP3    H144179   0.662   1.338   2.388 -0.4161 -0.4202 -0.5724
 7588TIP3    H244180   0.592   1.406   2.272  0.1080  0.7902 -0.1977
 7589TIP3   OH244181   2.784   1.771   2.460 -0.0932 -0.2389 -0.6934
 7589TIP3    H144182   2.713   1.714   2.489  0.4794 -1.1510 -1.0460
 7589TIP3    H244183   2.864   1.730   2.494  0.2313  1.2383  0.4382
 7590TIP3   OH244184   0.687   3.947   0.791 -0.4647 -0.3259 -0.0935
 7590TIP3    H144185   0.611   3.943   0.850  1.6081  0.0504  2.8271
 7590TIP3    H244186   0.708   4.040   0.786  0.5877 -0.5318  0.2653
 7591TIP3   OH244187   4.417   5.638   4.749 -0.2941  0.3340 -0.2808
 7591TIP3    H144188   4.364   5.563   4.775  0.0792  0.3234  0.4872
 7591TIP3    H244189   4.491   5.600   4.701 -0.4422  0.2662 -0.4560
 7592TIP3   OH244190   5.311   0.433  14.522  0.2702 -0.8416 -0.6193
 7592TIP3    H144191   5.245   0.390  14.576  0.3408 -1.3269 -0.9174
 7592TIP3    H244192   5.298   0.397  14.434  0.1803 -0.0877 -0.9239
 7593TIP3   OH244193   2.962   5.030   3.951  0.0303 -0.2269 -0.4786
 7593TIP3    H144194   2.964   4.994   4.040  1.3955  1.4604  0.2126
 7593TIP3    H244195   2.982   4.955   3.895  2.4605 -0.6888  0.8884
 7594TIP3   OH244196   6.158   0.188  11.407  0.4580  0.3981 -0.5919
 7594TIP3    H144197   6.093   0.134  11.451  0.0861  0.0282 -1.5695
 7594TIP3    H244198   6.194   0.243  11.476 -0.8795  0.6032 -0.0274
 7595TIP3   OH244199   3.126   3.280   5.480  0.5678  0.3028 -1.0510
 7595TIP3    H144200   3.116   3.375   5.493 -1.2124 -0.0470  0.6226
 7595TIP3    H244201   3.196   3.255   5.540  0.2326  0.3884 -0.6223
 7596TIP3   OH244202   0.593   3.062  13.291  0.1902 -0.3034 -0.4031
 7596TIP3    H144203   0.614   3.058  13.385  0.1550 -0.8578 -0.4196
 7596TIP3    H244204   0.664   3.013  13.249  0.6654  0.6303 -0.7476
 7597TIP3   OH244205   4.349   5.453  14.999  0.3421 -0.1244 -0.1758
 7597TIP3    H144206   4.337   5.430  15.091 -1.5884  0.6149 -0.2116
 7597TIP3    H244207   4.427   5.404  14.973  0.7293 -0.6205  1.7457
 7598TIP3   OH244208   5.001   2.062  12.059 -0.2143  0.4418  0.4532
 7598TIP3    H144209   5.011   2.084  12.152  2.5703  1.7973 -0.0581
 7598TIP3    H244210   4.910   2.034  12.050 -0.6672  0.6578  3.4993
 7599TIP3   OH244211   3.257   1.781  14.991 -0.0457 -0.6062 -0.4280
 7599TIP3    H144212   3.271   1.812  15.080 -0.3912  1.0365 -0.8963
 7599TIP3    H244213   3.305   1.699  14.985  1.3398  0.0769  0.7893
 7600TIP3   OH244214   6.181   5.829   2.140  0.0881 -0.5606  0.2090
 7600TIP3    H144215   6.136   5.746   2.122  0.4365 -0.4084 -1.4957
 7600TIP3    H244216   6.150   5.854   2.227 -0.2525 -2.3221  0.6398
 7601TIP3   OH244217   2.858   5.302   3.683 -0.1511 -0.4620 -0.0768
 7601TIP3    H144218   2.948   5.282   3.658  0.3410 -0.7168  1.7633
 7601TIP3    H244219   2.847   5.394   3.660  0.6495 -0.3724 -0.1239
 7602TIP3   OH244220   4.819   4.151  16.766 -0.0117 -0.4933 -0.1526
 7602TIP3    H144221   4.775   4.143  16.682  1.4857 -1.5771 -0.8823
 7602TIP3    H244222   4.803   4.067  16.810 -0.9036  0.1143  0.7363
 7603TIP3   OH244223   3.176   2.620  16.596 -0.7667 -0.1184  0.0352
 7603TIP3    H144224   3.178   2.710  16.561  0.0250  0.0587  0.5168
 7603TIP3    H244225   3.106   2.577  16.547  0.7776 -0.1011 -2.3296
 7604TIP3   OH244226   3.467   3.869   3.734 -0.3596 -0.0504 -0.3605
 7604TIP3    H144227   3.478   3.950   3.684 -1.3673  1.2675  1.4566
 7604TIP3    H244228   3.555   3.849   3.766 -0.4438  1.6236  1.0398
 7605TIP3   OH244229   6.808   3.458  15.967 -0.1769  0.4704 -0.0533
 7605TIP3    H144230   6.829   3.552  15.964 -1.1355  0.6736 -2.1642
 7605TIP3    H244231   6.776   3.443  16.056 -0.6692  2.3094  0.1193
 7606TIP3   OH244232   3.845   3.195  15.374  0.2462 -0.7009 -0.5461
 7606TIP3    H144233   3.757   3.229  15.355  0.4401  0.7794  0.9558
 7606TIP3    H244234   3.900   3.231  15.305 -0.0916 -0.5743 -0.7537
 7607TIP3   OH244235   4.264   1.049   3.253 -0.0240  0.1247 -0.3403
 7607TIP3    H144236   4.279   0.959   3.223  0.8173  0.4461 -0.9094
 7607TIP3    H244237   4.329   1.062   3.322 -1.1703 -0.2105  0.8492
 7608TIP3   OH244238   1.989   1.839  15.152  0.9339  0.0514 -0.2019
 7608TIP3    H144239   1.951   1.920  15.186  0.3825 -0.3324  0.1074
 7608TIP3    H244240   2.044   1.868  15.079 -0.1306  0.6018 -0.8120
 7609TIP3   OH244241   1.394   6.389   4.219  0.1212  0.4771  0.0215
 7609TIP3    H144242   1.439   6.327   4.161  1.7136  1.4006  0.2070
 7609TIP3    H244243   1.377   6.339   4.299  0.2089 -0.0801 -0.3002
 7610TIP3   OH244244   5.448   2.927   1.094 -0.4890  0.0927 -0.1272
 7610TIP3    H144245   5.371   2.894   1.139 -1.2188  2.2906  0.3328
 7610TIP3    H244246   5.522   2.884   1.138 -1.3129  0.1261  1.3372
 7611TIP3   OH244247   1.934   4.163   3.306 -0.4822  0.8786  0.3353
 7611TIP3    H144248   1.877   4.225   3.352  1.0642  1.3442  1.7361
 7611TIP3    H244249   1.971   4.215   3.234 -0.0709  1.2889  0.8245
 7612TIP3   OH244250   0.382   1.962  16.101  0.4770  0.2362 -0.1393
 7612TIP3    H144251   0.461   2.013  16.082  0.6658  0.3439  0.8856
 7612TIP3    H244252   0.321   2.026  16.137  0.8800 -0.3170  1.5980
 7613TIP3   OH244253   3.158   6.396  13.133 -0.1033  0.0190  0.0294
 7613TIP3    H144254   3.197   6.324  13.083  1.5931  0.5749  0.4786
 7613TIP3    H244255   3.215   6.471  13.115 -1.1967  0.9791  0.4506
 7614TIP3   OH244256   0.962   6.080  11.968  0.4438  0.0668 -0.4852
 7614TIP3    H144257   1.049   6.107  11.997  0.8058 -2.1589  0.6821
 7614TIP3    H244258   0.914   6.060  12.049 -0.8333  0.2737 -1.1533
 7615TIP3   OH244259   1.257   1.659  12.857 -0.2758 -0.0900 -0.2077
 7615TIP3    H144260   1.333   1.648  12.914 -1.5501  0.1531  1.6189
 7615TIP3    H244261   1.242   1.754  12.855 -1.4771 -0.2370  0.7843
 7616TIP3   OH244262   1.459   1.586  15.600 -0.2431 -0.4474 -0.2801
 7616TIP3    H144263   1.527   1.556  15.539 -0.4494  1.5626 -1.5980
 7616TIP3    H244264   1.428   1.668  15.562 -3.1462 -1.0768  0.4901
 7617TIP3   OH244265   4.041   3.846  13.309 -0.6603  0.5599 -0.0862
 7617TIP3    H144266   4.103   3.914  13.281  0.4912  0.0214  1.0964
 7617TIP3    H244267   4.026   3.795  13.230  0.8911  0.3401 -0.2778
 7618TIP3   OH244268   0.612   0.363  11.314 -0.1903  0.0442 -0.5532
 7618TIP3    H144269   0.652   0.405  11.391 -1.4098 -1.9511  1.2858
 7618TIP3    H244270   0.529   0.409  11.302 -0.4041 -0.2168 -0.0960
 7619TIP3   OH244271   0.240   4.991  11.260  0.3611 -0.0934  0.2611
 7619TIP3    H144272   0.145   5.002  11.265  0.2897 -0.9273  0.9711
 7619TIP3    H244273   0.256   4.965  11.170  0.0099  0.8167 -0.0808
 7620TIP3   OH244274   4.186   6.329  13.701  0.6302  0.1898  0.4163
 7620TIP3    H144275   4.146   6.412  13.676 -1.3939 -0.5381  0.9809
 7620TIP3    H244276   4.280   6.342  13.689  0.1895  1.5735 -2.4189
 7621TIP3   OH244277   0.443   0.047  11.783 -0.3115 -0.4863 -0.0724
 7621TIP3    H144278   0.488   0.101  11.719 -1.6904 -0.2576 -0.8884
 7621TIP3    H244279   0.479  -0.041  11.769  0.1012 -0.2554 -0.4903
 7622TIP3   OH244280   5.061   6.363  14.208 -0.2059 -0.4803  0.2186
 7622TIP3    H144281   4.969   6.365  14.236 -0.5729  3.6877 -0.6900
 7622TIP3    H244282   5.061   6.309  14.129 -1.6288 -1.4123  0.8161
 7623TIP3   OH244283   4.047   3.636   3.164  0.1111  0.0847  0.1167
 7623TIP3    H144284   4.040   3.559   3.221  2.1818  1.0428  1.8318
 7623TIP3    H244285   4.053   3.710   3.225 -1.2863  1.5922 -1.4710
 7624TIP3   OH244286   5.980   3.745  15.504 -0.0667 -0.1565 -0.1376
 7624TIP3    H144287   6.066   3.710  15.481  1.3572  1.2221  2.5981
 7624TIP3    H244288   5.953   3.694  15.581 -1.3552 -0.0646 -0.5124
 7625TIP3   OH244289   2.133   3.522  13.397 -0.7441 -0.1796 -0.0161
 7625TIP3    H144290   2.191   3.586  13.354  1.2569 -1.7184  0.2383
 7625TIP3    H244291   2.074   3.575  13.450  0.2903  1.5069 -0.4682
 7626TIP3   OH244292   4.149   2.430  13.549 -0.0705  0.3263 -0.0080
 7626TIP3    H144293   4.163   2.345  13.507  3.1057 -0.3434  2.0865
 7626TIP3    H244294   4.169   2.414  13.641 -1.4721  2.9306  0.8319
 7627TIP3   OH244295   1.732   3.304   1.408  0.2586  0.4633  0.0215
 7627TIP3    H144296   1.660   3.354   1.370 -0.1267  0.4932  0.7692
 7627TIP3    H244297   1.702   3.213   1.405 -0.2756  0.5775  1.2921
 7628TIP3   OH244298   0.878   2.207   3.858  0.4010 -0.3801 -0.9558
 7628TIP3    H144299   0.873   2.285   3.802  1.5351  0.8803  0.6072
 7628TIP3    H244300   0.963   2.213   3.900  0.1744 -2.0646 -0.1846
 7629TIP3   OH244301   5.053   6.118  14.048  0.3043  0.3485 -0.3666
 7629TIP3    H144302   5.031   6.074  14.130 -0.4705 -0.4151 -0.9445
 7629TIP3    H244303   4.978   6.099  13.991  2.1309 -1.7892 -2.2577
 7630TIP3   OH244304   6.095   5.528   6.000  0.0021 -0.5239 -0.3387
 7630TIP3    H144305   6.182   5.568   6.000 -0.8165  1.4025 -1.5994
 7630TIP3    H244306   6.112   5.434   6.008  2.1220 -0.1125  0.6056
 7631TIP3   OH244307   2.093   3.087  14.151  0.3907 -0.4948 -0.6634
 7631TIP3    H144308   2.033   3.157  14.177 -2.3972 -3.3464  1.2073
 7631TIP3    H244309   2.077   3.075  14.058 -1.6723 -0.8535 -0.3021
 7632TIP3   OH244310   3.276   4.715  13.044 -0.1094  0.1240 -0.4288
 7632TIP3    H144311   3.365   4.705  13.077 -0.9409 -1.6217  1.4414
 7632TIP3    H244312   3.245   4.797  13.084  0.3020  0.1995 -0.2573
 7633TIP3   OH244313   5.658   1.100   3.258  0.7706 -0.1337  0.0983
 7633TIP3    H144314   5.573   1.063   3.279  0.9598 -0.9614 -0.5401
 7633TIP3    H244315   5.715   1.073   3.330  0.9579 -1.3056 -0.4622
 7634TIP3   OH244316   1.248   6.201  13.859  0.0408 -0.4597 -0.2764
 7634TIP3    H144317   1.312   6.154  13.913 -0.1561 -1.4224 -0.8526
 7634TIP3    H244318   1.300   6.252  13.798  0.2614  0.1741  0.4246
 7635TIP3   OH244319   4.369   0.478   3.138 -0.0735  0.1593  0.0017
 7635TIP3    H144320   4.320   0.471   3.220  0.0248  0.9387  0.1368
 7635TIP3    H244321   4.456   0.506   3.165  0.9051 -2.5178 -0.1130
 7636TIP3   OH244322   2.951   6.421  15.526  0.5675  0.0725 -0.2102
 7636TIP3    H144323   2.881   6.362  15.500 -1.8225  1.7345  1.9389
 7636TIP3    H244324   2.978   6.389  15.613  1.0316  0.6378 -0.1390
 7637TIP3   OH244325   3.145   2.535  15.848  0.2721 -0.3070 -0.3201
 7637TIP3    H144326   3.205   2.502  15.914  1.3962  0.8886 -0.7036
 7637TIP3    H244327   3.098   2.606  15.891  1.8101  1.2419 -1.0591
 7638TIP3   OH244328   3.897   2.916  15.409 -0.4332 -0.1362  0.5991
 7638TIP3    H144329   3.893   3.011  15.396 -0.5942 -0.2220 -0.0083
 7638TIP3    H244330   3.811   2.885  15.382  0.7025 -0.8478 -2.6880
 7639TIP3   OH244331   3.873   0.087  16.646  0.2796 -0.4664  0.5905
 7639TIP3    H144332   3.896   0.138  16.567 -1.3136 -1.6981 -0.7320
 7639TIP3    H244333   3.947   0.028  16.658 -0.4394 -1.9123 -1.4781
 7640TIP3   OH244334   0.207   0.210  11.710  0.0288  0.3172  0.4156
 7640TIP3    H144335   0.298   0.186  11.728  0.6103  1.5383 -0.7133
 7640TIP3    H244336   0.195   0.192  11.617 -1.2359 -0.8066  0.7634
 7641TIP3   OH244337   5.547   5.635  12.961 -0.7265  0.0849 -0.1925
 7641TIP3    H144338   5.602   5.668  13.032  2.4658 -1.2007 -1.8659
 7641TIP3    H244339   5.505   5.556  12.997  1.3860 -0.9499  0.1470
 7642TIP3   OH244340   1.044   4.827   2.939 -0.3071  0.4198 -0.0415
 7642TIP3    H144341   1.076   4.744   2.974 -2.3783  0.2396  1.6530
 7642TIP3    H244342   1.123   4.877   2.920  0.9919 -1.6418 -0.4482
 7643TIP3   OH244343   1.995   5.286  10.628 -0.2147 -0.1732  0.3957
 7643TIP3    H144344   1.909   5.244  10.618  1.5081 -3.7115 -1.3279
 7643TIP3    H244345   1.993   5.358  10.564 -2.2532  0.6134  1.2646
 7644TIP3   OH244346   0.325   2.852  16.640 -0.3789 -0.0680 -0.3141
 7644TIP3    H144347   0.341   2.813  16.554 -1.1506 -0.5009 -0.2676
 7644TIP3    H244348   0.241   2.816  16.668  0.5684 -1.1364  1.3019
 7645TIP3   OH244349   0.031   3.128   5.556 -0.5572  0.1788 -0.6123
 7645TIP3    H144350  -0.052   3.142   5.511 -0.7511 -0.0981 -0.3495
 7645TIP3    H244351   0.023   3.177   5.638  0.1726  1.4898 -1.2971
 7646TIP3   OH244352   3.752   6.547  12.271  0.6708  0.2907 -0.7162
 7646TIP3    H144353   3.817   6.511  12.331 -0.3613 -0.7155 -0.1678
 7646TIP3    H244354   3.703   6.610  12.323 -0.5306 -0.9213 -0.3320
 7647TIP3   OH244355   1.628   0.064  13.032 -0.5211  0.4502 -0.3415
 7647TIP3    H144356   1.563   0.057  12.962 -0.4729  0.1452 -0.3598
 7647TIP3    H244357   1.690   0.130  13.001  0.0765 -0.4174 -1.0727
 7648TIP3   OH244358   0.370   4.618  13.697 -0.0779 -0.7780  0.5564
 7648TIP3    H144359   0.289   4.622  13.748 -0.1079 -0.0835  0.4571
 7648TIP3    H244360   0.355   4.676  13.623  0.5693 -0.5120  0.6241
 7649TIP3   OH244361   3.782   6.219   5.691  0.2395  0.3836 -0.2137
 7649TIP3    H144362   3.746   6.144   5.739 -0.9685  0.8892 -0.2882
 7649TIP3    H244363   3.705   6.266   5.659  0.9292  2.1897  0.6393
 7650TIP3   OH244364   4.771   4.461   2.759  0.0739  0.6762 -0.2512
 7650TIP3    H144365   4.803   4.380   2.797 -0.8640  0.6840  0.5991
 7650TIP3    H244366   4.835   4.527   2.783  1.2669  0.0727 -1.6239
 7651TIP3   OH244367   6.012   4.486   2.648 -0.2926  0.8573 -0.1311
 7651TIP3    H144368   5.999   4.568   2.600  0.8551 -0.1655 -2.3348
 7651TIP3    H244369   5.948   4.426   2.610 -1.0105  0.6543  1.3475
 7652TIP3   OH244370   5.078   3.168  11.401 -0.0915 -0.7533 -0.8362
 7652TIP3    H144371   5.137   3.237  11.370  0.7650  1.1841  4.2805
 7652TIP3    H244372   5.137   3.099  11.431 -0.6425 -0.9735 -0.2399
 7653TIP3   OH244373   1.558   1.783  14.468 -0.0215 -0.7087 -0.0555
 7653TIP3    H144374   1.605   1.866  14.468 -0.2151 -0.5990  0.2550
 7653TIP3    H244375   1.568   1.750  14.378 -0.8207  0.1549 -0.4796
 7654TIP3   OH244376   0.377   4.140  14.501  0.9055  0.0441 -0.1911
 7654TIP3    H144377   0.432   4.211  14.534  0.5117  0.2291  0.0719
 7654TIP3    H244378   0.353   4.168  14.412  1.1539  0.0095 -0.2700
 7655TIP3   OH244379   3.559   6.115   3.804 -0.3586  0.2161 -0.1195
 7655TIP3    H144380   3.546   6.124   3.710 -2.4199 -0.8266  0.0008
 7655TIP3    H244381   3.630   6.175   3.825 -0.0010  0.6227 -2.2961
 7656TIP3   OH244382   4.931   5.527   0.157 -0.5337 -0.2468  0.2472
 7656TIP3    H144383   4.861   5.468   0.186  0.1299 -2.2123 -1.8992
 7656TIP3    H244384   4.937   5.513   0.063  1.9157  0.8068  0.1745
 7657TIP3   OH244385   5.475   3.725   2.332  0.1611  0.0222 -0.3213
 7657TIP3    H144386   5.390   3.750   2.296  0.3068  0.9130 -0.0774
 7657TIP3    H244387   5.505   3.654   2.276 -0.5039  0.0517 -0.7302
 7658TIP3   OH244388   1.028   4.015   5.283 -0.1880  0.0728  0.3568
 7658TIP3    H144389   0.998   4.075   5.351 -0.7286 -1.5452  1.5978
 7658TIP3    H244390   0.975   4.037   5.207 -0.1265  1.3885  0.6658
 7659TIP3   OH244391   4.444   6.589   3.767 -0.7751  0.0588 -0.6504
 7659TIP3    H144392   4.424   6.618   3.856 -0.3128  1.4746 -0.9837
 7659TIP3    H244393   4.521   6.534   3.776  0.2165  1.4532 -0.3283
 7660TIP3   OH244394   2.671   2.403  13.099 -0.3501  0.2220 -0.3203
 7660TIP3    H144395   2.611   2.403  13.025  1.2227  0.3048 -1.6473
 7660TIP3    H244396   2.629   2.346  13.164 -1.8167  0.2353 -1.2202
 7661TIP3   OH244397   3.058   5.819  15.373 -0.4740 -0.0159 -0.1230
 7661TIP3    H144398   2.982   5.861  15.331 -1.6031 -0.5215  1.3301
 7661TIP3    H244399   3.024   5.788  15.457  1.0423 -1.3656  0.0205
 7662TIP3   OH244400   6.037   3.163  15.372  0.2327  0.1050 -0.3934
 7662TIP3    H144401   6.114   3.122  15.332 -0.7177 -1.5899 -0.6001
 7662TIP3    H244402   5.964   3.130  15.320 -0.8492 -0.3410  1.3409
 7663TIP3   OH244403   3.778   4.649  13.723 -0.2645  0.3014 -0.5131
 7663TIP3    H144404   3.783   4.683  13.634 -0.4281  1.9537  0.0755
 7663TIP3    H244405   3.867   4.662  13.758  0.1046 -1.3459 -0.7498
 7664TIP3   OH244406   4.991   3.869  17.028  0.2373  0.1873  0.3376
 7664TIP3    H144407   5.022   3.779  17.024 -0.2044  0.0676 -0.6950
 7664TIP3    H244408   4.946   3.875  17.112 -0.0346 -0.6679  0.2648
 7665TIP3   OH244409   6.505   1.611  14.101 -0.0874  0.2599 -0.3811
 7665TIP3    H144410   6.438   1.587  14.165 -1.5462 -0.5613 -2.1317
 7665TIP3    H244411   6.468   1.683  14.052  0.4992  0.1044 -1.0810
 7666TIP3   OH244412   5.533   0.875   2.315 -0.3189 -0.1680  0.7718
 7666TIP3    H144413   5.562   0.898   2.227  1.8269  2.7610  2.0541
 7666TIP3    H244414   5.614   0.857   2.363 -1.0815  1.5781  2.8900
 7667TIP3   OH244415   3.448   4.360  14.764  0.0561  0.1827 -0.1705
 7667TIP3    H144416   3.458   4.431  14.700  0.1293 -0.0344 -0.4015
 7667TIP3    H244417   3.523   4.369  14.822 -0.2430  0.6494  0.1510
 7668TIP3   OH244418   2.266   4.382  13.357 -0.1784 -0.0257  0.1666
 7668TIP3    H144419   2.179   4.381  13.318  0.2404 -0.3266 -0.8001
 7668TIP3    H244420   2.270   4.303  13.410 -0.0834 -0.6583 -0.7578
 7669TIP3   OH244421   6.173   2.879  12.697 -0.1213  0.4416 -0.1406
 7669TIP3    H144422   6.164   2.974  12.694  0.5844  0.6267  1.9006
 7669TIP3    H244423   6.262   2.865  12.730 -1.1370 -0.8434  2.2905
 7670TIP3   OH244424   6.784   1.050  11.862 -0.1475  0.0681 -0.1110
 7670TIP3    H144425   6.827   1.087  11.939 -2.0667  0.2784  0.9397
 7670TIP3    H244426   6.826   1.093  11.788  0.2885  1.4987  0.9166
 7671TIP3   OH244427   1.682   4.821   4.560  0.1733  0.2908 -0.1060
 7671TIP3    H144428   1.752   4.844   4.621  0.2885 -0.7551  0.1755
 7671TIP3    H244429   1.608   4.797   4.616  0.1106 -0.1573 -0.3765
 7672TIP3   OH244430   3.330   5.474   3.014  0.1503 -0.7453  0.0296
 7672TIP3    H144431   3.405   5.419   3.037 -0.0498 -1.2003 -0.3857
 7672TIP3    H244432   3.347   5.500   2.923  0.0267 -0.4726  0.0813
 7673TIP3   OH244433   0.880   0.817   0.026 -0.4600 -0.4442  0.3384
 7673TIP3    H144434   0.791   0.786   0.043 -0.5470 -0.0775  0.5471
 7673TIP3    H244435   0.912   0.759  -0.043 -0.8463 -0.6035  0.2898
 7674TIP3   OH244436   5.795   4.155  14.063  0.3264 -0.5526 -0.1113
 7674TIP3    H144437   5.851   4.094  14.111 -0.4161 -0.8618  0.3920
 7674TIP3    H244438   5.853   4.224  14.034  0.6736  0.1255  2.0339
 7675TIP3   OH244439   0.130   2.814  16.043  0.1513 -0.5302 -0.0973
 7675TIP3    H144440   0.072   2.889  16.059 -0.4029 -1.2068  1.1674
 7675TIP3    H244441   0.189   2.844  15.973 -1.0279  0.5450 -0.6635
 7676TIP3   OH244442   1.261   6.307   1.695 -0.1277  0.1005 -0.1267
 7676TIP3    H144443   1.210   6.346   1.766  0.8308  1.6827 -0.2445
 7676TIP3    H244444   1.259   6.213   1.712  1.1527  0.4931  2.7916
 7677TIP3   OH244445   1.401   2.127   0.799 -0.2983 -0.3433 -0.2438
 7677TIP3    H144446   1.482   2.173   0.821  0.5039 -2.0553  0.4727
 7677TIP3    H244447   1.418   2.089   0.713 -0.1086 -1.2147  0.1765
 7678TIP3   OH244448   4.738   0.188  12.474  0.8912 -0.1384  0.6798
 7678TIP3    H144449   4.789   0.113  12.441  0.6969 -1.4602  3.1668
 7678TIP3    H244450   4.647   0.165  12.452  0.9869  0.3184 -0.2440
 7679TIP3   OH244451   3.412   6.291   4.843  0.3212  0.2755 -0.0876
 7679TIP3    H144452   3.472   6.221   4.868  0.0361  0.6433  1.7326
 7679TIP3    H244453   3.407   6.285   4.747  2.0759 -0.7133 -0.1580
 7680TIP3   OH244454   3.334   2.499  16.800 -0.2964 -0.3380 -0.6320
 7680TIP3    H144455   3.357   2.586  16.832 -1.5871 -0.6746  1.3837
 7680TIP3    H244456   3.257   2.512  16.745  0.2137 -0.0874 -1.2963
 7681TIP3   OH244457   5.609   5.225   6.194 -0.6276 -0.9698  0.3182
 7681TIP3    H144458   5.623   5.173   6.115  0.7295  2.0722 -1.6434
 7681TIP3    H244459   5.549   5.294   6.166 -0.6834 -0.2163  2.1724
 7682TIP3   OH244460   6.599   1.618   5.794  0.2811 -0.0587  0.5005
 7682TIP3    H144461   6.611   1.535   5.840  0.7654 -0.3489 -0.1252
 7682TIP3    H244462   6.505   1.637   5.802  0.1826 -0.6258  0.7186
 7683TIP3   OH244463   1.162   3.826  13.320 -0.0705 -0.6574  0.0351
 7683TIP3    H144464   1.193   3.878  13.246  1.0118 -1.5454 -0.1625
 7683TIP3    H244465   1.070   3.810  13.301 -0.3528  0.9057 -0.0488
 7684TIP3   OH244466   1.412   2.330  16.423  0.2456  0.1313  0.3383
 7684TIP3    H144467   1.369   2.255  16.463  2.7864 -1.6938 -0.0722
 7684TIP3    H244468   1.356   2.404  16.444 -3.5059 -2.0568 -0.9370
 7685TIP3   OH244469   1.578   5.033   3.794 -0.2490  0.2205  0.3527
 7685TIP3    H144470   1.580   4.995   3.882 -0.8770 -1.6576 -0.4016
 7685TIP3    H244471   1.619   4.967   3.739  2.3660  2.3560 -0.4842
 7686TIP3   OH244472   2.889   2.497  13.788  0.1734  0.2043 -0.6439
 7686TIP3    H144473   2.868   2.465  13.876  0.4661  1.2758 -0.1710
 7686TIP3    H244474   2.863   2.589  13.789  1.3642  0.5670 -1.2605
 7687TIP3   OH244475   0.467   4.475  11.592  0.0525  0.4940  0.3578
 7687TIP3    H144476   0.543   4.434  11.550 -0.6875 -0.8894  0.2987
 7687TIP3    H244477   0.402   4.481  11.523 -0.8841 -1.0320  1.0427
 7688TIP3   OH244478   2.298   0.036   2.975  0.2577 -0.6771  0.2756
 7688TIP3    H144479   2.211   0.055   2.941 -0.1450  0.8191  1.9493
 7688TIP3    H244480   2.296  -0.058   2.995 -1.0524 -0.6353  0.4476
 7689TIP3   OH244481   2.150   1.909   3.864 -0.2132 -0.1523  0.4384
 7689TIP3    H144482   2.075   1.969   3.866 -0.3651 -0.3290  0.1259
 7689TIP3    H244483   2.128   1.841   3.927  1.2968  1.6679  3.1405
 7690TIP3   OH244484   3.888   4.334  12.546 -0.0763 -0.8524 -0.0760
 7690TIP3    H144485   3.977   4.315  12.576 -0.2786 -0.9349  0.4801
 7690TIP3    H244486   3.834   4.325  12.624 -0.2464  1.6188  0.1590
 7691TIP3   OH244487   1.358   2.495   5.791 -0.1085 -0.0518 -0.2191
 7691TIP3    H144488   1.338   2.469   5.881  0.1733 -2.6097 -0.8055
 7691TIP3    H244489   1.327   2.585   5.784 -0.0073  0.2646  2.4569
 7692TIP3   OH244490   3.542   4.532   4.982  0.9948 -0.1347 -0.4179
 7692TIP3    H144491   3.482   4.457   4.987 -0.7309  1.2124  0.1642
 7692TIP3    H244492   3.612   4.511   5.043  1.3828 -1.9368 -1.4056
 7693TIP3   OH244493   6.207   5.284  12.434 -0.2517 -0.5366 -0.6304
 7693TIP3    H144494   6.207   5.207  12.378  2.5310 -0.6227 -0.6225
 7693TIP3    H244495   6.255   5.350  12.385  1.4471 -0.3114  1.2041
 7694TIP3   OH244496   0.005   1.518  11.901 -0.4850  0.1388 -0.0275
 7694TIP3    H144497   0.080   1.478  11.946 -0.8858 -1.2097 -0.5128
 7694TIP3    H244498  -0.048   1.556  11.971  0.5063  0.8861  0.3421
 7695TIP3   OH244499   4.163   1.543   3.930 -0.1352 -0.0887  0.5569
 7695TIP3    H144500   4.080   1.590   3.928  0.0553  0.2352 -0.0778
 7695TIP3    H244501   4.226   1.602   3.887  0.9778  0.6814  3.0539
 7696TIP3   OH244502   1.042   1.669  11.864  0.4987  0.1991 -0.6458
 7696TIP3    H144503   1.087   1.701  11.786  0.7671 -1.0464 -1.0235
 7696TIP3    H244504   1.105   1.608  11.904  0.1973  0.4982  0.3024
 7697TIP3   OH244505   3.155   6.447  14.162 -0.6423 -0.6324 -0.2116
 7697TIP3    H144506   3.163   6.372  14.222 -1.9141 -0.2407  0.4899
 7697TIP3    H244507   3.222   6.432  14.096  0.9178 -1.0113  1.3850
 7698TIP3   OH244508   2.852   2.199   2.864 -0.3743 -0.0575  0.2591
 7698TIP3    H144509   2.905   2.187   2.943  0.6714  0.8353 -0.2780
 7698TIP3    H244510   2.761   2.189   2.894  0.0698 -1.4991  1.2238
 7699TIP3   OH244511   5.056   0.482  14.981 -0.0991  0.2226  0.4320
 7699TIP3    H144512   5.144   0.445  14.982  0.0593  0.5859  0.1683
 7699TIP3    H244513   5.050   0.527  14.897 -0.8158 -0.4528  0.1142
 7700TIP3   OH244514   5.460   0.695   1.360  0.0513 -0.2119  0.1716
 7700TIP3    H144515   5.455   0.789   1.378  1.2542  0.0388 -0.6277
 7700TIP3    H244516   5.438   0.687   1.267  1.0060 -0.5626 -0.0462
 7701TIP3   OH244517   4.673   6.692   4.786  0.2194  0.2732 -0.2540
 7701TIP3    H144518   4.677   6.649   4.701  4.7924 -0.1248 -0.1163
 7701TIP3    H244519   4.701   6.781   4.769  0.8354  0.2855  0.7495
 7702TIP3   OH244520   1.512   5.763  12.570 -0.3727 -0.1493 -0.2717
 7702TIP3    H144521   1.509   5.826  12.642 -1.4413  0.2475 -0.6443
 7702TIP3    H244522   1.569   5.693  12.601  0.3095  0.6822  0.4058
 7703TIP3   OH244523   0.719   1.376  13.063  0.1017 -0.1148 -0.0419
 7703TIP3    H144524   0.783   1.447  13.061  0.6700 -0.6210 -0.2054
 7703TIP3    H244525   0.672   1.383  12.980  0.8662 -0.5619 -0.5250
 7704TIP3   OH244526   2.200   6.714  12.695  0.1486  0.3782  0.2171
 7704TIP3    H144527   2.173   6.685  12.782 -0.6416  0.2647 -0.0579
 7704TIP3    H244528   2.119   6.713  12.644  0.8576 -1.0226 -0.9270
 7705TIP3   OH244529   3.374   3.602  11.636 -0.4212 -0.4302  0.2586
 7705TIP3    H144530   3.409   3.634  11.719 -1.6083 -1.4328  1.1930
 7705TIP3    H244531   3.375   3.678  11.578 -1.3226  0.7902  1.7675
 7706TIP3   OH244532   4.568   1.668   1.660 -0.4324  0.2217 -0.1150
 7706TIP3    H144533   4.496   1.726   1.683  0.4178  1.2743  0.0126
 7706TIP3    H244534   4.564   1.660   1.565 -0.5009  0.5757 -0.1415
 7707TIP3   OH244535   3.296   6.501   4.990  0.3500  0.1011 -0.3656
 7707TIP3    H144536   3.298   6.570   4.925 -2.4478 -0.1037 -0.7752
 7707TIP3    H244537   3.322   6.422   4.943 -0.9531  0.0848 -1.0844
 7708TIP3   OH244538   4.685   6.259   0.036 -0.2008  0.0630 -0.0108
 7708TIP3    H144539   4.775   6.288   0.024  0.3944 -1.9618 -0.8763
 7708TIP3    H244540   4.654   6.306   0.113  0.8759  2.3552 -0.9029
 7709TIP3   OH244541   3.873   2.821   2.507 -0.3512  0.2658  0.2243
 7709TIP3    H144542   3.832   2.810   2.592 -0.9125 -1.5646 -0.2363
 7709TIP3    H244543   3.950   2.875   2.524 -2.0768  2.5583  1.3457
 7710TIP3   OH244544   2.167   4.198   2.249 -0.1720  0.8493  0.1175
 7710TIP3    H144545   2.131   4.285   2.266  0.7169  1.1893  0.3059
 7710TIP3    H244546   2.110   4.161   2.182 -0.7248  1.4635  0.2388
 7711TIP3   OH244547   2.067   3.415  11.833  0.0233  0.5056  0.1498
 7711TIP3    H144548   2.127   3.386  11.765  1.3773  1.7635  0.7610
 7711TIP3    H244549   2.018   3.336  11.857  1.9870 -0.7766  0.1724
 7712TIP3   OH244550   1.177   0.886   3.696 -0.5541 -0.2399 -0.8113
 7712TIP3    H144551   1.096   0.858   3.652 -0.8019 -1.1660  0.1937
 7712TIP3    H244552   1.243   0.823   3.666 -0.3654  0.0701 -1.0547
 7713TIP3   OH244553   0.948   1.425   3.597 -0.0288 -0.5367  0.6456
 7713TIP3    H144554   0.973   1.485   3.526  1.8200 -0.1033  1.5940
 7713TIP3    H244555   0.873   1.377   3.563 -0.7311  1.3703 -0.6691
 7714TIP3   OH244556   0.613   0.961   4.946  0.7307 -0.1808  0.2448
 7714TIP3    H144557   0.645   0.874   4.923  1.6590  0.2010  0.0350
 7714TIP3    H244558   0.688   1.003   4.988  0.2339  0.4574  0.5006
 7715TIP3   OH244559   4.051   5.755   2.276  0.8448  0.2744  0.3900
 7715TIP3    H144560   4.100   5.673   2.273  1.4902  0.6381  0.9037
 7715TIP3    H244561   4.012   5.756   2.364  1.2584  0.7599  0.5686
 7716TIP3   OH244562   4.567   1.869  12.719  0.3950 -0.0024 -0.4457
 7716TIP3    H144563   4.647   1.918  12.702  0.2743  0.5617  0.5500
 7716TIP3    H244564   4.595   1.778  12.728  0.6371 -0.1328 -2.1939
 7717TIP3   OH244565   0.679   2.049   5.136  0.0832 -0.1020  0.7353
 7717TIP3    H144566   0.630   2.012   5.062 -0.4615 -1.8502  1.9250
 7717TIP3    H244567   0.770   2.050   5.106 -0.3984  1.8254 -0.9539
 7718TIP3   OH244568   4.811   6.661  15.187 -0.1498  0.2145 -0.3557
 7718TIP3    H144569   4.869   6.732  15.214 -1.1056  0.6222  0.6999
 7718TIP3    H244570   4.775   6.626  15.269  0.9717 -2.1001 -0.7719
 7719TIP3   OH244571   5.911   3.608  12.093  0.6581 -0.6238 -0.0596
 7719TIP3    H144572   5.999   3.577  12.070 -0.1128 -2.5026 -0.6433
 7719TIP3    H244573   5.872   3.535  12.142  0.0896  0.9568  1.9970
 7720TIP3   OH244574   2.808   4.376   3.685  0.0484  0.0682 -0.2340
 7720TIP3    H144575   2.750   4.453   3.684 -0.6293 -0.2953  2.5458
 7720TIP3    H244576   2.749   4.302   3.698  0.9891 -0.5136  0.8404
 7721TIP3   OH244577   2.322   2.363   1.804  0.6940  1.2912 -0.1215
 7721TIP3    H144578   2.313   2.268   1.799 -1.4528  1.3277  1.6536
 7721TIP3    H244579   2.240   2.393   1.843  1.2423  3.9103 -0.7851
 7722TIP3   OH244580   3.814   2.980   2.242  0.0620 -0.0969  0.2184
 7722TIP3    H144581   3.841   2.906   2.297 -0.7011  0.0078  0.7616
 7722TIP3    H244582   3.849   3.057   2.286 -0.7268  0.0049  0.7035
 7723TIP3   OH244583   5.554   3.206  14.386 -0.5061  0.0820  0.3857
 7723TIP3    H144584   5.569   3.300  14.396  0.9053  0.1147 -1.4976
 7723TIP3    H244585   5.597   3.183  14.304 -0.8861 -2.2179  0.7507
 7724TIP3   OH244586   4.977   1.236  13.427 -0.2167  0.0230 -0.6621
 7724TIP3    H144587   4.916   1.163  13.426  1.0720 -1.1676  0.6819
 7724TIP3    H244588   4.969   1.276  13.341 -2.4561 -0.4027 -0.7112
 7725TIP3   OH244589   2.644   0.942  16.708 -0.5512  0.5245  0.2912
 7725TIP3    H144590   2.617   1.028  16.676  0.6111  0.5398 -0.6894
 7725TIP3    H244591   2.732   0.956  16.743 -0.1821 -0.3529 -0.2718
 7726TIP3   OH244592   3.879   2.428   4.340  0.3619 -0.2778 -0.0056
 7726TIP3    H144593   3.791   2.402   4.313  0.4087 -0.1993 -0.2427
 7726TIP3    H244594   3.926   2.346   4.352  0.2169 -0.3213  0.2500
 7727TIP3   OH244595   1.127   1.841  10.894 -0.0317 -0.2165 -0.5267
 7727TIP3    H144596   1.181   1.893  10.834  0.5145  0.0986  0.2106
 7727TIP3    H244597   1.168   1.755  10.894 -0.5033 -0.4508 -1.1944
 7728TIP3   OH244598   5.771   0.341   3.426 -0.4868 -0.2018  0.6955
 7728TIP3    H144599   5.841   0.279   3.444  0.1947  0.6376  1.0602
 7728TIP3    H244600   5.690   0.292   3.439 -0.1059 -2.3582 -3.5672
 7729TIP3   OH244601   3.963   0.995  12.607  0.3663  0.0653  0.7277
 7729TIP3    H144602   3.916   1.051  12.546 -0.3099 -2.6635 -1.4795
 7729TIP3    H244603   3.901   0.981  12.679 -0.9157 -0.6819 -0.4592
 7730TIP3   OH244604   0.190   5.886   1.870  0.1376  0.2161 -0.1527
 7730TIP3    H144605   0.143   5.833   1.806 -0.5452  2.0367 -1.2224
 7730TIP3    H244606   0.157   5.855   1.955 -0.6313 -0.7081 -0.7710
 7731TIP3   OH244607   3.784   4.018  15.853 -0.4128 -0.0537 -0.3746
 7731TIP3    H144608   3.814   4.029  15.943 -0.3578  0.1033 -0.4104
 7731TIP3    H244609   3.689   4.023  15.859 -0.3765  2.6478 -0.6381
 7732TIP3   OH244610   5.999   6.724   4.499 -0.0801 -0.0317  0.3946
 7732TIP3    H144611   6.079   6.682   4.467  0.9998  0.8942  1.7760
 7732TIP3    H244612   5.975   6.785   4.430  0.0938 -0.6950 -0.2647
 7733TIP3   OH244613   3.709   4.046  11.128 -0.2585 -0.0593  0.1960
 7733TIP3    H144614   3.616   4.040  11.149 -0.6233  2.4136 -0.4287
 7733TIP3    H244615   3.735   4.134  11.154  1.1418  0.4208 -2.4547
 7734TIP3   OH244616   0.275   3.046   3.422  0.3328  0.2571 -0.7974
 7734TIP3    H144617   0.345   3.045   3.357  1.3980  0.8516  0.3129
 7734TIP3    H244618   0.314   3.008   3.500 -0.7679  0.0711 -0.3183
 7735TIP3   OH244619   6.682   2.369   2.999 -0.3263  0.5613 -0.4643
 7735TIP3    H144620   6.631   2.349   3.077  0.0480  1.3655  0.0021
 7735TIP3    H244621   6.658   2.301   2.936  0.6288 -1.0878  0.8958
 7736TIP3   OH244622   6.443   4.434   4.179  0.1956  0.5954 -0.0941
 7736TIP3    H144623   6.537   4.443   4.197  0.7031  0.1600 -2.3231
 7736TIP3    H244624   6.434   4.453   4.086 -1.8463 -0.0302 -0.0706
 7737TIP3   OH244625   1.808   4.193  16.942  0.5276  0.0803 -0.1539
 7737TIP3    H144626   1.903   4.208  16.937  0.5475  1.0231  1.9461
 7737TIP3    H244627   1.798   4.131  17.014 -0.4829  0.4318  0.0174
 7738TIP3   OH244628   1.721   2.193   1.341  0.4538 -0.4880  0.1625
 7738TIP3    H144629   1.783   2.127   1.310  0.1461 -1.0710  0.7629
 7738TIP3    H244630   1.764   2.232   1.417  0.4848 -0.2494  0.0206
 7739TIP3   OH244631   5.201   5.620   2.457  0.2694  0.6699  0.3005
 7739TIP3    H144632   5.185   5.604   2.550  1.1660 -1.5541  0.1430
 7739TIP3    H244633   5.132   5.681   2.431 -1.7453 -0.7935  1.8098
 7740TIP3   OH244634   2.383   6.635   5.348 -0.3683 -0.5433 -0.6013
 7740TIP3    H144635   2.354   6.690   5.276  0.4873 -0.2382 -0.7337
 7740TIP3    H244636   2.418   6.556   5.306 -1.6975 -1.2575 -0.4058
 7741TIP3   OH244637   3.356   2.334   2.797 -0.3147 -0.1824 -0.4683
 7741TIP3    H144638   3.448   2.356   2.783 -0.8909  1.8385 -1.3453
 7741TIP3    H244639   3.336   2.268   2.731  0.3938 -0.3396 -0.5296
 7742TIP3   OH244640   3.793   1.270   5.253 -0.2718 -0.3564 -0.5147
 7742TIP3    H144641   3.797   1.175   5.257 -1.3983 -0.4018  2.2423
 7742TIP3    H244642   3.700   1.291   5.263 -0.0974  1.0337 -1.4991
 7743TIP3   OH244643   6.521   4.158  14.630 -0.6665 -0.4873 -0.1763
 7743TIP3    H144644   6.564   4.168  14.715 -0.8511  0.5707 -0.1948
 7743TIP3    H244645   6.530   4.065  14.610 -1.2986 -0.9234  1.3667
 7744TIP3   OH244646   2.793   1.932   3.772  0.1822  0.0920 -0.5399
 7744TIP3    H144647   2.722   1.997   3.772  0.0238 -0.0658  0.5717
 7744TIP3    H244648   2.813   1.919   3.679 -0.5136  0.9327 -0.8256
 7745TIP3   OH244649   1.747   1.633   5.832  0.4395 -0.8490 -0.4731
 7745TIP3    H144650   1.726   1.636   5.739 -0.5978  0.5070 -0.2179
 7745TIP3    H244651   1.793   1.715   5.849 -1.0747 -0.1672  0.5707
 7746TIP3   OH244652   5.610   5.811  16.301 -0.0003  0.2641  0.1684
 7746TIP3    H144653   5.675   5.741  16.295 -0.2445 -0.0724  1.2129
 7746TIP3    H244654   5.575   5.804  16.390 -1.5128  0.3885 -0.3806
 7747TIP3   OH244655   2.194   5.108  14.774  0.3146  0.2804  0.1839
 7747TIP3    H144656   2.180   5.135  14.683 -1.3161  1.1194  0.6582
 7747TIP3    H244657   2.224   5.188  14.818 -0.5196  0.3103  0.7181
 7748TIP3   OH244658   5.208   0.308  16.881  0.1738  0.3196 -0.1336
 7748TIP3    H144659   5.277   0.312  16.947 -0.2254  0.5073  0.2824
 7748TIP3    H244660   5.202   0.398  16.848 -1.1624  0.7682  1.2039
 7749TIP3   OH244661   1.601   4.544  16.386  0.3243 -0.5220  0.2480
 7749TIP3    H144662   1.561   4.616  16.338 -1.5000 -2.7879 -1.9319
 7749TIP3    H244663   1.552   4.539  16.468  1.5475  1.6146  1.1783
 7750TIP3   OH244664   5.153   6.432  15.384 -0.5341  0.3267  0.2130
 7750TIP3    H144665   5.187   6.410  15.298 -3.4490 -2.2074 -0.4756
 7750TIP3    H244666   5.110   6.516  15.372 -0.6449  0.1453 -0.7329
 7751TIP3   OH244667   1.715   1.177   3.035 -0.1054 -0.4630  0.4042
 7751TIP3    H144668   1.727   1.217   3.121 -0.1243  0.0330  0.1790
 7751TIP3    H244669   1.647   1.111   3.048  0.0826 -0.5737  0.8268
 7752TIP3   OH244670   2.901   2.730   2.744  0.4399  0.4886 -0.4893
 7752TIP3    H144671   2.953   2.808   2.763  1.0803 -0.3122  1.2632
 7752TIP3    H244672   2.835   2.727   2.814  0.9744 -0.9754  0.0022
 7753TIP3   OH244673   2.791   4.264  16.743 -0.1352  0.5140  0.8577
 7753TIP3    H144674   2.744   4.201  16.799 -0.4960 -1.1272 -1.1715
 7753TIP3    H244675   2.877   4.272  16.785  0.1474 -1.8582  0.9032
 7754TIP3   OH244676   6.235   5.707   4.714  0.9075  0.3479  0.3240
 7754TIP3    H144677   6.205   5.733   4.801  0.4983 -2.2220  1.0183
 7754TIP3    H244678   6.164   5.733   4.655 -0.0133 -0.2565  1.1384
 7755TIP3   OH244679   5.336   2.355   5.153 -0.1826  0.2806 -0.2504
 7755TIP3    H144680   5.312   2.307   5.074 -0.1872  1.2485 -0.8502
 7755TIP3    H244681   5.269   2.423   5.161 -0.8914 -0.5607  1.2806
 7756TIP3   OH244682   4.388   0.858   5.368 -0.5357 -0.0977  0.0087
 7756TIP3    H144683   4.383   0.953   5.354  0.1160  0.1697  1.3976
 7756TIP3    H244684   4.322   0.822   5.309 -1.5844  1.3030  0.2672
 7757TIP3   OH244685   0.687   0.972  15.846  0.2782 -0.1053  0.0210
 7757TIP3    H144686   0.616   1.036  15.843 -0.3669 -0.8339 -1.1578
 7757TIP3    H244687   0.742   1.000  15.919  1.3984  3.2192 -1.9038
 7758TIP3   OH244688   2.642   2.783  12.330  0.7005 -0.3121 -0.3298
 7758TIP3    H144689   2.716   2.840  12.312 -0.1057  0.5929 -0.9061
 7758TIP3    H244690   2.649   2.713  12.266  0.2833  0.5391 -1.3345
 7759TIP3   OH244691   1.483   3.996  13.250 -0.1300 -0.0665  0.4376
 7759TIP3    H144692   1.507   3.948  13.330  0.6377  0.3630  0.4673
 7759TIP3    H244693   1.452   3.928  13.190  1.0099 -0.6248  0.4562
 7760TIP3   OH244694   5.430   1.529   1.089  0.1469 -0.0060 -0.3936
 7760TIP3    H144695   5.396   1.492   1.008  0.8342 -0.7022 -0.3765
 7760TIP3    H244696   5.353   1.565   1.133 -0.1986  0.5399 -1.4268
 7761TIP3   OH244697   1.285   6.444   1.460 -0.0945 -0.1735  0.1567
 7761TIP3    H144698   1.273   6.396   1.543 -1.6851 -0.0491  0.0308
 7761TIP3    H244699   1.219   6.513   1.463  1.3532  1.2892 -0.2241
 7762TIP3   OH244700   3.957   1.458  14.369  0.2403 -1.0150  0.0661
 7762TIP3    H144701   4.036   1.424  14.410 -0.1356  0.1461  1.8693
 7762TIP3    H244702   3.902   1.487  14.442 -0.2474  1.6951 -1.2197
 7763TIP3   OH244703   1.311   3.829   3.628 -0.2020 -0.2545  0.3341
 7763TIP3    H144704   1.231   3.775   3.633 -0.0237 -0.3997  3.1405
 7763TIP3    H244705   1.382   3.768   3.650  0.6289  0.0808 -1.2811
 7764TIP3   OH244706   3.468   0.591   3.267 -0.1431  0.1710  0.2594
 7764TIP3    H144707   3.446   0.610   3.358 -1.4313  0.0005 -0.0042
 7764TIP3    H244708   3.542   0.531   3.273  0.8154  1.3874  1.1595
 7765TIP3   OH244709   5.111   6.160   5.661  0.1648 -0.1592  0.0734
 7765TIP3    H144710   5.102   6.152   5.756  0.0535  1.2763  0.1965
 7765TIP3    H244711   5.078   6.247   5.641 -1.2206 -0.9709 -1.4700
 7766TIP3   OH244712   5.055   0.779   1.682 -0.1940  0.0609  0.2219
 7766TIP3    H144713   5.001   0.853   1.708 -0.6864  0.1899 -1.0886
 7766TIP3    H244714   5.005   0.702   1.708 -0.7385  0.1852 -0.4241
 7767TIP3   OH244715   3.710   3.837  16.996 -0.1347  0.0725 -0.0475
 7767TIP3    H144716   3.745   3.798  17.075  1.4620 -2.4658 -1.8642
 7767TIP3    H244717   3.628   3.790  16.980  0.0667 -0.1575 -0.4234
 7768TIP3   OH244718   1.805   3.575   4.877  0.1462 -0.0242  0.0706
 7768TIP3    H144719   1.767   3.656   4.913 -1.8410 -1.6229  1.8627
 7768TIP3    H244720   1.871   3.550   4.942  1.0912  0.3658 -0.7224
 7769TIP3   OH244721   4.431   0.350   1.377 -0.1890  0.4460 -0.3612
 7769TIP3    H144722   4.492   0.328   1.447 -0.5838 -3.2140 -0.9309
 7769TIP3    H244723   4.486   0.381   1.306  0.8262 -0.8656 -0.1761
 7770TIP3   OH244724   6.257   3.437  11.055 -0.3462 -0.2976  0.1333
 7770TIP3    H144725   6.271   3.458  10.962  0.2935 -0.5138  0.1777
 7770TIP3    H244726   6.196   3.363  11.053 -0.6951 -0.0033 -0.1027
 7771TIP3   OH244727   5.423   5.294  13.265 -0.2754  0.4388  0.0531
 7771TIP3    H144728   5.472   5.324  13.342 -0.8473  1.1009  0.1717
 7771TIP3    H244729   5.344   5.348  13.265 -0.3261  0.3698 -0.9520
 7772TIP3   OH244730   3.008   2.898   5.438  0.3744 -0.2202  0.4537
 7772TIP3    H144731   2.977   2.909   5.348 -0.0288 -1.3451  0.4321
 7772TIP3    H244732   3.100   2.876   5.430  0.2761 -0.5727  0.2997
 7773TIP3   OH244733   0.533   5.481   0.551 -0.4086 -0.1720 -0.0894
 7773TIP3    H144734   0.626   5.497   0.536 -0.8101  1.8120 -0.6540
 7773TIP3    H244735   0.527   5.386   0.564  2.0350 -0.1023  2.6007
 7774TIP3   OH244736   6.250   0.016  12.556 -0.1131 -0.4380 -0.0543
 7774TIP3    H144737   6.217   0.086  12.500  0.7689 -0.0071 -0.0518
 7774TIP3    H244738   6.183   0.005  12.623  0.1163  0.9939  0.4444
 7775TIP3   OH244739   3.079   2.695  16.886  0.3027 -0.0202 -0.2013
 7775TIP3    H144740   3.171   2.692  16.913  1.2458 -0.3024 -3.0450
 7775TIP3    H244741   3.066   2.786  16.859 -0.3164  0.0420  0.2894
 7776TIP3   OH244742   2.508   1.646  14.251 -0.4796  0.0218  0.2779
 7776TIP3    H144743   2.413   1.642  14.261 -0.5106  2.6432  2.1570
 7776TIP3    H244744   2.526   1.737  14.225  1.5885  0.2314  2.0897
 7777TIP3   OH244745   1.417   6.638  11.742 -0.6011 -0.6391  0.0293
 7777TIP3    H144746   1.337   6.685  11.766 -1.0587 -1.1196 -0.5243
 7777TIP3    H244747   1.393   6.588  11.664  0.2190 -0.8577 -0.0938
 7778TIP3   OH244748   5.634   1.803   1.916  0.6356 -0.3487 -0.3984
 7778TIP3    H144749   5.552   1.754   1.921  0.4520  0.1087  1.5838
 7778TIP3    H244750   5.665   1.788   1.826  0.5517 -4.0279  0.0164
 7779TIP3   OH244751   5.890   5.646   2.499  0.0952 -0.5407  1.3009
 7779TIP3    H144752   5.910   5.718   2.439 -1.0684 -1.8918 -0.8350
 7779TIP3    H244753   5.797   5.657   2.519 -0.0928 -1.4088  0.9490
 7780TIP3   OH244754   1.938   5.778   3.176 -0.2741 -0.7074  0.0993
 7780TIP3    H144755   1.859   5.758   3.225 -1.3348  1.9093 -0.3655
 7780TIP3    H244756   1.983   5.694   3.167 -1.9943 -1.9300  2.0736
 7781TIP3   OH244757   2.013   3.156   4.346  0.5247 -0.5996  0.1698
 7781TIP3    H144758   2.085   3.169   4.284  0.0815 -1.1491 -0.4770
 7781TIP3    H244759   2.001   3.061   4.350 -0.6680 -0.4893 -0.3447
 7782TIP3   OH244760   0.920   0.858  13.840 -0.4385 -0.0431  0.3883
 7782TIP3    H144761   0.847   0.814  13.796 -0.7177  0.7106  0.0716
 7782TIP3    H244762   0.965   0.906  13.769  0.0351 -0.0620  0.6707
 7783TIP3   OH244763   0.004   6.617  15.763  0.1306 -0.1750  0.1687
 7783TIP3    H144764   0.057   6.693  15.741  2.5727 -1.8644 -0.2562
 7783TIP3    H244765  -0.043   6.596  15.682  0.7008 -0.0440 -0.2013
 7784TIP3   OH244766   5.877   4.578  14.644 -0.3435  0.3487  0.3358
 7784TIP3    H144767   5.835   4.514  14.587 -0.7765  0.7794  0.1703
 7784TIP3    H244768   5.834   4.661  14.624 -1.3209  0.3196  2.0985
 7785TIP3   OH244769   0.264   4.093  16.505  0.0519  0.3085  0.3048
 7785TIP3    H144770   0.171   4.119  16.509 -0.0295 -0.1145  2.0908
 7785TIP3    H244771   0.310   4.161  16.554  0.5354 -0.0875  0.4116
 7786TIP3   OH244772   1.246   3.819  12.047  0.3050  0.1405 -0.1211
 7786TIP3    H144773   1.205   3.840  12.131  0.2317  1.1183 -0.3920
 7786TIP3    H244774   1.340   3.825  12.065  0.2963  0.0290 -0.0335
 7787TIP3   OH244775   2.876   2.335   3.554  0.2554 -0.2158  0.0969
 7787TIP3    H144776   2.881   2.303   3.643  1.3656 -0.8699 -0.1929
 7787TIP3    H244777   2.863   2.430   3.563  0.2873 -0.2898  0.9445
 7788TIP3   OH244778   2.887   3.279  14.441 -0.1190  0.4366  0.1699
 7788TIP3    H144779   2.802   3.263  14.484  0.3613  1.4306  1.5577
 7788TIP3    H244780   2.931   3.342  14.498  1.9467 -0.7609 -0.0287
 7789TIP3   OH244781   1.548   4.019   6.294 -0.0323 -0.0621 -0.1832
 7789TIP3    H144782   1.542   4.094   6.353  0.6525  0.5074 -0.8208
 7789TIP3    H244783   1.642   3.999   6.290 -0.2092 -1.0011  0.0282
 7790TIP3   OH244784   0.083   5.069   0.547 -0.2872  0.1591  0.2512
 7790TIP3    H144785   0.119   5.136   0.489 -0.6700  0.3241  0.2016
 7790TIP3    H244786   0.122   4.987   0.515 -1.0843  0.1433 -0.7423
 7791TIP3   OH244787   4.383   1.596   6.040  0.4822 -0.4534  0.0023
 7791TIP3    H144788   4.420   1.630   6.122 -1.3654  1.8915 -0.0261
 7791TIP3    H244789   4.432   1.640   5.971 -0.2154  0.2132 -0.0775
 7792TIP3   OH244790   4.374   0.683   1.314  0.0277  0.0668  0.3672
 7792TIP3    H144791   4.307   0.744   1.283  0.5121 -0.3039 -1.5538
 7792TIP3    H244792   4.378   0.616   1.246  1.1260 -0.8689  1.3136
 7793TIP3   OH244793   4.436   2.247  16.113  0.0789 -0.2352 -0.0676
 7793TIP3    H144794   4.372   2.229  16.183 -1.3705  0.8626 -1.0452
 7793TIP3    H244795   4.439   2.343  16.108  0.6109 -0.2945 -1.1184
 7794TIP3   OH244796   4.369   3.055  14.983  0.2248 -0.2999  0.4329
 7794TIP3    H144797   4.408   3.079  14.899 -0.4483 -0.6569  0.0077
 7794TIP3    H244798   4.409   3.115  15.046 -0.0118  0.6567 -0.3014
 7795TIP3   OH244799   1.839   2.938   3.534  0.0629 -0.2021  0.2942
 7795TIP3    H144800   1.848   2.910   3.443 -1.5676  0.9843 -0.2966
 7795TIP3    H244801   1.780   2.873   3.572 -1.0304  0.4870 -0.1511
 7796TIP3   OH244802   5.820   5.387   1.370 -0.1660  0.1981 -0.3683
 7796TIP3    H144803   5.747   5.336   1.335 -0.7574 -0.1345  1.2555
 7796TIP3    H244804   5.898   5.338   1.345 -0.5958 -0.3291 -0.7019
 7797TIP3   OH244805   2.435   0.502  13.553  0.3594  0.0919 -0.5258
 7797TIP3    H144806   2.410   0.551  13.474 -0.8514 -1.2221 -0.9994
 7797TIP3    H244807   2.374   0.428  13.555  3.1742 -2.4068 -0.8249
 7798TIP3   OH244808   1.895   6.799   0.534 -0.5076  0.0268 -0.6046
 7798TIP3    H144809   1.886   6.890   0.563  1.2488 -0.3135  1.2844
 7798TIP3    H244810   1.973   6.799   0.479  0.2150 -0.4760  0.3727
 7799TIP3   OH244811   6.334   4.724  16.207  0.5756 -0.3681  0.3107
 7799TIP3    H144812   6.306   4.719  16.299  2.1292 -1.1180  0.7785
 7799TIP3    H244813   6.275   4.665  16.161 -1.2642  1.2107  0.5038
 7800TIP3   OH244814   5.505   2.548  15.851 -0.0663  0.1847  0.2945
 7800TIP3    H144815   5.445   2.600  15.798  0.0499 -1.5923 -1.7130
 7800TIP3    H244816   5.579   2.530  15.793  0.8982 -0.4038  1.6493
 7801TIP3   OH244817   0.631   3.625  13.156  0.1939 -0.1450  0.1352
 7801TIP3    H144818   0.577   3.614  13.079 -0.3430 -0.3312  0.5323
 7801TIP3    H244819   0.661   3.716  13.152 -0.4366  0.0664  0.0915
 7802TIP3   OH244820   2.599   4.638   2.444 -0.1240 -0.7635 -0.0776
 7802TIP3    H144821   2.667   4.706   2.436 -1.9787  0.9659 -3.2660
 7802TIP3    H244822   2.525   4.682   2.485 -0.9542 -1.1889 -1.0800
 7803TIP3   OH244823   5.992   2.857   3.409 -0.4117 -0.3703 -0.0813
 7803TIP3    H144824   5.907   2.817   3.427  0.6401 -2.4711  0.5255
 7803TIP3    H244825   6.007   2.841   3.316 -0.3424 -0.6623 -0.0189
 7804TIP3   OH244826   2.596   3.795   0.607  0.1555 -0.6368 -0.2976
 7804TIP3    H144827   2.636   3.841   0.532 -1.6770  0.4302 -0.6915
 7804TIP3    H244828   2.663   3.800   0.676  0.7807  0.9436 -0.9568
 7805TIP3   OH244829   4.605   3.703  10.666 -0.0828 -0.4740  0.4116
 7805TIP3    H144830   4.573   3.665  10.747 -3.4172  0.2827 -0.4013
 7805TIP3    H244831   4.544   3.671  10.599  0.4853  1.6460 -1.2162
 7806TIP3   OH244832   5.874   4.800   3.641 -0.4971 -0.1774 -0.1290
 7806TIP3    H144833   5.793   4.848   3.624 -0.4504 -0.5352 -1.4339
 7806TIP3    H244834   5.857   4.751   3.721 -0.7141  1.6283  0.9892
 7807TIP3   OH244835   3.844   0.396  11.337  0.0697  0.1089  0.0886
 7807TIP3    H144836   3.831   0.306  11.308  0.7104 -0.4662  1.4844
 7807TIP3    H244837   3.804   0.399  11.424  0.4476  1.0374  0.2425
 7808TIP3   OH244838   0.727   5.249   0.294  0.0681 -0.2743  0.1781
 7808TIP3    H144839   0.649   5.293   0.260 -0.9858 -1.1675  1.3554
 7808TIP3    H244840   0.696   5.199   0.369  1.9954  0.2443  1.4072
 7809TIP3   OH244841   6.401   6.308  12.108 -0.0098  0.0813  0.2787
 7809TIP3    H144842   6.357   6.229  12.139  1.1855 -1.0327 -0.7875
 7809TIP3    H244843   6.358   6.329  12.026 -0.5793  0.7866  0.7442
 7810TIP3   OH244844   0.164   2.002  10.717 -0.6803  0.0971 -0.2769
 7810TIP3    H144845   0.259   2.015  10.722 -0.5411 -0.6977 -0.8312
 7810TIP3    H244846   0.149   1.917  10.757 -0.7176 -1.5455 -3.4793
 7811TIP3   OH244847   1.306   2.617   4.392  0.2666 -0.2985 -0.0081
 7811TIP3    H144848   1.344   2.692   4.437  0.3207 -0.0726 -0.4184
 7811TIP3    H244849   1.380   2.572   4.352  0.0582  0.6402 -1.5555
 7812TIP3   OH244850   4.478   3.838  16.485 -0.0014  0.7124  0.3066
 7812TIP3    H144851   4.390   3.805  16.501  1.0441 -1.4804  1.9599
 7812TIP3    H244852   4.515   3.778  16.420  1.3488 -0.4433  2.0750
 7813TIP3   OH244853   3.119   1.844   6.157 -0.2053  0.2878 -0.0013
 7813TIP3    H144854   3.064   1.885   6.090  1.2960  0.1548 -1.3663
 7813TIP3    H244855   3.070   1.857   6.238 -2.0610  0.5075 -1.0837
 7814TIP3   OH244856   3.245   2.093  12.209  0.6254  0.7534 -0.2061
 7814TIP3    H144857   3.284   2.043  12.281 -1.5417 -1.6361 -0.5553
 7814TIP3    H244858   3.210   2.172  12.252  2.8806  1.4017  0.5949
 7815TIP3   OH244859   2.473   5.486   0.509  0.4480  0.3878  0.2201
 7815TIP3    H144860   2.454   5.556   0.572 -0.1693 -1.1808  1.8787
 7815TIP3    H244861   2.537   5.431   0.554  0.1566 -0.6589 -0.6198
 7816TIP3   OH244862   3.838   3.700   0.199  0.2251 -0.0185 -0.1295
 7816TIP3    H144863   3.900   3.716   0.270  0.6878 -0.3132 -0.4619
 7816TIP3    H244864   3.835   3.605   0.191  1.1548  0.0241 -1.3439
 7817TIP3   OH244865   2.858   2.276   3.809  0.3336  0.1036 -0.0664
 7817TIP3    H144866   2.855   2.359   3.856 -0.0575 -0.9323  1.8564
 7817TIP3    H244867   2.785   2.226   3.844  0.2850 -0.8888 -1.5199
 7818TIP3   OH244868   5.440   0.054  14.748 -0.4543 -0.1969 -0.3058
 7818TIP3    H144869   5.366   0.028  14.693 -2.3051  0.3159  1.8162
 7818TIP3    H244870   5.503  -0.017  14.739 -1.3264 -0.8081 -1.9037
 7819TIP3   OH244871   3.004   1.972   5.372 -0.6545 -0.7178  0.1996
 7819TIP3    H144872   2.954   1.961   5.452 -0.2496 -0.0307  0.5615
 7819TIP3    H244873   3.070   1.902   5.374 -1.2322 -1.2707  0.0014
 7820TIP3   OH244874   0.605   3.903  16.629 -0.2642 -0.1116 -0.6685
 7820TIP3    H144875   0.592   3.950  16.546  0.1460 -0.7610 -1.1056
 7820TIP3    H244876   0.691   3.863  16.621 -0.0028  0.2333  0.2855
 7821TIP3   OH244877   0.692   4.030   4.357 -0.1352  0.0832  0.2531
 7821TIP3    H144878   0.690   3.935   4.344  0.5103  0.0513  0.3710
 7821TIP3    H244879   0.609   4.061   4.320 -0.4246 -0.5451  0.3740
 7822TIP3   OH244880   0.605   0.529  15.095  0.4212 -0.1924  0.1959
 7822TIP3    H144881   0.624   0.451  15.147  3.7416  0.7924  0.7057
 7822TIP3    H244882   0.577   0.495  15.010 -0.6540 -1.8600  1.1560
 7823TIP3   OH244883   1.634   5.378   0.878  0.2220  0.3551  0.0270
 7823TIP3    H144884   1.616   5.446   0.813 -2.1411  0.0039  0.2255
 7823TIP3    H244885   1.578   5.305   0.853 -0.0048 -0.1501  1.8772
 7824TIP3   OH244886   0.749   1.647   5.226  0.0224 -0.4051 -0.0626
 7824TIP3    H144887   0.665   1.687   5.202 -0.0645 -1.0891 -0.9309
 7824TIP3    H244888   0.777   1.696   5.303 -0.0517  1.3969 -1.1171
 7825TIP3   OH244889   4.751   4.361   1.612  0.1467  0.1021  0.5931
 7825TIP3    H144890   4.749   4.377   1.707  0.5676  2.4378  0.2706
 7825TIP3    H244891   4.667   4.393   1.581  0.5936  0.7423  0.0112
 7826TIP3   OH244892   6.513   5.500  14.445  0.0959  0.0950  0.4453
 7826TIP3    H144893   6.459   5.576  14.468 -1.5587 -0.3499 -1.6108
 7826TIP3    H244894   6.581   5.498  14.511 -0.3538  2.8108  1.1136
 7827TIP3   OH244895   1.663   0.775  15.555  0.3256 -0.2011  0.0045
 7827TIP3    H144896   1.724   0.847  15.542 -1.7446  1.4537 -1.2405
 7827TIP3    H244897   1.684   0.741  15.642  2.6716  0.5570 -0.2037
 7828TIP3   OH244898   3.878   1.742   2.204  0.1488 -0.4330  0.2870
 7828TIP3    H144899   3.806   1.681   2.187  0.1837 -0.2761 -0.4582
 7828TIP3    H244900   3.861   1.774   2.293 -1.1662  0.2126 -0.1568
 7829TIP3   OH244901   4.244   1.444   2.679 -0.4620 -0.3771  0.4597
 7829TIP3    H144902   4.204   1.371   2.725  0.0009 -1.9003 -1.4442
 7829TIP3    H244903   4.245   1.515   2.743 -0.4407 -2.1663  2.5307
 7830TIP3   OH244904   2.994   2.155  16.797  0.5416 -0.6934  0.4952
 7830TIP3    H144905   3.057   2.213  16.839 -0.2866  0.3205  0.3852
 7830TIP3    H244906   3.034   2.068  16.802  1.5153 -0.2226  1.2527
 7831TIP3   OH244907   2.627   2.224  10.030  0.7511 -0.0501 -0.0241
 7831TIP3    H144908   2.692   2.251  10.094  0.7052  1.6534 -0.6191
 7831TIP3    H244909   2.544   2.225  10.077  0.6989  1.3315 -0.1065
 7832TIP3   OH244910   2.912   6.602   5.629  0.1353 -0.3167 -0.8009
 7832TIP3    H144911   2.947   6.686   5.602  0.0922  0.3857  1.1415
 7832TIP3    H244912   2.818   6.610   5.615  0.0738  0.1625 -0.1719
 7833TIP3   OH244913   3.427   1.033   0.767  1.0275 -0.4420  0.0052
 7833TIP3    H144914   3.346   1.061   0.725 -0.1121 -3.9051 -0.4802
 7833TIP3    H244915   3.412   1.045   0.860  0.6750  0.5841 -0.1787
 7834TIP3   OH244916   2.012   6.458   4.659  0.0457 -0.0439 -0.0998
 7834TIP3    H144917   2.067   6.380   4.666 -0.1968 -0.3667 -1.5170
 7834TIP3    H244918   2.073   6.528   4.636  0.0399 -0.1650 -0.4973
 7835TIP3   OH244919   6.226   3.971   4.715  0.5750  0.3304 -0.6714
 7835TIP3    H144920   6.286   3.898   4.730 -0.0555 -0.2596 -0.9852
 7835TIP3    H244921   6.281   4.041   4.678  1.4862  0.5841  1.0609
 7836TIP3   OH244922   2.170   1.064   4.556  0.1266  0.6008  0.3743
 7836TIP3    H144923   2.177   1.106   4.642 -0.1016  2.0065 -0.2792
 7836TIP3    H244924   2.191   0.972   4.573 -0.5191  0.7325  2.0337
 7837TIP3   OH244925   6.388   0.031   0.461 -0.5024 -0.1723 -0.1697
 7837TIP3    H144926   6.325  -0.016   0.516  1.0061 -2.3466 -0.1943
 7837TIP3    H244927   6.427   0.096   0.520 -0.5522 -0.9137  0.7019
 7838TIP3   OH244928   0.743   2.597   1.184  0.4535  0.2047  0.0444
 7838TIP3    H144929   0.778   2.513   1.154  0.9689  0.3494  0.2298
 7838TIP3    H244930   0.659   2.605   1.139  1.0129  0.2093 -1.0397
 7839TIP3   OH244931   6.076   0.786   5.943  0.0876  0.5604  0.6177
 7839TIP3    H144932   6.030   0.719   5.893 -0.1694  0.9448  0.3264
 7839TIP3    H244933   6.011   0.818   6.006 -0.1086  1.2205  0.0946
 7840TIP3   OH244934   5.291   0.281   0.507 -0.3816  0.5509  0.0076
 7840TIP3    H144935   5.213   0.276   0.563 -2.0454  3.2949 -1.7979
 7840TIP3    H244936   5.363   0.253   0.564 -2.2444  1.0144  2.8079
 7841TIP3   OH244937   5.885   6.681  11.124  0.4377 -0.0567  0.5447
 7841TIP3    H144938   5.954   6.673  11.058 -1.9859 -0.4152 -2.1351
 7841TIP3    H244939   5.810   6.637  11.085 -1.7425  1.5569  2.6780
 7842TIP3   OH244940   3.101   3.002  12.940  1.0827  0.4931  0.1882
 7842TIP3    H144941   3.056   2.930  12.895 -0.2261  1.1331  0.4188
 7842TIP3    H244942   3.162   2.958  13.000 -0.5800 -0.5103  1.2390
 7843TIP3   OH244943   6.223   2.303   3.738  0.3021 -0.4738 -0.5155
 7843TIP3    H144944   6.318   2.292   3.737  0.4066  0.3155 -1.4586
 7843TIP3    H244945   6.206   2.370   3.671 -0.7113  1.0522  1.1601
 7844TIP3   OH244946   3.372   0.389   0.590  0.0695 -0.1340  0.1118
 7844TIP3    H144947   3.344   0.305   0.626 -0.2610 -0.0240  0.1127
 7844TIP3    H244948   3.373   0.375   0.495  2.1685 -0.8167  0.1679
 7845TIP3   OH244949   4.314   2.069   2.629  0.7809 -0.3037 -0.0914
 7845TIP3    H144950   4.277   2.145   2.674  0.7332 -0.7426  0.6335
 7845TIP3    H244951   4.402   2.061   2.666  0.5553 -0.9783  0.3105
 7846TIP3   OH244952   1.025   0.618  14.949  1.0194  0.5673 -0.1608
 7846TIP3    H144953   0.989   0.703  14.973 -0.4690  0.1266 -0.7212
 7846TIP3    H244954   0.954   0.573  14.904  1.8263 -0.9193 -0.0383
 7847TIP3   OH244955   3.460   0.616   2.750  0.1262  0.5698  0.2943
 7847TIP3    H144956   3.365   0.611   2.741  0.0167 -0.1430  1.5402
 7847TIP3    H244957   3.487   0.680   2.685 -1.0319 -0.2948 -1.1010
 7848TIP3   OH244958   5.913   1.819  10.880 -0.9613  0.3306  0.4288
 7848TIP3    H144959   5.992   1.859  10.917  0.7736 -2.9110  0.6505
 7848TIP3    H244960   5.940   1.730  10.857 -4.0456 -0.2773 -1.4943
 7849TIP3   OH244961   2.626   3.427   2.089 -0.6109 -0.0101 -0.0901
 7849TIP3    H144962   2.567   3.503   2.091  0.2903  0.7770 -1.5804
 7849TIP3    H244963   2.676   3.433   2.171  0.5583  1.9666 -0.8885
 7850TIP3   OH244964   4.421   2.664  15.532  0.9419 -0.1468 -0.7226
 7850TIP3    H144965   4.410   2.599  15.601  0.4953 -1.0401 -1.6208
 7850TIP3    H244966   4.335   2.706  15.525  1.2081  0.5284 -0.1961
 7851TIP3   OH244967   1.399   4.022   6.087  0.3818  0.6738  0.3137
 7851TIP3    H144968   1.475   4.020   6.145 -0.8887  0.6413  2.0649
 7851TIP3    H244969   1.325   4.042   6.145 -1.4260 -2.2644 -0.7404
 7852TIP3   OH244970   0.162   0.826  11.553  0.4942 -0.5812  0.5805
 7852TIP3    H144971   0.211   0.892  11.601  1.7947 -0.7235 -0.4718
 7852TIP3    H244972   0.146   0.865  11.467  0.2888 -1.2087  0.3249
 7853TIP3   OH244973   3.339   2.053  12.554  0.3435 -0.1720  0.5865
 7853TIP3    H144974   3.276   2.014  12.615 -0.7099  0.3735 -0.1203
 7853TIP3    H244975   3.351   1.987  12.486 -0.3523  0.1468  0.1349
 7854TIP3   OH244976   1.428   2.098  11.381  0.4292 -0.0361  0.4406
 7854TIP3    H144977   1.399   2.185  11.410  2.3835  1.0953 -0.7861
 7854TIP3    H244978   1.397   2.093  11.290 -0.2368 -0.9355  0.7026
 7855TIP3   OH244979   3.567   3.631   0.822  0.7966 -0.7566 -0.4078
 7855TIP3    H144980   3.487   3.587   0.848 -0.9882  2.6326  0.3490
 7855TIP3    H244981   3.558   3.644   0.727 -0.1267  0.5611 -0.1619
 7856TIP3   OH244982   2.532   1.677  14.551  0.7705 -0.5227 -0.3981
 7856TIP3    H144983   2.605   1.734  14.576 -0.1659  0.9558 -0.8658
 7856TIP3    H244984   2.541   1.668  14.456  0.4749 -0.5004 -0.4301
 7857TIP3   OH244985   1.454   4.527  16.632  0.2523 -0.3099  0.1186
 7857TIP3    H144986   1.415   4.440  16.640 -0.1237 -0.1697 -0.1675
 7857TIP3    H244987   1.384   4.582  16.598  0.6318 -0.0025 -0.1754
 7858TIP3   OH244988   4.214   4.426   2.255  0.3902 -0.1427  0.2238
 7858TIP3    H144989   4.264   4.386   2.326  0.8347 -1.5706 -0.8239
 7858TIP3    H244990   4.276   4.486   2.213  0.7644 -0.7329 -0.1002
 7859TIP3   OH244991   6.396   5.633  15.935  0.7988 -0.5070  0.3778
 7859TIP3    H144992   6.452   5.591  15.869  0.0641  0.0195 -0.6070
 7859TIP3    H244993   6.347   5.699  15.886  0.4090  0.0684  1.5095
 7860TIP3   OH244994   1.408   6.553  13.324 -0.0609  0.1866 -0.0254
 7860TIP3    H144995   1.502   6.561  13.309  0.0772 -1.9007 -0.6493
 7860TIP3    H244996   1.369   6.549  13.236 -0.2789 -2.5272  0.0879
 7861TIP3   OH244997   2.556   4.284  13.473  0.1119 -0.2821  0.5067
 7861TIP3    H144998   2.609   4.220  13.522 -1.4520 -0.8861  1.4713
 7861TIP3    H244999   2.488   4.233  13.432 -0.4818  0.6332  0.3240
 7862TIP3   OH245000   5.686   5.262  15.958 -0.0330  0.6101 -0.6776
 7862TIP3    H145001   5.651   5.349  15.974 -0.5203  0.3964 -0.5492
 7862TIP3    H245002   5.765   5.257  16.012  0.4887  1.2783 -1.3586
 7863TIP3   OH245003   0.144   2.146  10.486 -0.0659  0.0753 -0.0609
 7863TIP3    H145004   0.237   2.159  10.469 -0.2480  1.0125 -0.4149
 7863TIP3    H245005   0.141   2.079  10.554  0.8657  0.0036 -0.0794
 7864TIP3   OH245006   2.203   4.973   0.486  0.0113 -0.2184  0.2338
 7864TIP3    H145007   2.159   4.890   0.468 -0.8080  0.7984 -2.9984
 7864TIP3    H245008   2.284   4.948   0.530 -1.6364 -2.4273  2.3327
 7865TIP3   OH245009   6.004   4.513   3.607  0.5905 -0.1601 -0.1394
 7865TIP3    H145010   5.939   4.578   3.581 -0.7327 -0.6646  1.7063
 7865TIP3    H245011   5.953   4.437   3.634  2.0775 -1.7732 -1.5621
 7866TIP3   OH245012   2.630   1.508  16.859  0.6431 -0.0735 -0.2747
 7866TIP3    H145013   2.638   1.497  16.764 -0.3315 -0.1077 -0.3633
 7866TIP3    H245014   2.654   1.599  16.874 -2.3806  0.9355 -0.9994
 7867TIP3   OH245015   0.643   5.101   1.021  0.0010  0.3176  0.0573
 7867TIP3    H145016   0.578   5.046   0.977  2.2169 -2.7548  0.2492
 7867TIP3    H245017   0.641   5.184   0.974 -0.1549 -1.5922 -3.6971
 7868TIP3   OH245018   4.509   5.238   2.950 -0.7920 -0.0054  0.1056
 7868TIP3    H145019   4.463   5.236   2.866 -1.7062 -0.9616  0.6110
 7868TIP3    H245020   4.598   5.210   2.929 -1.7744 -3.3914 -0.1453
 7869TIP3   OH245021   5.476   4.657  17.003 -0.3569 -0.1287 -0.7251
 7869TIP3    H145022   5.463   4.578  16.949 -2.1648 -2.6721  2.9746
 7869TIP3    H245023   5.393   4.668  17.049  0.5560  2.7852  0.4312
 7870TIP3   OH245024   0.600   3.289   4.641 -0.2669 -0.7243  0.0437
 7870TIP3    H145025   0.605   3.341   4.560 -1.2039 -2.6163 -1.3215
 7870TIP3    H245026   0.681   3.237   4.640 -0.6975 -1.4061 -0.1912
 7871TIP3   OH245027   3.805   6.050  14.668  0.0735 -0.3877 -0.3939
 7871TIP3    H145028   3.897   6.024  14.670  0.2871  0.3644  1.0358
 7871TIP3    H245029   3.768   6.003  14.594  1.7730 -0.1194 -1.4561
 7872TIP3   OH245030   2.352   2.793  12.060 -0.2282  0.0007 -0.2313
 7872TIP3    H145031   2.421   2.848  12.098 -1.4388  1.0122  0.5694
 7872TIP3    H245032   2.337   2.830  11.973 -0.0254  0.0053 -0.2656
 7873TIP3   OH245033   5.463   6.297   5.920 -0.4483 -0.0026  0.0796
 7873TIP3    H145034   5.423   6.303   6.006 -0.8540  0.6943 -0.1434
 7873TIP3    H245035   5.557   6.293   5.937 -0.2862  3.0737  0.5178
 7874TIP3   OH245036   1.801   6.126  11.987 -0.0523  0.2104 -0.3262
 7874TIP3    H145037   1.850   6.131  12.070 -2.0775  0.8551  0.9006
 7874TIP3    H245038   1.782   6.217  11.965 -1.3107 -0.0510 -0.3723
 7875TIP3   OH245039   0.545   2.102   4.506  0.0395 -0.1236 -0.1728
 7875TIP3    H145040   0.547   2.054   4.423  5.0684 -0.9609  0.1248
 7875TIP3    H245041   0.528   2.193   4.481 -2.3779 -0.8510 -1.5431
 7876TIP3   OH245042   5.749   2.036   2.641  0.2196  0.0507 -0.2834
 7876TIP3    H145043   5.822   1.997   2.690  0.6459 -0.7799 -1.5254
 7876TIP3    H245044   5.788   2.067   2.560 -0.1420  3.0460  0.5821
 7877TIP3   OH245045   4.735   6.485   0.784  0.0296  0.5183  0.1098
 7877TIP3    H145046   4.671   6.415   0.768  0.3658  0.6556 -2.0292
 7877TIP3    H245047   4.800   6.445   0.841 -0.6668 -0.3761  0.3110
 7878TIP3   OH245048   2.361   4.131   0.070 -0.2141 -0.1719 -0.1309
 7878TIP3    H145049   2.346   4.087   0.153 -1.1984 -1.2134 -0.8342
 7878TIP3    H245050   2.450   4.106   0.045  0.3392  0.6893  0.9004
 7879TIP3   OH245051   3.362   5.107   1.264 -0.3610 -0.2092  0.2814
 7879TIP3    H145052   3.348   5.180   1.204 -3.1267 -1.4894 -0.7863
 7879TIP3    H245053   3.412   5.043   1.214 -1.3010 -0.6197 -0.1539
 7880TIP3   OH245054   5.309   1.431  15.622 -0.4216 -0.0993 -0.4081
 7880TIP3    H145055   5.339   1.371  15.554  0.1370  0.7538 -0.9367
 7880TIP3    H245056   5.327   1.518  15.587  2.3819  0.3978  1.8770
 7881TIP3   OH245057   1.664   3.039  16.765  0.0713  0.1268  0.2148
 7881TIP3    H145058   1.701   2.980  16.699  0.4445 -1.0067  1.3853
 7881TIP3    H245059   1.738   3.057  16.824 -0.3462  0.8118  0.5401
 7882TIP3   OH245060   3.396   0.321  11.560  0.4186 -0.5335  0.0585
 7882TIP3    H145061   3.346   0.335  11.641 -0.3110  0.8013 -0.5972
 7882TIP3    H245062   3.358   0.382  11.497  0.0794 -2.4846 -1.7178
 7883TIP3   OH245063   2.410   3.235   0.520 -0.5210  0.0703  0.3095
 7883TIP3    H145064   2.491   3.282   0.505  0.1232 -0.7873  0.9772
 7883TIP3    H245065   2.425   3.184   0.600 -1.2860 -0.9990 -0.1858
 7884TIP3   OH245066   0.748   1.513   0.300  0.0835  0.2563  0.2603
 7884TIP3    H145067   0.720   1.422   0.291  0.2217  0.3029 -0.7896
 7884TIP3    H245068   0.697   1.548   0.373 -1.2266 -0.1765 -0.4333
 7885TIP3   OH245069   1.010   4.364   1.674 -0.2544 -0.4689 -0.2647
 7885TIP3    H145070   0.938   4.312   1.640 -0.5434  0.2184 -0.7334
 7885TIP3    H245071   1.089   4.321   1.641 -0.4221 -1.3414  0.4185
 7886TIP3   OH245072   4.934   4.843  11.378 -0.1348 -0.0628  0.5696
 7886TIP3    H145073   4.973   4.930  11.384 -0.2928  0.2713 -2.0789
 7886TIP3    H245074   4.957   4.813  11.290 -3.1161 -1.1869  0.0714
 7887TIP3   OH245075   3.750   3.964  16.374 -0.2874 -0.1660  0.0421
 7887TIP3    H145076   3.699   3.895  16.417  0.9743  0.0556  1.9872
 7887TIP3    H245077   3.734   4.042  16.427 -0.8708  0.8398 -1.5311
 7888TIP3   OH245078   0.549   2.222  13.209  0.3745  0.6397 -0.2572
 7888TIP3    H145079   0.621   2.209  13.148  0.0396  1.0471 -0.7560
 7888TIP3    H245080   0.472   2.234  13.152 -0.2831 -0.8704  0.2693
 7889TIP3   OH245081   6.623   0.992   0.082  0.2060 -0.4167 -0.6407
 7889TIP3    H145082   6.690   0.927   0.063  0.3808  0.1877 -2.2004
 7889TIP3    H245083   6.543   0.941   0.096  0.6370 -1.0347 -0.3587
 7890TIP3   OH245084   0.300   2.839   2.106 -0.1208  0.0484  0.2601
 7890TIP3    H145085   0.326   2.813   2.194 -1.3771 -1.9115  0.1195
 7890TIP3    H245086   0.382   2.845   2.057  0.4771 -0.3042  1.1959
 7891TIP3   OH245087   4.426   6.346   1.294  0.1814 -0.2074 -0.2086
 7891TIP3    H145088   4.519   6.341   1.273  0.6320 -0.8130  1.7583
 7891TIP3    H245089   4.384   6.285   1.233  1.0599 -0.0565 -0.9950
 7892TIP3   OH245090   3.075   6.163  14.731  0.2412 -0.1567  0.5352
 7892TIP3    H145091   3.008   6.132  14.792 -0.4893  1.4883  0.6485
 7892TIP3    H245092   3.158   6.130  14.766 -0.2574 -0.0145  1.9122
 7893TIP3   OH245093   5.385   5.674  12.371 -0.1975  0.7540  0.3287
 7893TIP3    H145094   5.394   5.736  12.444  0.4590  1.0272  0.0247
 7893TIP3    H245095   5.442   5.710  12.302 -0.6036  0.3590 -0.2221
 7894TIP3   OH245096   3.160   3.260   4.612  0.1714 -0.6284 -0.4285
 7894TIP3    H145097   3.088   3.309   4.652  1.6600  1.1422  0.2341
 7894TIP3    H245098   3.129   3.240   4.524 -1.0007  0.3823 -0.2780
 7895TIP3   OH245099   6.801   2.857   0.807  0.6607 -0.3448  0.4886
 7895TIP3    H145100   6.788   2.952   0.817 -1.7816 -0.6569  0.8034
 7895TIP3    H245101   6.867   2.835   0.873 -1.0221  0.6814  2.6484
 7896TIP3   OH245102   1.869   0.651   1.669  0.2933 -0.6880 -0.6895
 7896TIP3    H145103   1.914   0.717   1.723  0.0987 -1.4345  0.4137
 7896TIP3    H245104   1.776   0.664   1.688  0.3132 -2.0823  0.5347
 7897TIP3   OH245105   2.585   5.571   0.963 -0.2512  0.2174 -0.4440
 7897TIP3    H145106   2.507   5.610   1.003  0.0197  1.3305 -0.9630
 7897TIP3    H245107   2.638   5.646   0.936  0.3217 -0.5199 -1.4343
 7898TIP3   OH245108   0.134   2.628  13.330  0.6395 -0.3239 -0.1982
 7898TIP3    H145109   0.170   2.668  13.250  0.6753  1.8565  0.8582
 7898TIP3    H245110   0.211   2.611  13.384  0.4389  0.2229  0.2593
 7899TIP3   OH245111   6.326   6.577  12.465  0.3464  0.1925 -0.4629
 7899TIP3    H145112   6.239   6.542  12.449  1.0264 -1.0452 -1.6689
 7899TIP3    H245113   6.311   6.658  12.514 -1.4496 -0.1372 -0.4159
 7900TIP3   OH245114   6.644   2.465  11.052  0.6334 -0.0614 -0.0158
 7900TIP3    H145115   6.727   2.437  11.091  0.9195  0.5644 -0.1603
 7900TIP3    H245116   6.658   2.557  11.030 -0.7471  0.6261  1.7286
 7901TIP3   OH245117   3.119   5.476   4.273 -0.3030 -0.2382 -0.0098
 7901TIP3    H145118   3.182   5.405   4.271  0.5086  0.2736  2.8613
 7901TIP3    H245119   3.065   5.459   4.350 -0.9886  1.5186 -0.0449
 7902TIP3   OH245120   3.556   2.359  12.854 -0.7318 -0.4573  0.5185
 7902TIP3    H145121   3.462   2.352  12.838 -0.3586 -2.6869 -1.2039
 7902TIP3    H245122   3.563   2.374  12.948 -2.8170  1.2905  0.4562
 7903TIP3   OH245123   4.901   1.911  11.456 -0.1212 -0.1087 -0.1790
 7903TIP3    H145124   4.839   1.917  11.529  0.3984  1.5767  0.1650
 7903TIP3    H245125   4.967   1.848  11.486 -1.2256 -1.3337 -0.2400
 7904TIP3   OH245126   1.210   1.740  11.654  0.0231  0.8228 -0.2823
 7904TIP3    H145127   1.265   1.677  11.607  1.4366  0.7796  1.3417
 7904TIP3    H245128   1.249   1.825  11.635 -1.4748  1.2109 -1.9083
 7905TIP3   OH245129   4.543   1.712   6.241  0.5070 -0.1851 -0.2276
 7905TIP3    H145130   4.592   1.727   6.322  1.8936  1.5077 -1.3077
 7905TIP3    H245131   4.515   1.800   6.214 -3.7191 -1.0372  0.5855
 7906TIP3   OH245132   5.818   3.859   4.661  0.3692 -0.1889  0.1549
 7906TIP3    H145133   5.896   3.914   4.651  0.8381 -0.6733  0.9773
 7906TIP3    H245134   5.796   3.832   4.572  1.0492  0.0813 -0.1030
 7907TIP3   OH245135   0.646   1.517   5.581  0.3235 -0.0998 -0.2166
 7907TIP3    H145136   0.618   1.605   5.605  0.0487 -0.4450  0.7873
 7907TIP3    H245137   0.672   1.477   5.665 -0.7186 -1.3808 -0.4769
 7908TIP3   OH245138   0.825   6.580  15.472 -0.8174  0.6165 -0.3473
 7908TIP3    H145139   0.823   6.511  15.405  0.6416  0.7231 -0.5441
 7908TIP3    H245140   0.917   6.581  15.502 -0.8644  2.3320 -0.1959
 7909TIP3   OH245141   3.441   2.720   1.341  0.1588 -0.7198  0.0063
 7909TIP3    H145142   3.409   2.636   1.310 -0.8416 -0.3656  0.0313
 7909TIP3    H245143   3.405   2.729   1.429  1.8197 -1.0927  0.7406
 7910TIP3   OH245144   0.143   1.549   1.849 -0.4407 -0.4068  0.4944
 7910TIP3    H145145   0.215   1.496   1.883  0.2399  0.5393  0.5753
 7910TIP3    H245146   0.111   1.598   1.925  0.2461  0.7582  0.0632
 7911TIP3   OH245147   4.147   5.756  16.307  0.3183  0.2527 -0.9225
 7911TIP3    H145148   4.103   5.829  16.263 -1.1594  1.2847  1.9928
 7911TIP3    H245149   4.083   5.685  16.305  0.2715  0.2822 -0.5421
 7912TIP3   OH245150   6.078   3.034  10.554  0.4203 -0.3484  0.5701
 7912TIP3    H145151   6.020   2.972  10.599  1.9606 -1.4609  1.1334
 7912TIP3    H245152   6.105   3.095  10.622  1.5716 -1.1375  0.8590
 7913TIP3   OH245153   6.161   4.309   3.184 -0.4778 -0.0810 -0.2267
 7913TIP3    H145154   6.138   4.225   3.145 -0.5255 -0.2603  0.1838
 7913TIP3    H245155   6.119   4.308   3.270 -1.3738  0.8138 -0.6439
 7914TIP3   OH245156   4.062   0.524   2.870  0.0502 -0.6419 -0.1535
 7914TIP3    H145157   4.077   0.539   2.777 -1.1954  0.4968 -0.1974
 7914TIP3    H245158   3.995   0.587   2.894  0.9067 -0.3781  1.7057
 7915TIP3   OH245159   2.856   4.716  12.873 -0.0618  0.4236  0.0669
 7915TIP3    H145160   2.899   4.792  12.913  0.2123  1.9945 -2.9199
 7915TIP3    H245161   2.928   4.663  12.839 -0.3259  0.1634 -0.0914
 7916TIP3   OH245162   0.094   2.764  11.087 -0.0545 -0.0478 -0.0088
 7916TIP3    H145163   0.139   2.838  11.128 -0.2225  0.0789 -0.0506
 7916TIP3    H245164   0.154   2.691  11.096  0.0566  0.0637  0.1524
 7917TIP3   OH245165   1.370   4.951   5.813 -0.5705 -0.3508  0.2092
 7917TIP3    H145166   1.347   4.858   5.820 -0.7083 -0.3276  0.0557
 7917TIP3    H245167   1.421   4.969   5.892 -0.4000 -0.6001  0.1564
 7918TIP3   OH245168   6.508   5.745   6.717  0.8186 -0.1428 -0.2791
 7918TIP3    H145169   6.532   5.665   6.670  1.1936 -0.5322  0.5450
 7918TIP3    H245170   6.422   5.769   6.683  0.4271 -1.2510 -0.1082
 7919TIP3   OH245171   3.660   6.029   3.217  0.3745  0.2158 -0.7725
 7919TIP3    H145172   3.616   5.974   3.152 -2.6636  0.4633  0.8857
 7919TIP3    H245173   3.665   5.974   3.296  2.2113  0.5814 -0.5740
 7920TIP3   OH245174   4.052   2.860  16.828  0.3330  0.7482  0.2587
 7920TIP3    H145175   4.049   2.900  16.741 -1.0708 -0.4050 -0.2684
 7920TIP3    H245176   4.120   2.794  16.822  0.0452  0.4784 -0.0561
 7921TIP3   OH245177   6.686   2.693  10.550 -0.5493 -0.4465 -0.4894
 7921TIP3    H145178   6.685   2.754  10.624 -1.1628  0.5860 -1.3167
 7921TIP3    H245179   6.772   2.653  10.553 -0.4572 -0.2000  0.6038
 7922TIP3   OH245180   1.808   2.375   0.339 -0.0864 -0.0640 -0.1599
 7922TIP3    H145181   1.821   2.395   0.246  1.8035 -0.7643 -0.0954
 7922TIP3    H245182   1.896   2.379   0.376 -0.6980 -0.6827  1.4191
 7923TIP3   OH245183   1.181   5.615  11.776 -0.2884  0.1899  0.3629
 7923TIP3    H145184   1.236   5.574  11.842 -0.5176 -0.6957  0.0146
 7923TIP3    H245185   1.241   5.672  11.727 -0.1897  1.1586  1.5444
 7924TIP3   OH245186   4.550   4.816  15.453  0.2694  0.3476 -0.8145
 7924TIP3    H145187   4.531   4.790  15.363 -1.0807 -3.0113  0.2940
 7924TIP3    H245188   4.645   4.804  15.461  0.1500 -1.1437 -1.3182
 7925TIP3   OH245189   2.022   5.331  12.625  0.4774 -0.0044  0.5942
 7925TIP3    H145190   2.007   5.237  12.636  1.6697 -0.1948  0.7517
 7925TIP3    H245191   1.942   5.364  12.585 -0.1129 -1.0189  0.9037
 7926TIP3   OH245192   6.186   5.057   1.776 -0.2502  0.1546 -0.6741
 7926TIP3    H145193   6.275   5.033   1.752 -0.9493 -2.4622 -0.9675
 7926TIP3    H245194   6.192   5.083   1.868  1.0490  1.7161 -1.1591
 7927TIP3   OH245195   4.367   1.211   3.602  0.6080  0.5569  0.0063
 7927TIP3    H145196   4.444   1.200   3.659  0.1648  0.3419  0.5759
 7927TIP3    H245197   4.300   1.249   3.660  0.8357  2.4865 -0.9102
 7928TIP3   OH245198   5.374   1.981  12.291 -0.5754  0.3988  0.0149
 7928TIP3    H145199   5.425   1.941  12.361 -2.1212 -0.0069  0.9306
 7928TIP3    H245200   5.285   1.987  12.325 -1.3399  0.3347 -1.8558
 7929TIP3   OH245201   4.952   4.162  14.099  0.2039  0.1257  0.3125
 7929TIP3    H145202   4.947   4.231  14.165 -2.1471  0.3220 -0.0018
 7929TIP3    H245203   4.917   4.085  14.143  0.1423 -0.1560 -0.2214
 7930TIP3   OH245204   3.238   4.154  10.984 -0.0215  0.0844 -0.3741
 7930TIP3    H145205   3.207   4.217  10.919  0.9340 -1.0003 -1.9360
 7930TIP3    H245206   3.305   4.202  11.033  0.0494  0.5839 -0.9399
 7931TIP3   OH245207   0.755   0.941   2.230  0.3442  0.0806  0.3959
 7931TIP3    H145208   0.672   0.895   2.242  1.7257 -3.0051 -0.8344
 7931TIP3    H245209   0.781   0.967   2.318 -0.9779 -0.6513  1.0292
 7932TIP3   OH245210   6.179   0.723  12.208  0.0406  0.3072  0.0766
 7932TIP3    H145211   6.146   0.771  12.133  0.8688 -0.0081 -0.5135
 7932TIP3    H245212   6.150   0.633  12.194  0.0257  0.2862  0.2363
 7933TIP3   OH245213   3.640   1.652   3.862 -0.3142 -0.1796  0.2062
 7933TIP3    H145214   3.635   1.717   3.933  3.5547 -1.0783  1.5259
 7933TIP3    H245215   3.592   1.576   3.896 -1.7934  0.6835  0.1471
 7934TIP3   OH245216   0.759   3.213   1.892 -0.5484  0.1127 -0.3300
 7934TIP3    H145217   0.728   3.283   1.949  0.1241 -0.2395  0.4921
 7934TIP3    H245218   0.812   3.258   1.826 -1.9593  0.6084 -1.1694
 7935TIP3   OH245219   4.420   1.517  16.136 -0.4052  0.2416 -0.5133
 7935TIP3    H145220   4.432   1.565  16.053 -1.0183 -0.9614 -1.3225
 7935TIP3    H245221   4.331   1.538  16.163  0.6665  2.8907  1.3840
 7936TIP3   OH245222   2.312   4.220   4.087 -0.2869 -0.3098  0.2778
 7936TIP3    H145223   2.254   4.172   4.146 -0.1128  0.7707  1.3722
 7936TIP3    H245224   2.254   4.268   4.029 -0.4648 -0.9482 -0.0796
 7937TIP3   OH245225   1.286   2.504  12.786  0.0199  0.3859  0.3261
 7937TIP3    H145226   1.373   2.479  12.815 -0.3602  0.2827  1.4164
 7937TIP3    H245227   1.283   2.599  12.798 -1.3622  0.0279  4.3235
 7938TIP3   OH245228   3.991   2.994   0.564  0.4287 -0.4827  0.4880
 7938TIP3    H145229   3.965   2.936   0.492  1.9164 -0.6123  0.0186
 7938TIP3    H245230   3.961   2.950   0.643 -1.1677 -0.3722 -0.0356
 7939TIP3   OH245231   1.478   4.522   4.061  0.2742  0.0908  0.8549
 7939TIP3    H145232   1.427   4.466   4.120  0.4747 -0.7874  0.2124
 7939TIP3    H245233   1.413   4.565   4.006  0.1958 -1.1712 -0.0912
 7940TIP3   OH245234   0.946   5.734  11.780  0.2271 -0.2381  0.0816
 7940TIP3    H145235   0.920   5.694  11.863  0.0870  1.8013  1.0852
 7940TIP3    H245236   1.033   5.698  11.763  0.3583 -0.5342  1.2334
 7941TIP3   OH245237   0.287   2.682  12.533  0.4752 -0.0860  0.1165
 7941TIP3    H145238   0.357   2.644  12.481 -0.0048 -0.4036 -0.3169
 7941TIP3    H245239   0.218   2.701  12.469  0.1047  0.0654  0.5564
 7942TIP3   OH245240   2.469   0.400   1.525  0.5879  0.4002  0.1891
 7942TIP3    H145241   2.481   0.494   1.522  1.6486  0.2452 -2.3317
 7942TIP3    H245242   2.541   0.364   1.474 -1.0229 -1.6279 -0.8214
 7943TIP3   OH245243   4.979   2.743  15.506 -0.2509 -0.2186 -0.5405
 7943TIP3    H145244   4.973   2.837  15.493  1.5323  0.0537  0.2906
 7943TIP3    H245245   4.903   2.707  15.459 -2.3021  1.7596  1.0829
 7944TIP3   OH245246   6.653   5.790   5.705 -0.9505  0.5986 -0.3760
 7944TIP3    H145247   6.596   5.842   5.761 -1.6392 -1.4565  0.9014
 7944TIP3    H245248   6.714   5.855   5.667 -1.9306  2.3543  0.8974
 7945TIP3   OH245249   0.170   1.600  14.590 -0.2100  1.1694 -0.0635
 7945TIP3    H145250   0.085   1.562  14.567  0.6183 -0.7562 -0.1353
 7945TIP3    H245251   0.170   1.686  14.549 -1.6710  0.7486 -1.0207
 7946TIP3   OH245252   6.588   6.301   1.671 -0.0695  0.2720 -0.2049
 7946TIP3    H145253   6.556   6.227   1.722 -0.4045  0.0919 -0.6676
 7946TIP3    H245254   6.555   6.378   1.717  2.3607  0.2786  1.7230
 7947TIP3   OH245255   2.788   0.831  15.315 -0.0395  0.0861 -0.1510
 7947TIP3    H145256   2.877   0.810  15.287 -0.3631 -0.1346 -1.0511
 7947TIP3    H245257   2.775   0.777  15.393  0.0826 -1.0924 -0.9081
 7948TIP3   OH245258   2.362   2.526   1.597  0.0633 -0.2408 -0.3995
 7948TIP3    H145259   2.290   2.587   1.614 -1.0404 -0.4929 -3.5169
 7948TIP3    H245260   2.362   2.466   1.671 -2.7043  0.0190 -0.1009
 7949TIP3   OH245261   2.460   0.998   4.175 -0.3209  0.5108  0.6653
 7949TIP3    H145262   2.400   1.070   4.154 -1.4821 -0.7150 -0.3841
 7949TIP3    H245263   2.505   0.979   4.092 -0.0118  0.0369  0.9386
 7950TIP3   OH245264   4.825   0.851  12.696  0.2398 -0.0384  0.3688
 7950TIP3    H145265   4.914   0.824  12.674  0.1950 -0.7765  1.0601
 7950TIP3    H245266   4.834   0.902  12.776  0.1479  0.7204 -0.1010
 7951TIP3   OH245267   2.389   1.591   3.780 -0.6730 -0.5062 -0.4966
 7951TIP3    H145268   2.315   1.543   3.743 -0.2923 -1.6501  0.1935
 7951TIP3    H245269   2.349   1.658   3.835 -1.2072  0.1126 -1.5966
 7952TIP3   OH245270   5.486   0.746   0.445 -0.6163 -0.2551 -0.0849
 7952TIP3    H145271   5.396   0.724   0.419 -0.9159  0.6812  0.0981
 7952TIP3    H245272   5.496   0.838   0.419  0.0490 -0.1427  0.5448
 7953TIP3   OH245273   3.751   1.427  15.927  0.9060  0.0453 -0.1953
 7953TIP3    H145274   3.708   1.426  16.012 -0.0313  0.1526 -0.6588
 7953TIP3    H245275   3.792   1.341  15.920  1.5951  0.2801  0.6495
 7954TIP3   OH245276   3.150   2.953   3.831  0.4824  0.0928 -0.4968
 7954TIP3    H145277   3.210   2.897   3.880  0.8546  0.3471 -0.6663
 7954TIP3    H245278   3.074   2.896   3.813  0.7064 -0.2516 -0.3638
 7955TIP3   OH245279   0.979   6.507   0.243  0.5984  0.1861 -0.3950
 7955TIP3    H145280   1.037   6.457   0.301 -0.7082 -0.5065  0.3633
 7955TIP3    H245281   0.996   6.598   0.265 -0.6264 -0.0543  1.9375
 7956TIP3   OH245282   6.075   5.113   2.372  0.3179 -0.0950 -0.4224
 7956TIP3    H145283   6.116   5.030   2.349 -1.2120 -1.5301  1.7006
 7956TIP3    H245284   5.986   5.090   2.399  0.3991  1.9602  1.9902
 7957TIP3   OH245285   5.368   5.968  10.738 -0.6286  0.1844 -0.0949
 7957TIP3    H145286   5.381   6.045  10.793  0.2900 -1.7318  2.5777
 7957TIP3    H245287   5.429   5.981  10.665  1.7522  0.7073  1.8352
 7958TIP3   OH245288   3.736   3.309   3.912  0.6652 -0.1128 -0.4090
 7958TIP3    H145289   3.721   3.219   3.940  2.0739 -0.3493 -0.3015
 7958TIP3    H245290   3.650   3.350   3.911  0.1946 -1.0150  1.0807
 7959TIP3   OH245291   6.084   4.875  14.697 -0.6893 -0.0697  0.2889
 7959TIP3    H145292   6.062   4.862  14.790 -0.4300 -0.2082  0.3329
 7959TIP3    H245293   6.149   4.946  14.698 -1.4566  0.6560  0.1236
 7960TIP3   OH245294   5.721   1.109  15.731 -0.3494  0.2698 -0.3038
 7960TIP3    H145295   5.704   1.200  15.757 -0.3236  0.1331  0.1992
 7960TIP3    H245296   5.660   1.093  15.659 -1.0503  0.3810  0.2453
 7961TIP3   OH245297   2.173   3.085  14.856 -0.1509  0.1679  0.6538
 7961TIP3    H145298   2.106   3.124  14.800 -0.7953 -1.8437 -0.0502
 7961TIP3    H245299   2.232   3.158  14.876 -0.3810  1.1644 -1.9028
 7962TIP3   OH245300   1.738   3.997   1.105  0.0309 -0.5420  0.5786
 7962TIP3    H145301   1.692   3.995   1.020 -2.0329  2.9343  1.4188
 7962TIP3    H245302   1.674   3.960   1.167  0.7124 -1.1060  0.9573
 7963TIP3   OH245303   0.058   2.912  12.897 -0.1660  0.1655 -0.0070
 7963TIP3    H145304   0.052   2.824  12.860 -3.1451  0.0669  0.4440
 7963TIP3    H245305   0.047   2.970  12.822 -0.3405  0.0889 -0.0419
 7964TIP3   OH245306   6.287   4.391   5.729  0.2961  0.0502 -0.0886
 7964TIP3    H145307   6.198   4.355   5.735  0.8411 -1.6938 -1.6583
 7964TIP3    H245308   6.293   4.425   5.640  1.1509  0.3363  0.0707
 7965TIP3   OH245309   5.567   1.673   0.004  0.3418 -0.2627 -0.1416
 7965TIP3    H145310   5.571   1.583   0.039  1.7411  0.1396  0.8205
 7965TIP3    H245311   5.589   1.728   0.079 -2.3598  1.0535 -0.2311
 7966TIP3   OH245312   4.478   3.204   6.569  0.5658 -0.0674 -0.2914
 7966TIP3    H145313   4.419   3.134   6.539  0.1907 -0.0269  0.3248
 7966TIP3    H245314   4.535   3.161   6.633  2.8583 -0.6957 -2.5800
 7967TIP3   OH245315   4.113   6.015   2.384 -0.2622 -0.2301  0.2657
 7967TIP3    H145316   4.081   5.927   2.406 -0.4494 -0.2206  0.0292
 7967TIP3    H245317   4.115   6.061   2.468 -0.5225 -0.3431  0.3364
 7968TIP3   OH245318   1.755   6.217   5.402  0.2872 -0.5717  0.2831
 7968TIP3    H145319   1.767   6.195   5.310  1.3924 -2.3859  0.8149
 7968TIP3    H245320   1.808   6.153   5.449  0.0759  0.5763  2.1760
 7969TIP3   OH245321   3.035   4.538   3.448 -0.5789  0.2310  0.2650
 7969TIP3    H145322   3.046   4.471   3.380 -1.1563  0.7085 -0.3081
 7969TIP3    H245323   2.945   4.567   3.439  0.3811  3.1286 -1.4537
 7970TIP3   OH245324   4.652   6.712  16.997  0.3563 -0.2358  0.0823
 7970TIP3    H145325   4.690   6.708  17.085  0.0403  1.5346  0.3357
 7970TIP3    H245326   4.621   6.622  16.980  0.3015 -0.5785  1.8273
 7971TIP3   OH245327   6.559   2.832   4.694 -0.0803 -0.2941 -0.9693
 7971TIP3    H145328   6.641   2.800   4.732 -1.1412 -2.0129  0.0175
 7971TIP3    H245329   6.527   2.897   4.757 -0.5261 -1.2263 -0.1956
 7972TIP3   OH245330   4.266   0.572   0.258  0.4624  0.1038 -0.5293
 7972TIP3    H145331   4.296   0.549   0.170  0.1269 -0.9976 -0.3726
 7972TIP3    H245332   4.345   0.567   0.312  0.7767  1.3175 -0.8454
 7973TIP3   OH245333   4.783   6.522   1.850 -0.1842 -0.4010  0.6209
 7973TIP3    H145334   4.866   6.562   1.876 -0.3065  0.5530 -0.4097
 7973TIP3    H245335   4.722   6.595   1.842 -0.8573 -0.9802  0.3820
 7974TIP3   OH245336   6.565   4.415  11.267  0.3129  0.6094  0.2757
 7974TIP3    H145337   6.581   4.439  11.176  1.1961  1.1472  0.5654
 7974TIP3    H245338   6.568   4.498  11.315 -1.4039  0.4946  0.6422
 7975TIP3   OH245339   0.019   2.364  14.028  0.2251  0.2558 -0.3147
 7975TIP3    H145340   0.007   2.291  14.088  1.0369  0.2058 -0.2019
 7975TIP3    H245341   0.104   2.349  13.988  0.9287  1.6869  0.5195
 7976TIP3   OH245342   1.662   2.377   0.554  0.0638  0.2945  0.0429
 7976TIP3    H145343   1.711   2.323   0.617 -0.8223 -1.4595 -0.7149
 7976TIP3    H245344   1.719   2.382   0.477  0.7349  1.6455  0.5902
 7977TIP3   OH245345   6.309   1.471  10.427  0.3050 -0.4490 -0.2163
 7977TIP3    H145346   6.296   1.378  10.407  1.4258 -0.6966  0.1462
 7977TIP3    H245347   6.401   1.477  10.453 -0.3423  0.3271  2.0984
 7978TIP3   OH245348   5.401   0.702  11.221 -0.4110 -0.6419  0.4861
 7978TIP3    H145349   5.468   0.664  11.278  1.4399  2.9956  1.0623
 7978TIP3    H245350   5.330   0.727  11.281 -0.0385 -0.0438  0.6913
 7979TIP3   OH245351   0.064   6.660  14.956  0.3452 -0.4533  0.1722
 7979TIP3    H145352   0.066   6.567  14.979  0.6851 -0.3513  0.5682
 7979TIP3    H245353  -0.017   6.692  14.994 -0.1362 -0.7385 -0.5835
 7980TIP3   OH245354   5.332   2.666  13.457  0.5919 -0.4976  0.9086
 7980TIP3    H145355   5.328   2.745  13.402 -0.2380 -0.6706  0.7039
 7980TIP3    H245356   5.421   2.632  13.443  0.5324 -0.3152 -0.0218
 7981TIP3   OH245357   0.160   4.146   3.313  0.1266  0.3635 -0.4438
 7981TIP3    H145358   0.084   4.187   3.271  0.1261  0.1016 -0.7015
 7981TIP3    H245359   0.236   4.185   3.271  0.1405  0.7484 -0.0700
 7982TIP3   OH245360   0.868   6.050   4.069  0.5428  0.6521  0.0823
 7982TIP3    H145361   0.831   6.022   3.985  0.2978  2.2470 -0.3713
 7982TIP3    H245362   0.800   6.104   4.109 -0.1766 -1.6915  2.2940
 7983TIP3   OH245363   1.242   2.960  11.076  0.3695 -0.1964  0.3143
 7983TIP3    H145364   1.306   3.030  11.066  0.5854 -0.4091  0.2025
 7983TIP3    H245365   1.268   2.894  11.012 -1.0930  0.5527 -1.1131
 7984TIP3   OH245366   3.119   1.221   3.256 -0.1702 -0.3199 -0.0570
 7984TIP3    H145367   3.035   1.247   3.217 -0.1521 -1.6946 -1.0697
 7984TIP3    H245368   3.136   1.288   3.322 -1.3244  0.8257 -0.8666
 7985TIP3   OH245369   4.631   0.970   1.595  0.2918  0.5455  0.1969
 7985TIP3    H145370   4.552   0.954   1.647  0.9236  0.5509  1.1897
 7985TIP3    H245371   4.666   1.052   1.629  3.8841 -2.1149  3.9785
 7986TIP3   OH245372   6.801   5.524  12.305  0.1079  0.1187 -0.5874
 7986TIP3    H145373   6.775   5.492  12.391 -0.0238 -1.8026 -1.2953
 7986TIP3    H245374   6.874   5.583  12.322 -2.0240  2.5272  1.1083
 7987TIP3   OH245375   1.535   5.195  15.507 -1.0644  0.1254 -0.2754
 7987TIP3    H145376   1.501   5.227  15.423 -1.9675 -1.3540 -0.5061
 7987TIP3    H245377   1.461   5.202  15.567 -1.0140 -0.6361 -0.1121
 7988TIP3   OH245378   2.202   6.071  12.894 -0.3583  0.3285  0.5607
 7988TIP3    H145379   2.174   6.021  12.971 -0.6444 -1.4479 -0.6429
 7988TIP3    H245380   2.214   6.005  12.826  0.5285  1.7870 -0.7522
 7989TIP3   OH245381   2.234   6.001   6.426 -0.3701 -0.1453 -0.1041
 7989TIP3    H145382   2.183   6.006   6.345 -1.1031 -1.6074  0.2232
 7989TIP3    H245383   2.231   6.089   6.462 -2.8130 -0.1847 -0.0473
 7990TIP3   OH245384   3.099   5.558  15.021 -0.1497  0.1973 -0.5992
 7990TIP3    H145385   3.066   5.644  15.045  0.0886 -0.3147  1.7602
 7990TIP3    H245386   3.058   5.498  15.084  2.7361 -0.8599  0.4251
 7991TIP3   OH245387   3.087   0.715   4.809 -0.0293  0.1044  0.7499
 7991TIP3    H145388   3.057   0.700   4.719 -0.4453  0.6234  0.7966
 7991TIP3    H245389   3.171   0.760   4.798  0.6466 -1.1522  0.6217
 7992TIP3   OH245390   3.183   6.441  12.338 -0.1402 -0.3561  0.2666
 7992TIP3    H145391   3.112   6.493  12.301 -1.2754  0.4618  3.3143
 7992TIP3    H245392   3.140   6.360  12.368  0.8423 -1.2499 -0.6256
 7993TIP3   OH245393   3.036   5.706   0.827 -0.1129 -0.4148  0.3116
 7993TIP3    H145394   3.068   5.718   0.917 -1.9802 -1.3516  1.1610
 7993TIP3    H245395   3.033   5.611   0.815 -0.7241 -0.3130 -0.4081
 7994TIP3   OH245396   5.885   6.757  15.323  0.1251 -0.1071  0.0075
 7994TIP3    H145397   5.873   6.755  15.418 -0.2413 -1.2849 -0.0398
 7994TIP3    H245398   5.957   6.696  15.307 -0.0174 -0.1450 -0.4983
 7995TIP3   OH245399   3.940   4.476   1.788 -0.0324  0.2916  0.2415
 7995TIP3    H145400   3.926   4.486   1.694 -1.3568 -0.0076  0.3907
 7995TIP3    H245401   3.853   4.485   1.826  0.7044  2.1832  1.6236
 7996TIP3   OH245402   3.344   6.498   2.474  0.2091  0.2993  0.0420
 7996TIP3    H145403   3.282   6.441   2.430 -0.3339  0.7378  0.2230
 7996TIP3    H245404   3.290   6.560   2.523  0.7519  1.4313 -0.7274
 7997TIP3   OH245405   1.308   3.565  11.098  0.4385 -0.4610  0.5649
 7997TIP3    H145406   1.231   3.614  11.128  0.8496 -1.2293  3.1523
 7997TIP3    H245407   1.271   3.487  11.057 -0.1691 -0.0364  0.2839
 7998TIP3   OH245408   5.507   6.772   5.091  0.3116 -0.1075  0.1914
 7998TIP3    H145409   5.568   6.829   5.044 -0.3604  1.6004  1.2935
 7998TIP3    H245410   5.423   6.783   5.046 -0.3376  1.5460  1.6971
 7999TIP3   OH245411   4.044   0.869  16.409 -0.6243 -0.3918 -0.1404
 7999TIP3    H145412   3.965   0.836  16.453  0.1089 -0.6424  1.0121
 7999TIP3    H245413   4.015   0.886  16.319 -1.7988 -1.2209  0.0515
 8000TIP3   OH245414   5.827   2.793  16.815 -0.7405 -0.8500  0.2693
 8000TIP3    H145415   5.773   2.734  16.763 -1.0302 -0.3618  0.0134
 8000TIP3    H245416   5.852   2.863  16.755 -0.2068 -0.8264  0.5068
 8001TIP3   OH245417   4.226   1.666  16.513  0.2460 -0.0784 -0.6505
 8001TIP3    H145418   4.163   1.723  16.557  0.0820 -0.5839 -0.2245
 8001TIP3    H245419   4.246   1.711  16.431 -1.6889 -0.5503 -1.4361
 8002TIP3   OH245420   5.481   4.896   0.314 -0.4176  0.3343  0.3269
 8002TIP3    H145421   5.488   4.832   0.384 -0.1711  0.5791  0.5320
 8002TIP3    H245422   5.535   4.861   0.243  0.2608  0.6260  0.6841
 8003TIP3   OH245423   0.911   4.571   4.943  0.1857  0.9790 -0.2270
 8003TIP3    H145424   0.916   4.659   4.907  1.3841  0.4106 -1.5553
 8003TIP3    H245425   0.854   4.579   5.020 -0.7919  2.6388 -1.0819
 8004TIP3   OH245426   3.400   2.302   3.160  0.3825  0.0258 -0.6569
 8004TIP3    H145427   3.313   2.268   3.184  0.5550 -2.1623 -2.7259
 8004TIP3    H245428   3.461   2.246   3.206  0.8524  2.4557  1.9526
 8005TIP3   OH245429   1.328   5.976   1.074  0.1850 -0.1739 -0.2751
 8005TIP3    H145430   1.267   6.046   1.098  0.5849  0.4898 -1.1297
 8005TIP3    H245431   1.277   5.918   1.018  0.3329  0.4006 -1.0200
 8006TIP3   OH245432   1.535   1.353  15.278 -0.1683 -0.1072 -0.0531
 8006TIP3    H145433   1.537   1.258  15.292 -1.7476  0.0038  1.0579
 8006TIP3    H245434   1.454   1.368  15.230  0.6499  0.5921 -1.2911
 8007TIP3   OH245435   1.151   4.203  11.375  0.2739 -0.2609 -0.4790
 8007TIP3    H145436   1.098   4.130  11.344  0.5807  0.1097 -1.9332
 8007TIP3    H245437   1.191   4.240  11.296 -1.8044  3.0579 -0.1927
 8008TIP3   OH245438   3.793   4.423   5.502  0.3709 -0.3550 -0.3794
 8008TIP3    H145439   3.781   4.401   5.594  0.3186  1.8611  0.2002
 8008TIP3    H245440   3.780   4.340   5.456  1.3409 -1.7187  1.6422
 8009TIP3   OH245441   6.056   0.211   0.528 -0.4919  0.3402 -0.0614
 8009TIP3    H145442   6.133   0.163   0.557  0.7114  2.8642  1.2075
 8009TIP3    H245443   6.047   0.188   0.435  1.1301 -0.8093  0.0200
 8010TIP3   OH245444   4.719   0.133  14.011  0.0804  0.2805  0.1499
 8010TIP3    H145445   4.682   0.169  14.092 -1.5021  1.1357 -0.9091
 8010TIP3    H245446   4.804   0.176  14.002 -0.9256  2.3443 -0.0608
 8011TIP3   OH245447   0.597   0.792  16.613 -0.2547  0.2869  0.2462
 8011TIP3    H145448   0.507   0.764  16.632 -0.5937  0.9388 -0.3679
 8011TIP3    H245449   0.635   0.812  16.699  0.0411 -2.0913  0.7462
 8012TIP3   OH245450   6.228   3.039  11.560 -0.4384 -0.0446 -0.2949
 8012TIP3    H145451   6.170   3.106  11.522  1.2007  2.9735  2.0633
 8012TIP3    H245452   6.192   3.024  11.647  0.1509 -1.0498 -0.2194
 8013TIP3   OH245453   0.451   1.175   4.967 -0.1392 -0.1111 -0.0869
 8013TIP3    H145454   0.503   1.097   4.951 -1.4897 -1.0762  0.0523
 8013TIP3    H245455   0.515   1.245   4.978  1.0767 -1.0160 -1.1108
 8014TIP3   OH245456   3.450   5.451   0.470  0.3974 -0.5186 -0.1091
 8014TIP3    H145457   3.393   5.525   0.448  1.2258 -0.3899 -2.0973
 8014TIP3    H245458   3.538   5.489   0.467  0.9282 -1.7314 -2.2703
 8015TIP3   OH245459   6.518   2.475   4.096  0.0845 -0.2151 -0.0558
 8015TIP3    H145460   6.605   2.437   4.096  0.9889  1.5725  2.6626
 8015TIP3    H245461   6.532   2.567   4.075 -0.9631  0.3291  1.4599
 8016TIP3   OH245462   3.135   2.697   3.660  0.5857  0.2201  0.0920
 8016TIP3    H145463   3.119   2.659   3.574 -0.4879  2.8725 -0.9875
 8016TIP3    H245464   3.053   2.684   3.707  1.2951 -1.5671  0.9333
 8017TIP3   OH245465   5.719   2.774   3.406  0.4005  0.0174  0.1259
 8017TIP3    H145466   5.684   2.810   3.487  0.3725  2.0589 -0.7246
 8017TIP3    H245467   5.717   2.848   3.344  1.6654 -1.1095 -1.3448
 8018TIP3   OH245468   2.043   3.225  17.073 -0.7626 -0.2289  0.0812
 8018TIP3    H145469   1.981   3.261  17.136 -0.5794  0.7196 -0.2714
 8018TIP3    H245470   2.085   3.152  17.120 -0.7813  0.3246  0.9771
 8019TIP3   OH245471   2.999   5.226   2.030  0.5404  0.5429  0.0177
 8019TIP3    H145472   2.959   5.140   2.042 -0.1924  0.1038 -4.0250
 8019TIP3    H245473   2.937   5.287   2.070  0.5834 -0.6592  2.0582
 8020TIP3   OH245474   3.924   1.960   0.429 -0.2544 -0.2550  0.3477
 8020TIP3    H145475   3.879   1.898   0.486 -3.4708  1.5376 -0.0061
 8020TIP3    H245476   3.910   2.045   0.470 -0.6329  0.8197 -1.8492
 8021TIP3   OH245477   2.183   5.432   1.379 -0.4341  0.0675 -0.0214
 8021TIP3    H145478   2.256   5.392   1.334  0.0667  1.8565 -0.8889
 8021TIP3    H245479   2.165   5.373   1.453  1.6035 -0.6078 -0.0029
 8022TIP3   OH245480   5.460   3.227  13.350 -0.8999  0.3466 -0.3874
 8022TIP3    H145481   5.432   3.211  13.440 -0.9240  2.7513  0.0869
 8022TIP3    H245482   5.550   3.194  13.347 -1.1627 -0.4624  0.2682
 8023TIP3   OH245483   3.985   0.281  10.548 -0.1309  0.0788  0.1994
 8023TIP3    H145484   4.055   0.230  10.507  0.1688  0.9861 -0.4277
 8023TIP3    H245485   3.958   0.227  10.623  1.8356  0.0986  0.9890
 8024TIP3   OH245486   4.380   6.730  14.522  0.2397  0.5441  0.3009
 8024TIP3    H145487   4.355   6.665  14.587  1.3211 -2.6214 -2.1486
 8024TIP3    H245488   4.372   6.814  14.567 -1.3763 -1.2147  3.6728
 8025TIP3   OH245489   1.648   3.257  12.693 -0.3686 -0.5366 -0.0476
 8025TIP3    H145490   1.682   3.207  12.618  0.7670 -0.9447  0.7033
 8025TIP3    H245491   1.663   3.348  12.669 -0.0270 -0.6627 -0.3261
 8026TIP3   OH245492   2.125   4.383   2.843  0.0651 -0.0556 -0.1994
 8026TIP3    H145493   2.110   4.464   2.893 -0.3592 -0.6947  0.7592
 8026TIP3    H245494   2.074   4.394   2.763  0.4211  0.8346 -0.3076
 8027TIP3   OH245495   3.909   4.491  15.029 -0.2571  0.1674  0.3945
 8027TIP3    H145496   3.886   4.503  15.122 -1.2027 -0.5879  0.2754
 8027TIP3    H245497   3.828   4.459  14.989 -0.0765  1.2249 -0.8561
 8028TIP3   OH245498   0.138   5.365  15.121  0.8999 -0.1666 -0.0710
 8028TIP3    H145499   0.117   5.272  15.121 -0.9241  0.1566  2.2923
 8028TIP3    H245500   0.062   5.407  15.080  1.3467  0.3577 -0.3817
 8029TIP3   OH245501   4.976   0.741   4.439  0.3531 -0.2462 -0.3312
 8029TIP3    H145502   4.969   0.667   4.500  0.6858 -0.2775 -0.3331
 8029TIP3    H245503   4.885   0.760   4.415  0.1778  0.0789  0.5409
 8030TIP3   OH245504   5.376   3.516  13.281 -0.2233 -0.3649  0.4560
 8030TIP3    H145505   5.459   3.563  13.271 -0.2672 -0.5755 -1.2255
 8030TIP3    H245506   5.402   3.429  13.312 -0.0176  0.2119  2.0098
 8031TIP3   OH245507   1.212   1.528   3.700 -0.2101 -0.2526  0.0851
 8031TIP3    H145508   1.192   1.607   3.750 -0.2024  0.7248 -1.4104
 8031TIP3    H245509   1.128   1.486   3.687 -0.4336  0.3626 -0.4910
 8032TIP3   OH245510   0.491   2.104   4.918  0.0327  0.8606 -0.5045
 8032TIP3    H145511   0.408   2.093   4.872  0.1135  0.5840 -0.5910
 8032TIP3    H245512   0.523   2.190   4.892 -0.3482  1.0686 -0.2759
 8033TIP3   OH245513   3.130   6.567   3.719 -0.5522 -0.1331 -0.0694
 8033TIP3    H145514   3.059   6.535   3.663  0.4823 -1.1646 -0.8396
 8033TIP3    H245515   3.190   6.493   3.725 -1.4218 -0.7426  3.8840
 8034TIP3   OH245516   3.347   5.461   2.733 -0.1945 -0.0325  0.5724
 8034TIP3    H145517   3.258   5.428   2.720 -0.6890  0.5053  2.2653
 8034TIP3    H245518   3.401   5.408   2.675 -1.4908 -1.0272  0.2193
 8035TIP3   OH245519   1.760   4.164   2.843  0.3136  0.8323  0.5823
 8035TIP3    H145520   1.691   4.101   2.861  0.6891 -0.2491 -1.4398
 8035TIP3    H245521   1.786   4.198   2.929 -0.8194 -0.7720  1.5973
 8036TIP3   OH245522   0.114   0.392   3.982 -0.6164 -0.0815 -0.7777
 8036TIP3    H145523   0.128   0.343   4.063  5.0323  0.7535 -0.8744
 8036TIP3    H245524   0.115   0.325   3.913 -0.1411 -0.4038 -0.4661
 8037TIP3   OH245525   5.662   2.932   5.400 -0.1680  0.4030 -0.1042
 8037TIP3    H145526   5.574   2.898   5.414  0.6456 -1.2641  1.3983
 8037TIP3    H245527   5.720   2.862   5.430  1.6807  1.5486 -0.8097
 8038TIP3   OH245528   5.054   0.601   5.230 -0.2124 -0.2002  0.1705
 8038TIP3    H145529   4.995   0.528   5.247  0.0323 -0.4551 -0.0762
 8038TIP3    H245530   5.017   0.643   5.152  0.3165 -0.7654 -0.3874
 8039TIP3   OH245531   6.393   0.596  15.665  0.2526  0.5091  0.2268
 8039TIP3    H145532   6.415   0.619  15.575  1.3002 -1.1571  0.0267
 8039TIP3    H245533   6.470   0.552  15.699 -1.0440 -1.2688  1.0643
 8040TIP3   OH245534   0.843   5.595   0.234  0.0232  0.0357 -0.3927
 8040TIP3    H145535   0.819   5.620   0.144  1.4791 -0.7896 -1.0535
 8040TIP3    H245536   0.907   5.524   0.222 -0.0498 -0.3389  1.3140
 8041TIP3   OH245537   3.808   5.135   0.529 -0.5007 -0.2368 -0.4165
 8041TIP3    H145538   3.847   5.221   0.520  0.4503 -0.7048 -0.9146
 8041TIP3    H245539   3.839   5.102   0.613  1.1075 -1.0331 -1.2669
 8042TIP3   OH245540   0.318   0.398   1.511 -0.4429 -0.0477  0.5923
 8042TIP3    H145541   0.340   0.330   1.575 -1.3924 -0.3487  0.6224
 8042TIP3    H245542   0.250   0.450   1.554  1.0881  1.6828  1.0456
 8043TIP3   OH245543   0.806   5.460   2.960 -0.9192  0.1523  0.1182
 8043TIP3    H145544   0.848   5.509   2.890 -0.6351 -0.2745 -0.0117
 8043TIP3    H245545   0.714   5.487   2.957 -0.8704  0.2729 -0.2941
 8044TIP3   OH245546   2.611   2.930   3.148 -0.4003  0.0561  0.0563
 8044TIP3    H145547   2.669   3.004   3.165 -0.8080  1.0731 -2.5124
 8044TIP3    H245548   2.615   2.877   3.228  1.1314  2.0120  1.3622
 8045TIP3   OH245549   2.722   3.308  14.923  0.5284 -0.0908 -0.3847
 8045TIP3    H145550   2.766   3.240  14.872  0.3169  0.8765 -1.9145
 8045TIP3    H245551   2.736   3.388  14.873  0.2946  0.9150  1.0939
 8046TIP3   OH245552   2.434   4.333   3.579  0.1257  0.1296 -0.4738
 8046TIP3    H145553   2.439   4.422   3.613 -1.8939 -0.1568  0.7869
 8046TIP3    H245554   2.435   4.277   3.657 -0.1645 -0.8439 -1.1469
 8047TIP3   OH245555   4.124   1.638   1.567 -0.0508  0.2779  0.0951
 8047TIP3    H145556   4.091   1.726   1.583 -1.8621  0.1726 -2.4843
 8047TIP3    H245557   4.118   1.595   1.653 -1.4901  1.9385  0.8910
 8048TIP3   OH245558   4.955   4.664  13.726 -0.0327 -0.1220 -0.1419
 8048TIP3    H145559   4.998   4.690  13.644  0.5992 -1.5525 -0.3045
 8048TIP3    H245560   4.862   4.681  13.711 -0.0419 -1.1691 -1.5102
 8049TIP3   OH245561   4.036   6.545  13.606 -0.1735 -0.8946 -0.2114
 8049TIP3    H145562   4.078   6.615  13.657  2.7175 -0.6146 -2.6558
 8049TIP3    H245563   3.942   6.556  13.622  0.3017  2.2129  1.1395
 8050TIP3   OH245564   2.409   0.643  13.316  0.3328  0.2464 -0.4669
 8050TIP3    H145565   2.448   0.725  13.285  2.6219 -1.3231 -2.1109
 8050TIP3    H245566   2.369   0.605  13.238  1.9675 -1.5417 -0.5254
 8051TIP3   OH245567   0.448   6.077  16.293 -0.5649  0.1738  0.2307
 8051TIP3    H145568   0.360   6.099  16.324 -0.2352  0.7449  0.7718
 8051TIP3    H245569   0.507   6.122  16.353  0.1276 -1.3196  0.7169
 8052TIP3   OH245570   5.796   3.291   4.149  0.1520 -0.2503  0.1120
 8052TIP3    H145571   5.739   3.352   4.196  0.6317  0.3902 -0.1241
 8052TIP3    H245572   5.879   3.338   4.140 -0.1746 -0.0142 -2.1020
 8053TIP3   OH245573   0.258   5.840  17.040 -0.3938 -0.0117 -0.2955
 8053TIP3    H145574   0.312   5.778  16.991  0.6705  1.3808 -0.9209
 8053TIP3    H245575   0.278   5.821  17.132 -1.3411 -1.6768 -0.3816
 8054TIP3   OH245576   1.916   3.174  11.827  0.5820  0.0766 -0.5249
 8054TIP3    H145577   1.852   3.197  11.761 -0.7623  1.1707  1.0872
 8054TIP3    H245578   1.874   3.105  11.879  0.2437  1.4771  1.1458
 8055TIP3   OH245579   6.119   5.202  16.810  0.0259  0.2021  0.2151
 8055TIP3    H145580   6.159   5.219  16.725 -0.7000 -0.0978 -0.1973
 8055TIP3    H245581   6.079   5.286  16.836 -0.6105  0.0387 -0.2147
 8056TIP3   OH245582   4.392   5.461   3.863  0.0552  0.4181 -0.5454
 8056TIP3    H145583   4.434   5.472   3.948  0.3784 -0.7695 -0.5325
 8056TIP3    H245584   4.322   5.397   3.879  0.9695 -0.8487 -1.4283
 8057TIP3   OH245585   0.068   0.434  13.045  0.5719  0.2698  0.1276
 8057TIP3    H145586   0.062   0.463  13.136  0.0159  3.3131 -0.7576
 8057TIP3    H245587  -0.021   0.407  13.022  0.7153 -0.5125  0.4738
 8058TIP3   OH245588   3.012   4.786  14.349  0.3006  0.0846 -0.2404
 8058TIP3    H145589   2.924   4.774  14.313 -0.1926 -1.0440  1.2405
 8058TIP3    H245590   3.020   4.880  14.364 -1.5143  0.0016  1.6293
 8059TIP3   OH245591   4.671   3.019  11.615 -0.5411  0.3045  0.3360
 8059TIP3    H145592   4.585   3.029  11.575 -1.2124  1.1580  1.9017
 8059TIP3    H245593   4.683   2.924  11.623 -0.9921  0.1663 -0.5784
 8060TIP3   OH245594   6.237   3.750   1.695  0.1174 -0.1010 -0.0419
 8060TIP3    H145595   6.257   3.839   1.723 -1.9433  0.3766  0.0548
 8060TIP3    H245596   6.258   3.696   1.771 -0.9841  0.6286  0.8135
 8061TIP3   OH245597   1.233   4.437   4.647 -0.5273 -0.1983  0.2743
 8061TIP3    H145598   1.311   4.382   4.637  0.1826  0.7881  0.3046
 8061TIP3    H245599   1.224   4.448   4.742 -0.4917 -0.0069  0.2545
 8062TIP3   OH245600   2.757   5.780   0.823 -0.1202  0.3269 -0.2707
 8062TIP3    H145601   2.801   5.804   0.742  2.2820  0.7996  1.0551
 8062TIP3    H245602   2.827   5.745   0.878 -1.6956 -0.1630  1.5282
 8063TIP3   OH245603   4.656   5.113   5.453  0.5260  0.0216  0.0790
 8063TIP3    H145604   4.658   5.024   5.490  1.2398 -0.3012 -0.7180
 8063TIP3    H245605   4.702   5.167   5.517  0.0337 -0.1606  0.5993
 8064TIP3   OH245606   4.697   6.760   0.786 -0.1339  0.2258 -0.4960
 8064TIP3    H145607   4.686   6.665   0.786 -1.1271  0.3043 -1.8745
 8064TIP3    H245608   4.750   6.778   0.863  0.7272 -1.5160 -0.6281
 8065TIP3   OH245609   2.856   2.519   4.010 -0.0158  0.3748  0.2165
 8065TIP3    H145610   2.909   2.588   3.970  1.3112 -1.1266 -0.7329
 8065TIP3    H245611   2.791   2.566   4.063  0.3120  2.3581 -1.0348
 8066TIP3   OH245612   2.224   5.143   5.874 -0.7242 -0.2108 -0.3873
 8066TIP3    H145613   2.240   5.108   5.962 -0.6980  1.0767  0.1398
 8066TIP3    H245614   2.264   5.079   5.815 -0.5521 -0.9839  0.5430
 8067TIP3   OH245615   1.856   1.558  11.680  0.5695 -0.4219  0.1733
 8067TIP3    H145616   1.895   1.480  11.720 -1.6690 -2.2219 -0.9065
 8067TIP3    H245617   1.916   1.579  11.608  0.2476 -2.4518 -0.7826
 8068TIP3   OH245618   4.245   1.083  13.151  0.4042  0.6059 -0.1458
 8068TIP3    H145619   4.219   1.154  13.092 -3.0952  0.3209  0.8212
 8068TIP3    H245620   4.221   1.114  13.238  0.8029 -0.9133  0.5414
 8069TIP3   OH245621   1.107   4.395   0.692 -0.1302  0.0281  0.0877
 8069TIP3    H145622   1.137   4.460   0.756 -0.1552  0.4239 -0.3012
 8069TIP3    H245623   1.182   4.380   0.635 -0.3775  0.3244 -0.3196
 8070TIP3   OH245624   3.781   2.282  13.137 -0.5487 -0.8313 -0.0751
 8070TIP3    H145625   3.769   2.316  13.226 -0.4014  1.0695 -0.7459
 8070TIP3    H245626   3.717   2.210  13.131 -1.0303 -0.5673  1.3412
 8071TIP3   OH245627   3.004   3.997  12.130  0.0885  0.1754  0.2377
 8071TIP3    H145628   3.099   3.999  12.131  0.0784  1.8081  0.7946
 8071TIP3    H245629   2.979   4.054  12.057 -0.4831 -1.1302 -0.6280
 8072TIP3   OH245630   4.926   4.069   5.364  0.1369  0.7037  0.1806
 8072TIP3    H145631   4.890   4.028   5.286 -0.3812  2.1114 -0.3519
 8072TIP3    H245632   5.018   4.087   5.341 -0.1029  1.4163 -0.2378
 8073TIP3   OH245633   2.189   6.651  13.663  0.3382  1.0557  0.2749
 8073TIP3    H145634   2.180   6.557  13.648  0.8310  1.3554 -2.2651
 8073TIP3    H245635   2.238   6.657  13.745  1.8559 -0.9410 -0.4099
 8074TIP3   OH245636   5.052   2.418  12.702 -0.1588 -0.0274 -0.3714
 8074TIP3    H145637   4.975   2.392  12.752  0.2430  1.0445  0.8534
 8074TIP3    H245638   5.126   2.376  12.747 -0.1019 -2.3213 -2.4325
 8075TIP3   OH245639   0.205   1.321  11.630  1.2811 -0.1620  0.3555
 8075TIP3    H145640   0.230   1.325  11.722 -0.1584  0.7168  0.7500
 8075TIP3    H245641   0.111   1.301  11.632  0.8020  1.7160 -0.8352
 8076TIP3   OH245642   1.392   0.855  13.864  0.3577  0.2731  0.5145
 8076TIP3    H145643   1.406   0.874  13.771 -2.5102  3.7045  0.5709
 8076TIP3    H245644   1.342   0.773  13.864  0.4089  0.2210 -0.9560
 8077TIP3   OH245645   1.436   1.056   4.781  0.0903  0.4237 -0.2520
 8077TIP3    H145646   1.405   1.110   4.709  0.1430  0.6601 -0.0992
 8077TIP3    H245647   1.357   1.028   4.826  0.0476  0.1127 -0.5176
 8078TIP3   OH245648   4.617   4.858  11.345  0.6684  0.1641 -0.2669
 8078TIP3    H145649   4.610   4.919  11.418 -0.4405 -1.5773  1.1684
 8078TIP3    H245650   4.684   4.897  11.288  2.0480  1.2876  1.9659
 8079TIP3   OH245651   4.295   2.279  12.312 -0.2789  0.0880 -0.1318
 8079TIP3    H145652   4.302   2.372  12.330  1.0895  0.0653 -0.3659
 8079TIP3    H245653   4.202   2.260  12.314 -0.5154  1.2570  0.9132
 8080TIP3   OH245654   2.791   4.293  14.933  0.1398 -0.4743  0.1327
 8080TIP3    H145655   2.881   4.318  14.915  0.0007  0.1710  0.3077
 8080TIP3    H245656   2.738   4.361  14.890 -0.2206  0.4977  2.0238
 8081TIP3   OH245657   3.419   1.488   3.048  0.1559 -0.1685  0.4052
 8081TIP3    H145658   3.361   1.412   3.056 -0.7056  0.2181 -1.5400
 8081TIP3    H245659   3.489   1.459   2.990 -0.2412  0.5205 -0.4506
 8082TIP3   OH245660   2.069   4.859  14.879  0.1882 -0.1351  0.3864
 8082TIP3    H145661   2.019   4.858  14.961  0.0409  0.2619  0.3047
 8082TIP3    H245662   2.102   4.948  14.872 -2.3284  0.7945 -1.4673
 8083TIP3   OH245663   0.491   3.145   5.296  0.6659  0.8234 -0.4312
 8083TIP3    H145664   0.548   3.221   5.306  2.9416 -0.8771  0.3799
 8083TIP3    H245665   0.445   3.138   5.380 -1.2948  2.5206 -1.2778
 8084TIP3   OH245666   2.748   2.888   0.210  0.0994  0.0137  0.3778
 8084TIP3    H145667   2.676   2.931   0.164  1.2647  1.0940 -0.5468
 8084TIP3    H245668   2.716   2.800   0.228 -1.7243  0.7031  0.7133
 8085TIP3   OH245669   0.953   4.993  15.906 -0.4106 -0.6220 -0.2468
 8085TIP3    H145670   0.899   5.043  15.968  0.6809 -1.9398  1.9189
 8085TIP3    H245671   0.938   4.902  15.930  0.9386 -1.1154 -1.1599
 8086TIP3   OH245672   3.187   0.232   1.499 -0.0709 -0.6586 -0.8437
 8086TIP3    H145673   3.173   0.248   1.592  1.7843 -2.9735 -0.0505
 8086TIP3    H245674   3.257   0.293   1.475 -1.8602  1.3063 -1.2922
 8087TIP3   OH245675   1.899   3.731  15.355  0.3578  0.4249  0.0032
 8087TIP3    H145676   1.883   3.803  15.417  0.3988 -0.0890  0.6225
 8087TIP3    H245677   1.969   3.680  15.395  1.2928  0.7983 -1.0974
 8088TIP3   OH245678   6.772   3.166  11.736  0.7443 -0.5945  0.6395
 8088TIP3    H145679   6.728   3.251  11.738  0.1228 -0.8907  0.1254
 8088TIP3    H245680   6.862   3.185  11.762  0.8967  0.3941 -0.4822
 8089TIP3   OH245681   1.685   0.760   4.979  0.1299  0.1087  0.5062
 8089TIP3    H145682   1.648   0.746   5.066  0.8738  2.1156  1.2096
 8089TIP3    H245683   1.676   0.854   4.963 -1.1977 -0.3645 -2.1927
 8090TIP3   OH245684   4.988   0.507  16.637  0.5150  0.0259  0.2547
 8090TIP3    H145685   4.991   0.570  16.565 -1.8094 -0.6585 -0.5339
 8090TIP3    H245686   5.002   0.422  16.596  1.1687 -0.1977  0.9293
 8091TIP3   OH245687   0.291   1.247  16.077 -0.0941  0.1146  0.1716
 8091TIP3    H145688   0.332   1.327  16.110  0.1868  0.0118  0.0786
 8091TIP3    H245689   0.197   1.262  16.086 -0.0425 -0.5225  2.5390
 8092TIP3   OH245690   3.315   2.537   3.004  0.1207 -0.0848 -0.0096
 8092TIP3    H145691   3.331   2.473   2.935 -0.3301  0.2315 -0.4072
 8092TIP3    H245692   3.327   2.488   3.085  2.6807 -0.0184 -0.2394
 8093TIP3   OH245693   2.912   1.538   0.508 -0.2316  0.4122  0.4004
 8093TIP3    H145694   2.988   1.572   0.460 -0.4074  0.0955 -0.1128
 8093TIP3    H245695   2.857   1.498   0.441 -0.8515  0.6246  0.7699
 8094TIP3   OH245696   5.769   6.543   5.806  0.5054 -0.2656 -0.0685
 8094TIP3    H145697   5.764   6.456   5.845  0.4351 -0.7613 -1.1395
 8094TIP3    H245698   5.863   6.560   5.799  0.5187  0.0087  0.6817
 8095TIP3   OH245699   5.011   0.158  17.020  1.3439  0.0138 -0.0228
 8095TIP3    H145700   5.066   0.143  17.097  0.0156  1.6971  1.3450
 8095TIP3    H245701   5.064   0.213  16.962  1.7294  0.1866  0.4888
 8096TIP3   OH245702   1.300   0.216   4.264 -0.3690  0.0178 -0.3789
 8096TIP3    H145703   1.268   0.131   4.293 -1.3269  1.2309  2.4817
 8096TIP3    H245704   1.221   0.267   4.247  0.1882  0.3080 -2.5102
 8097TIP3   OH245705   0.725   2.341  11.373 -0.0788  0.7531  0.4872
 8097TIP3    H145706   0.698   2.253  11.347  0.8015  0.0439  1.8620
 8097TIP3    H245707   0.668   2.399  11.322 -0.6622 -0.5933 -0.4681
 8098TIP3   OH245708   6.259   0.940  16.675 -0.4399 -0.1573  0.4896
 8098TIP3    H145709   6.352   0.954  16.694 -0.1390 -1.4171  0.0181
 8098TIP3    H245710   6.256   0.914  16.583 -1.2059 -0.6304  0.6404
 8099TIP3   OH245711   0.864   1.630  13.191  0.1962 -0.0389  0.3068
 8099TIP3    H145712   0.822   1.626  13.106 -0.3156 -2.2791  0.6072
 8099TIP3    H245713   0.923   1.705  13.185 -1.7278  1.4495 -1.0880
 8100TIP3   OH245714   3.608   4.142   5.455 -0.4203 -0.3266  0.0624
 8100TIP3    H145715   3.578   4.162   5.366 -0.6487  0.3376  0.2827
 8100TIP3    H245716   3.572   4.212   5.509  0.9397  0.1026  0.4498
 8101TIP3   OH245717   2.190   3.834  16.246  0.2444  0.1996 -0.4328
 8101TIP3    H145718   2.244   3.864  16.173 -0.5266 -0.6128 -1.3683
 8101TIP3    H245719   2.242   3.766  16.288  0.2421 -0.1140 -0.9259
 8102TIP3   OH245720   5.007   2.477  15.986  0.3065  0.0064 -0.0782
 8102TIP3    H145721   4.917   2.474  16.017  0.2010  2.6760  0.0428
 8102TIP3    H245722   5.018   2.395  15.936 -1.8082 -0.8599  0.7678
 8103TIP3   OH245723   3.035   6.493  16.209 -0.0307  0.3794 -0.4215
 8103TIP3    H145724   3.012   6.585  16.220  0.9022  0.3829  2.3359
 8103TIP3    H245725   3.037   6.458  16.298 -1.8629 -2.7397 -1.4509
 8104TIP3   OH245726   4.489   0.669   0.368 -0.1900 -0.3133 -0.9176
 8104TIP3    H145727   4.501   0.755   0.327  0.9858 -0.4987 -1.0116
 8104TIP3    H245728   4.534   0.676   0.453 -0.3124 -0.7450 -0.8140
 8105TIP3   OH245729   6.070   0.049   1.500  0.0957 -0.4146  0.8068
 8105TIP3    H145730   6.062   0.144   1.487 -0.5918 -0.7792 -2.3322
 8105TIP3    H245731   5.981   0.022   1.525 -0.4235 -0.4896 -0.9784
 8106TIP3   OH245732   6.086   2.039   2.061 -0.2801  0.3197 -0.0889
 8106TIP3    H145733   6.099   1.945   2.076 -0.4838  0.4084  0.6416
 8106TIP3    H245734   6.164   2.080   2.097 -0.1126  0.4266 -0.5588
 8107TIP3   OH245735   2.460   4.030   0.729  0.1927  0.4997 -0.1365
 8107TIP3    H145736   2.394   3.997   0.790  0.4122 -0.5091 -0.4231
 8107TIP3    H245737   2.508   3.951   0.702  0.1164  0.9395 -1.5860
 8108TIP3   OH245738   2.322   3.212   5.697 -0.6520 -0.1379 -0.2699
 8108TIP3    H145739   2.268   3.278   5.653 -1.4700 -1.0058 -0.5843
 8108TIP3    H245740   2.347   3.150   5.629  0.2622 -0.0771 -0.0090
 8109TIP3   OH245741   3.070   4.281   3.639  0.3639  0.9082  0.2695
 8109TIP3    H145742   3.059   4.200   3.689  1.4917  0.2213 -0.5478
 8109TIP3    H245743   3.003   4.339   3.673  0.2369  0.0068  1.6428
 8110TIP3   OH245744   0.163   1.949   3.633  0.5392  1.0820  0.0592
 8110TIP3    H145745   0.239   1.951   3.691  0.3531  2.0325  0.2820
 8110TIP3    H245746   0.089   1.973   3.689 -0.1268 -0.9034  0.1103
 8111TIP3   OH245747   5.603   5.090   0.472  0.8610 -0.5786  0.2684
 8111TIP3    H145748   5.530   5.064   0.416 -0.9002  3.2794  0.4576
 8111TIP3    H245749   5.572   5.071   0.561 -0.3135  1.5454  0.3894
 8112TIP3   OH245750   5.909   4.267  16.829 -0.0255  0.1498 -0.3045
 8112TIP3    H145751   5.936   4.345  16.781  0.4473 -1.2222 -2.4115
 8112TIP3    H245752   5.990   4.229  16.861 -0.1392 -0.0543 -0.2563
 8113TIP3   OH245753   4.139   2.358   3.059 -0.2147 -0.2769  0.5876
 8113TIP3    H145754   4.062   2.356   3.115  0.1586  1.4146  1.2278
 8113TIP3    H245755   4.211   2.333   3.117  0.3275  2.4662  1.2369
 8114TIP3   OH245756   3.460   5.810  15.109  0.3575  0.1751 -0.2389
 8114TIP3    H145757   3.422   5.896  15.128  3.5869  1.9208 -0.7586
 8114TIP3    H245758   3.407   5.775  15.038  0.0130  2.6165 -1.2776
 8115TIP3   OH245759   3.726   3.500  13.333  0.2428 -0.1815  0.3070
 8115TIP3    H145760   3.680   3.419  13.355  1.6806 -1.0734  0.1505
 8115TIP3    H245761   3.754   3.489  13.242 -1.8465  1.6465 -0.6387
 8116TIP3   OH245762   5.295   0.734  10.817 -0.3528 -0.1553 -0.0217
 8116TIP3    H145763   5.244   0.706  10.742  1.5035 -1.0204 -1.0282
 8116TIP3    H245764   5.355   0.800  10.783  2.2886 -2.3776  0.0147
 8117TIP3   OH245765   2.339   1.812  13.823  0.2094  0.1703  0.0223
 8117TIP3    H145766   2.384   1.832  13.905  1.0903  0.1713 -0.4520
 8117TIP3    H245767   2.251   1.850  13.834 -1.1092 -3.1677  2.4876
 8118TIP3   OH245768   6.579   5.883  15.787 -0.5853  0.1362  0.6994
 8118TIP3    H145769   6.629   5.953  15.829 -0.2982 -1.4283  3.2243
 8118TIP3    H245770   6.645   5.822  15.755 -0.8424  0.7103 -1.0221
 8119TIP3   OH245771   3.719   4.520  12.148  0.5927 -0.0256  0.9949
 8119TIP3    H145772   3.765   4.580  12.090 -0.6416 -1.7411 -2.0050
 8119TIP3    H245773   3.651   4.573  12.190  1.8502  1.3785  1.3192
 8120TIP3   OH245774   6.386   4.688   5.341 -0.1612  0.7081 -0.2825
 8120TIP3    H145775   6.455   4.666   5.279 -0.2519  1.6869 -0.7330
 8120TIP3    H245776   6.363   4.604   5.382  1.5008  0.4230  0.1050
 8121TIP3   OH245777   5.512   1.742   0.639  0.0657  0.1367  0.2811
 8121TIP3    H145778   5.462   1.706   0.712 -0.7930  0.2235 -0.2481
 8121TIP3    H245779   5.596   1.767   0.677 -0.4444  0.3692  1.2783
 8122TIP3   OH245780   3.723   3.476  11.444  0.0685 -0.1963 -0.3533
 8122TIP3    H145781   3.718   3.570  11.458  0.6722  0.1386 -2.1498
 8122TIP3    H245782   3.816   3.457  11.439 -0.0587 -0.7212 -0.9438
 8123TIP3   OH245783   1.562   1.371   4.082  0.0338 -0.0245 -0.0746
 8123TIP3    H145784   1.516   1.324   4.012  0.5254  0.0338 -0.4386
 8123TIP3    H245785   1.610   1.440   4.037  0.9198 -0.4263  0.2390
 8124TIP3   OH245786   1.057   5.312   4.520 -0.2573 -0.2814  0.3691
 8124TIP3    H145787   1.139   5.361   4.506  1.6299 -3.0238  0.9109
 8124TIP3    H245788   0.997   5.348   4.455  1.4852  1.5737 -0.3503
 8125TIP3   OH245789   6.010   2.936  13.728  0.4719 -0.4417  0.4733
 8125TIP3    H145790   6.091   2.931  13.677 -1.0330 -0.9443 -2.0451
 8125TIP3    H245791   5.962   2.856  13.705 -1.3154  0.4879  0.7835
 8126TIP3   OH245792   2.736   1.652  13.560 -0.5632 -0.4828  0.1037
 8126TIP3    H145793   2.776   1.582  13.508  0.0511 -0.2786  0.2882
 8126TIP3    H245794   2.664   1.610  13.606 -0.3527 -0.9419  0.0232
 8127TIP3   OH245795   4.149   1.392  11.416 -0.0181  0.2797 -0.4695
 8127TIP3    H145796   4.211   1.386  11.343  0.7014 -1.5845  0.2461
 8127TIP3    H245797   4.103   1.308  11.415 -3.0884  1.8326 -1.4025
 8128TIP3   OH245798   6.767   6.535  16.981  0.4168 -0.0689  0.0870
 8128TIP3    H145799   6.710   6.609  17.002 -0.0315 -0.0556 -1.0731
 8128TIP3    H245800   6.710   6.458  16.990  0.1407 -0.0416 -1.2319
 8129TIP3   OH245801   6.155   6.146  12.326 -0.4388  0.1289 -0.7233
 8129TIP3    H145802   6.200   6.097  12.258 -0.6957 -0.7506 -0.2724
 8129TIP3    H245803   6.108   6.080  12.377  0.3682  0.6498  0.7850
 8130TIP3   OH245804   4.883   6.774  12.781 -0.1548 -0.1594  0.1156
 8130TIP3    H145805   4.978   6.784  12.793 -0.0061 -0.5060 -0.7716
 8130TIP3    H245806   4.868   6.795  12.689 -0.9678  0.0626  0.2955
 8131TIP3   OH245807   6.317   6.740   2.030  0.0560 -0.3234  0.2275
 8131TIP3    H145808   6.359   6.760   2.114  0.8531 -1.5442  0.1493
 8131TIP3    H245809   6.327   6.821   1.979 -0.3508  0.3997  1.2566
 8132TIP3   OH245810   6.276   5.027  15.564  0.0044 -1.1896  0.4883
 8132TIP3    H145811   6.320   5.104  15.528 -1.1547  0.2396  1.9471
 8132TIP3    H245812   6.337   4.994  15.631 -0.5983  0.1468  1.7608
 8133TIP3   OH245813   2.311   3.552  14.740  0.2283 -0.0096  0.0430
 8133TIP3    H145814   2.341   3.471  14.781 -0.3545  0.5749  1.7115
 8133TIP3    H245815   2.283   3.526  14.653  0.0087 -1.6215  0.5638
 8134TIP3   OH245816   4.068   0.697  13.768  0.4188  0.1143  0.1608
 8134TIP3    H145817   4.133   0.633  13.796 -0.8317 -0.6659  1.3626
 8134TIP3    H245818   4.058   0.681  13.674 -0.5509 -2.1581  0.5817
 8135TIP3   OH245819   4.311   5.182  12.202 -0.2181  0.0094 -0.3580
 8135TIP3    H145820   4.358   5.235  12.138  0.0764  0.1529 -0.0306
 8135TIP3    H245821   4.318   5.232  12.284 -1.0075  0.0692 -0.3186
 8136TIP3   OH245822   6.410   5.120   2.708  0.3264 -0.0072  0.1212
 8136TIP3    H145823   6.418   5.177   2.632  2.1893 -0.8887 -0.3968
 8136TIP3    H245824   6.495   5.126   2.752 -0.2381 -0.6007  1.3615
 8137TIP3   OH245825   5.080   0.731   3.183  0.6415  0.4909  0.0852
 8137TIP3    H145826   5.015   0.703   3.247  0.5418 -0.8414 -0.5632
 8137TIP3    H245827   5.101   0.821   3.208 -1.7334  1.1059  0.0587
 8138TIP3   OH245828   6.491   1.666  11.663  0.0856 -0.1862 -0.0596
 8138TIP3    H145829   6.439   1.662  11.744 -1.4788  0.7463 -0.9605
 8138TIP3    H245830   6.441   1.614  11.600  0.9506 -0.3747 -0.6009
 8139TIP3   OH245831   6.042   4.148   6.019 -0.2090 -0.4401  0.6165
 8139TIP3    H145832   6.113   4.093   6.052 -0.1636  0.0770  1.4133
 8139TIP3    H245833   6.003   4.187   6.097  0.9231  2.0915  0.0316
 8140TIP3   OH245834   6.133   4.465  15.702 -0.3882  0.6443 -0.4835
 8140TIP3    H145835   6.167   4.380  15.675 -0.4797  0.9585 -1.6295
 8140TIP3    H245836   6.051   4.475  15.654 -0.4535  1.3171 -0.2483
 8141TIP3   OH245837   3.150   6.431   0.859  0.1617 -0.1449 -0.3463
 8141TIP3    H145838   3.235   6.390   0.876  1.0670  0.5398 -2.8103
 8141TIP3    H245839   3.155   6.460   0.768 -2.1326  1.3793 -0.0692
 8142TIP3   OH245840   0.345   3.262  12.032 -0.0413  0.5141 -0.2194
 8142TIP3    H145841   0.388   3.186  12.071 -1.4412  0.2402  0.8743
 8142TIP3    H245842   0.373   3.336  12.085 -0.1144  0.4804 -0.1328
 8143TIP3   OH245843   5.977   5.770   0.222  0.2701 -0.4838 -0.1490
 8143TIP3    H145844   5.963   5.786   0.316 -2.5362 -0.0394 -0.5667
 8143TIP3    H245845   6.034   5.840   0.194 -1.8004  1.6311  0.5676
 8144TIP3   OH245846   5.045   4.500   0.596 -0.7085 -0.6654 -0.2419
 8144TIP3    H145847   5.064   4.407   0.587 -0.7840 -0.5053 -3.2708
 8144TIP3    H245848   5.113   4.533   0.655  1.3293 -2.1214 -1.6300
 8145TIP3   OH245849   4.623   1.706  13.507  0.4615  0.9314 -0.2724
 8145TIP3    H145850   4.628   1.701  13.411 -1.3022 -1.5406 -0.3458
 8145TIP3    H245851   4.555   1.772  13.524 -1.7674 -1.0325 -0.9602
 8146TIP3   OH245852   6.079   5.555   2.102 -0.1507 -0.5195  0.0819
 8146TIP3    H145853   6.075   5.542   2.008  2.7197 -0.2989 -0.1765
 8146TIP3    H245854   6.001   5.606   2.123 -0.5313 -0.0369 -2.2693
 8147TIP3   OH245855   1.318   3.301   3.314  0.2469 -0.1363 -0.5525
 8147TIP3    H145856   1.276   3.217   3.331  1.8266 -0.8186  0.1516
 8147TIP3    H245857   1.278   3.361   3.377 -0.6688 -0.4110 -0.8545
 8148TIP3   OH245858   4.342   0.365   2.665 -0.3599  0.0013 -0.0260
 8148TIP3    H145859   4.273   0.302   2.684 -1.6483  1.4344  0.2203
 8148TIP3    H245860   4.298   0.450   2.665  1.0309  0.7831 -1.8410
 8149TIP3   OH245861   1.045   5.061   0.526  0.4716 -0.1173  0.3222
 8149TIP3    H145862   1.114   5.012   0.570  0.1820 -1.6036 -0.8084
 8149TIP3    H245863   1.080   5.080   0.440 -0.4166 -0.6653 -0.1757
 8150TIP3   OH245864   2.524   6.103  11.225 -0.3312  0.2620 -0.0252
 8150TIP3    H145865   2.526   6.008  11.239  1.5666  0.1644 -0.6517
 8150TIP3    H245866   2.500   6.114  11.133  1.9868  0.2158 -0.7060
 8151TIP3   OH245867   4.856   6.698  11.729  0.1589 -0.0731 -0.5932
 8151TIP3    H145868   4.815   6.669  11.647  0.1876 -0.2287 -0.5528
 8151TIP3    H245869   4.934   6.644  11.737  0.0070 -0.2541 -0.3211
 8152TIP3   OH245870   4.285   4.478   5.589 -0.2666 -0.0186 -0.1854
 8152TIP3    H145871   4.246   4.531   5.658  1.0260  1.1960 -0.3339
 8152TIP3    H245872   4.306   4.540   5.520  1.6844 -0.6229 -0.2037
 8153TIP3   OH245873   4.436   4.132  15.046 -0.3888  0.6155  0.5141
 8153TIP3    H145874   4.495   4.171  15.112 -1.0408  0.2517  1.3298
 8153TIP3    H245875   4.459   4.039  15.046 -0.7609  0.5233  0.6212
 8154TIP3   OH245876   5.621   5.589   3.179 -0.1699 -0.2703  0.9706
 8154TIP3    H145877   5.708   5.550   3.184  0.2351  0.7086  1.7010
 8154TIP3    H245878   5.584   5.579   3.267 -1.0096 -1.1277  0.5428
 8155TIP3   OH245879   1.848   5.403   0.358  0.0087  0.5287 -0.3531
 8155TIP3    H145880   1.795   5.327   0.333 -0.4713  0.4622  0.7860
 8155TIP3    H245881   1.921   5.403   0.296  1.3541 -2.2998  1.0185
 8156TIP3   OH245882   4.519   0.298  11.407 -0.8479  0.2307 -0.0865
 8156TIP3    H145883   4.531   0.320  11.314  0.6177 -1.0597 -0.2439
 8156TIP3    H245884   4.535   0.204  11.412 -0.2433  0.3900  1.5821
 8157TIP3   OH245885   2.808   5.980  13.085  0.1972 -1.2601  0.4106
 8157TIP3    H145886   2.824   6.074  13.071  0.6154 -1.4226 -0.2393
 8157TIP3    H245887   2.890   5.938  13.060 -0.2749 -1.8722 -0.1315
 8158TIP3   OH245888   3.825   3.494   4.355  0.0785 -0.6239  0.0249
 8158TIP3    H145889   3.764   3.544   4.409 -0.9928 -2.4325  0.5759
 8158TIP3    H245890   3.905   3.546   4.353 -0.5920  0.5122  1.5548
 8159TIP3   OH245891   5.509   1.568  11.788  0.4089  0.2433 -0.1381
 8159TIP3    H145892   5.439   1.601  11.845 -2.6272 -3.0476 -1.5643
 8159TIP3    H245893   5.487   1.602  11.701  0.1512 -1.2151 -0.6888
 8160TIP3   OH245894   4.552   1.438   1.206  0.2452  0.3016 -0.1311
 8160TIP3    H145895   4.539   1.378   1.280 -0.9305 -2.2116 -2.2094
 8160TIP3    H245896   4.464   1.474   1.189  0.7984  2.1379  0.5998
 8161TIP3   OH245897   6.147   2.521  14.753 -0.6654 -0.3202 -0.1018
 8161TIP3    H145898   6.145   2.541  14.846 -1.3064 -0.7769 -0.0084
 8161TIP3    H245899   6.196   2.593  14.713  1.0210 -0.9309  0.7715
 8162TIP3   OH245900   1.078   0.410   1.707  0.4268 -0.2705 -0.7072
 8162TIP3    H145901   1.143   0.424   1.638  0.5978 -2.4662 -1.0738
 8162TIP3    H245902   1.124   0.430   1.788  0.9074  0.1859 -1.0831
 8163TIP3   OH245903   2.571   2.089   4.323 -0.6262  0.5960  0.1466
 8163TIP3    H145904   2.534   2.049   4.402 -0.2987  0.4235  0.2149
 8163TIP3    H245905   2.501   2.085   4.258 -0.4687 -0.4550  0.0276
 8164TIP3   OH245906   0.996   1.137   3.345 -0.5606  0.1858  0.6118
 8164TIP3    H145907   1.091   1.141   3.352 -0.6029  1.3646  0.6059
 8164TIP3    H245908   0.977   1.169   3.256 -0.9980  0.6199  0.8551
 8165TIP3   OH245909   0.921   2.050   5.673 -0.5729  0.6242  0.0604
 8165TIP3    H145910   1.012   2.031   5.651 -1.2342 -1.8811 -0.8160
 8165TIP3    H245911   0.924   2.078   5.765  0.8235 -2.4603  1.0996
 8166TIP3   OH245912   1.138   2.144   6.553 -0.0804  0.1044  0.6319
 8166TIP3    H145913   1.153   2.089   6.630  1.2110  0.1411  0.4429
 8166TIP3    H245914   1.175   2.229   6.577 -0.4676  0.3737  0.2848
 8167TIP3   OH245915   4.247   5.195   3.069  0.0925 -0.0272  0.3996
 8167TIP3    H145916   4.325   5.196   3.013 -0.1238  0.2449  0.0992
 8167TIP3    H245917   4.278   5.229   3.153  0.7773 -1.8582  0.9500
 8168TIP3   OH245918   4.726   5.878   5.309 -0.1212  0.1870  0.1490
 8168TIP3    H145919   4.671   5.920   5.243  0.5384 -0.0112 -0.5443
 8168TIP3    H245920   4.815   5.887   5.275  0.2800  0.4447  1.2159
 8169TIP3   OH245921   1.036   4.111   0.346 -0.2709  0.8844  0.1732
 8169TIP3    H145922   1.046   4.036   0.288 -1.0728 -0.8030  2.0622
 8169TIP3    H245923   1.123   4.148   0.354  0.8002 -1.6284  1.3514
 8170TIP3   OH245924   3.674   1.510  16.200  1.1966  0.5266 -0.5102
 8170TIP3    H145925   3.741   1.505  16.268  0.0501 -1.3505  0.5771
 8170TIP3    H245926   3.656   1.604  16.191  1.0808  0.8429  2.1299
 8171TIP3   OH245927   0.819   0.346  12.132 -0.2318 -0.2188 -0.4837
 8171TIP3    H145928   0.902   0.308  12.105  0.7981  2.1363 -0.8261
 8171TIP3    H245929   0.778   0.278  12.187  1.4129 -1.8123 -1.1408
 8172TIP3   OH245930   6.598   5.009   0.474 -0.0883  0.0723  0.2842
 8172TIP3    H145931   6.531   5.057   0.523  0.8307  0.1297  1.5237
 8172TIP3    H245932   6.678   5.060   0.485  0.3497 -0.4296 -0.4809
 8173TIP3   OH245933   3.716   3.328  14.341  0.4653 -0.2618 -0.4427
 8173TIP3    H145934   3.712   3.235  14.365 -0.6219 -0.0192  0.4131
 8173TIP3    H245935   3.734   3.373  14.424 -2.7512  0.5466 -0.0499
 8174TIP3   OH245936   1.469   2.180  13.408  0.0515 -0.3958  0.5303
 8174TIP3    H145937   1.405   2.201  13.476 -2.2096 -0.8416 -1.3228
 8174TIP3    H245938   1.417   2.137  13.340  2.5749 -1.8743 -0.5825
 8175TIP3   OH245939   5.850   1.818   3.091  0.1046  0.2387  0.8194
 8175TIP3    H145940   5.900   1.774   3.022  0.8087  2.8670 -0.4428
 8175TIP3    H245941   5.770   1.765   3.099 -0.4120  0.2425 -2.6306
 8176TIP3   OH245942   1.570   3.496   2.697  0.6689 -0.1526 -0.0895
 8176TIP3    H145943   1.480   3.505   2.667  0.7664  0.6498 -0.1646
 8176TIP3    H245944   1.599   3.412   2.662  0.5559  0.4288 -1.6745
 8177TIP3   OH245945   5.406   1.426   0.463  0.4874  0.4956  0.0030
 8177TIP3    H145946   5.382   1.518   0.456 -1.4698 -0.0688 -1.6045
 8177TIP3    H245947   5.441   1.417   0.552  0.5989  2.7368  0.2363
 8178TIP3   OH245948   4.584   2.655  14.581 -0.0734  0.1598 -0.0999
 8178TIP3    H145949   4.488   2.652  14.585 -0.0013 -0.7265  1.8640
 8178TIP3    H245950   4.609   2.723  14.642  0.5889 -0.6154  0.5182
 8179TIP3   OH245951   1.361   4.134   0.469 -0.6173  1.0654  0.2788
 8179TIP3    H145952   1.390   4.109   0.558 -0.2622 -2.3806 -0.6524
 8179TIP3    H245953   1.331   4.224   0.478 -1.2327  0.6518  4.0644
 8180TIP3   OH245954   2.117   4.413  15.722 -0.0551  0.4519 -0.0135
 8180TIP3    H145955   2.051   4.402  15.790  1.2031 -1.7297  0.9818
 8180TIP3    H245956   2.104   4.338  15.663  0.9252  0.5005 -0.3149
 8181TIP3   OH245957   2.322   2.721   4.410 -0.1397 -0.5328 -0.3735
 8181TIP3    H145958   2.273   2.644   4.382 -0.2806 -0.3143 -0.7472
 8181TIP3    H245959   2.414   2.695   4.404 -0.1812 -1.8673  2.9591
 8182TIP3   OH245960   2.421   2.061   0.920  0.9410 -0.6117  0.0970
 8182TIP3    H145961   2.434   2.122   0.992 -0.3967 -0.1027 -0.0628
 8182TIP3    H245962   2.507   2.022   0.906  1.4564  0.0411  1.2730
 8183TIP3   OH245963   2.706   1.355   2.027  0.0858  0.4656 -0.7224
 8183TIP3    H145964   2.798   1.380   2.029  0.0861  0.6420 -2.2435
 8183TIP3    H245965   2.693   1.318   1.940 -1.7544  2.3456 -1.3331
 8184TIP3   OH245966   6.542   2.014  12.959  0.2764 -0.3776 -0.3640
 8184TIP3    H145967   6.569   2.091  13.009 -0.7637 -0.1887 -0.0499
 8184TIP3    H245968   6.598   1.943  12.991  1.7045  0.3607 -1.1349
 8185TIP3   OH245969   5.840   4.204  13.026  0.4401  0.2347 -0.3995
 8185TIP3    H145970   5.844   4.252  13.109  0.2472 -0.5760  0.0923
 8185TIP3    H245971   5.782   4.256  12.971 -0.8022 -0.0853  0.5629
 8186TIP3   OH245972   4.070   4.920   1.082 -0.1569 -0.3201 -0.1509
 8186TIP3    H145973   4.120   4.930   1.163  1.2301 -1.3823 -0.8266
 8186TIP3    H245974   4.110   4.982   1.021 -0.6370 -0.1277 -0.2695
 8187TIP3   OH245975   6.189   5.188   0.497 -0.0458  0.3105 -0.5379
 8187TIP3    H145976   6.108   5.195   0.548  0.6287  1.7277  0.4205
 8187TIP3    H245977   6.222   5.100   0.516 -0.2888  0.4816  0.7798
 8188TIP3   OH245978   4.356   3.158   3.640 -0.5354  0.1556 -0.3733
 8188TIP3    H145979   4.384   3.103   3.714 -1.0303  0.4179  0.0168
 8188TIP3    H245980   4.435   3.205   3.613 -0.4983  0.5972  0.4630
 8189TIP3   OH245981   2.659   2.851   1.787  0.0158 -0.3191 -0.3242
 8189TIP3    H145982   2.748   2.879   1.764  0.5315  0.4582  2.2381
 8189TIP3    H245983   2.673   2.775   1.844 -0.8989  0.1808  0.5946
 8190TIP3   OH245984   0.660   6.048  14.711  0.1122 -0.1932 -0.1732
 8190TIP3    H145985   0.654   6.040  14.615 -1.4828 -1.5589 -0.0032
 8190TIP3    H245986   0.734   5.993  14.735  0.0157 -0.5079 -0.5690
 8191TIP3   OH245987   5.486   4.334   6.536 -0.0313 -0.5854  0.3751
 8191TIP3    H145988   5.514   4.391   6.465 -2.3195  0.0799 -0.0890
 8191TIP3    H245989   5.505   4.383   6.615  0.0203 -0.1202  0.0803
 8192TIP3   OH245990   6.628   4.723  16.143 -0.0273  0.3683  0.2352
 8192TIP3    H145991   6.672   4.664  16.203  0.3148  1.3996  1.0286
 8192TIP3    H245992   6.535   4.704  16.155  0.0704  0.1359  0.6384
 8193TIP3   OH245993   1.961   5.530   5.689 -0.4142  0.3075  0.0855
 8193TIP3    H145994   1.939   5.473   5.615 -2.6382  0.2302  0.7103
 8193TIP3    H245995   2.047   5.501   5.718 -0.3177 -0.8949 -1.3124
 8194TIP3   OH245996   1.115   3.006  16.819  0.4026  0.3589 -0.1999
 8194TIP3    H145997   1.179   3.005  16.890  1.4745  3.0863 -1.0051
 8194TIP3    H245998   1.048   3.069  16.848  0.9387  1.6256 -1.6220
 8195TIP3   OH245999   5.690   1.422   1.411  0.5903 -0.2595 -0.4406
 8195TIP3    H146000   5.764   1.367   1.437  0.6454 -0.3769 -0.8351
 8195TIP3    H246001   5.639   1.367   1.352 -0.5823 -0.6767  0.9166
 8196TIP3   OH246002   5.928   4.420   2.190 -0.0819  0.5785 -0.0492
 8196TIP3    H146003   5.948   4.351   2.254  1.5943 -0.9558 -2.1149
 8196TIP3    H246004   5.985   4.493   2.214  1.4042 -0.4250 -0.4618
 8197TIP3   OH246005   2.958   1.112  15.490  0.4441 -0.4539  0.0370
 8197TIP3    H146006   3.037   1.166  15.489  0.2893 -0.2200 -0.9920
 8197TIP3    H246007   2.891   1.167  15.449 -0.3368 -0.5394  1.1450
 8198TIP3   OH246008   6.673   0.199  15.932  0.9121 -0.4033  0.0416
 8198TIP3    H146009   6.585   0.190  15.895  0.6418  1.1576  0.2404
 8198TIP3    H246010   6.670   0.150  16.014  0.3027 -0.5686 -0.0781
 8199TIP3   OH246011   3.407   0.192   2.878 -0.1757  0.6770 -0.2261
 8199TIP3    H146012   3.320   0.163   2.849 -0.0604  0.4996 -0.3989
 8199TIP3    H246013   3.467   0.123   2.848 -0.3482 -0.9748  2.9071
 8200TIP3   OH246014   5.440   4.204  11.623 -0.7567 -0.3962 -0.6384
 8200TIP3    H146015   5.387   4.284  11.618  0.4373  0.6767  1.8763
 8200TIP3    H246016   5.431   4.163  11.537 -0.8908  2.7859 -2.2906
 8201TIP3   OH246017   0.687   0.268  12.799  0.0857 -0.1521 -0.5043
 8201TIP3    H146018   0.763   0.210  12.813  0.1712 -0.0473 -0.5287
 8201TIP3    H246019   0.723   0.356  12.809 -0.0833 -0.1082 -0.2904
 8202TIP3   OH246020   1.232   4.808   3.259  0.2085  0.3281  0.6023
 8202TIP3    H146021   1.154   4.863   3.268 -0.2725 -0.4461  1.2018
 8202TIP3    H246022   1.199   4.719   3.250  1.0000  0.0759  0.0615
 8203TIP3   OH246023   2.410   5.566   2.771  0.5705 -0.1253  0.7733
 8203TIP3    H146024   2.454   5.627   2.830  0.5415  1.0854 -0.4291
 8203TIP3    H246025   2.333   5.536   2.821 -0.2244  1.9406  0.8777
 8204TIP3   OH246026   3.065   3.533  15.757 -0.0071 -0.2415  0.2079
 8204TIP3    H146027   3.042   3.616  15.800 -0.4323 -0.9693  1.4303
 8204TIP3    H246028   2.993   3.474  15.779  0.2294 -0.9177 -0.7590
 8205TIP3   OH246029   6.758   5.549  13.785 -0.0905  0.1995  0.3152
 8205TIP3    H146030   6.737   5.608  13.713 -1.8797 -0.1688  0.4908
 8205TIP3    H246031   6.811   5.481  13.745 -0.5264  0.3415 -0.5329
 8206TIP3   OH246032   0.733   5.286  12.615  0.6504 -0.7132 -0.3063
 8206TIP3    H146033   0.715   5.253  12.527 -0.3364  0.5499 -0.5952
 8206TIP3    H246034   0.648   5.284  12.659  0.8197  0.2005  0.0771
 8207TIP3   OH246035   5.657   3.221  12.199 -0.0829 -0.3060 -1.2546
 8207TIP3    H146036   5.666   3.245  12.107 -2.8178  0.5694 -1.3870
 8207TIP3    H246037   5.579   3.166  12.203 -0.9687  0.9369  0.6637
 8208TIP3   OH246038   6.358   4.347  14.255 -0.1509  0.0825 -0.1088
 8208TIP3    H146039   6.433   4.298  14.290  1.5383  1.4877 -1.5277
 8208TIP3    H246040   6.313   4.380  14.333  0.4140 -1.2047  0.8000
 8209TIP3   OH246041   3.387   1.282  16.408 -0.2819 -0.1173 -0.0842
 8209TIP3    H146042   3.425   1.357  16.363 -0.0117 -0.8806 -1.1708
 8209TIP3    H246043   3.442   1.271  16.485  1.3218 -0.7680 -1.2679
 8210TIP3   OH246044   1.132   1.854   5.529  0.0561  0.6807 -0.5551
 8210TIP3    H146045   1.107   1.901   5.449 -1.2955 -1.1086 -1.2570
 8210TIP3    H246046   1.135   1.762   5.502  0.1451  0.1031  1.3289
 8211TIP3   OH246047   6.797   6.431   5.235  0.1246 -0.1614 -0.1731
 8211TIP3    H146048   6.784   6.496   5.166  5.4073  1.1705 -0.3149
 8211TIP3    H246049   6.785   6.480   5.316  1.5558  0.3670 -0.2641
 8212TIP3   OH246050   3.212   6.304  11.771 -0.4767  0.6262 -0.2628
 8212TIP3    H146051   3.223   6.323  11.864  0.7059 -0.2282 -0.2093
 8212TIP3    H246052   3.292   6.336  11.730 -0.2526 -0.5129 -0.7384
 8213TIP3   OH246053   6.345   2.107   1.486  0.0020  0.2975 -0.3370
 8213TIP3    H146054   6.379   2.190   1.518 -0.7730 -0.0330  1.4877
 8213TIP3    H246055   6.422   2.062   1.450  1.1263  0.4779  1.6460
 8214TIP3   OH246056   0.877   2.196   1.414  0.3504  0.4635 -0.1182
 8214TIP3    H146057   0.916   2.263   1.357  1.5733 -0.9937 -1.0640
 8214TIP3    H246058   0.783   2.200   1.394  0.3019  2.2355  0.2588
 8215TIP3   OH246059   5.938   2.082   4.822  0.0349 -0.2254 -0.2306
 8215TIP3    H146060   6.013   2.128   4.860  0.4672 -0.6472 -0.5642
 8215TIP3    H246061   5.921   2.129   4.740  0.2948 -0.4789 -0.4313
 8216TIP3   OH246062   3.095   5.226  14.696  0.8932  0.5344 -0.0754
 8216TIP3    H146063   3.051   5.311  14.703  1.9944  1.3119 -1.7182
 8216TIP3    H246064   3.031   5.170  14.653  0.8871  1.2054 -1.0021
 8217TIP3   OH246065   2.685   1.791   0.636 -0.4750  0.4721  0.0394
 8217TIP3    H146066   2.590   1.804   0.634 -0.4047  0.9982 -1.8021
 8217TIP3    H246067   2.699   1.710   0.588  0.0152  0.3394  0.3971
 8218TIP3   OH246068   3.017   5.416   5.831  0.0925 -0.1763 -0.2400
 8218TIP3    H146069   3.002   5.345   5.768 -1.5696 -1.1161  1.1341
 8218TIP3    H246070   2.931   5.456   5.843  0.5374  0.5154  0.8241
 8219TIP3   OH246071   0.821   3.677  10.526 -0.3566 -0.0724  0.3235
 8219TIP3    H146072   0.768   3.657  10.448 -1.2284 -1.4049  1.2040
 8219TIP3    H246073   0.911   3.670  10.496 -0.6224  1.6541 -1.0760
 8220TIP3   OH246074   3.230   0.507   1.944 -0.1159  0.3516 -0.1665
 8220TIP3    H146075   3.199   0.473   2.029 -1.2958  0.9722 -0.3237
 8220TIP3    H246076   3.304   0.563   1.966  0.7555 -0.9039  0.2653
 8221TIP3   OH246077   1.540   1.312   3.812 -0.1353  0.1597  0.4619
 8221TIP3    H146078   1.603   1.246   3.840 -0.0242 -0.5971 -1.4899
 8221TIP3    H246079   1.556   1.323   3.719 -1.9322  1.0276  0.2217
 8222TIP3   OH246080   3.913   0.915  10.532 -0.0233 -0.3674 -0.3619
 8222TIP3    H146081   3.850   0.860  10.579 -1.7600  1.5372 -0.2884
 8222TIP3    H246082   3.920   0.876  10.445 -1.4948 -0.5418 -0.4268
 8223TIP3   OH246083   4.019   6.777   5.106 -0.3436  0.0698 -0.4240
 8223TIP3    H146084   4.086   6.730   5.155  0.2167  0.3743 -0.8858
 8223TIP3    H246085   3.938   6.760   5.154 -0.1936 -1.4939 -0.6660
 8224TIP3   OH246086   2.352   0.894   2.059 -0.3086 -0.2874 -1.0637
 8224TIP3    H146087   2.353   0.948   2.138 -1.1285  1.5294 -2.2283
 8224TIP3    H246088   2.395   0.947   1.992 -0.9171 -1.1734 -2.2091
 8225TIP3   OH246089   2.881   6.149  11.002 -0.4954 -0.0110  0.0661
 8225TIP3    H146090   2.959   6.154  10.947 -0.8270  0.2451 -0.3873
 8225TIP3    H246091   2.845   6.061  10.986 -1.0254  0.3384 -0.7375
 8226TIP3   OH246092   2.758   0.362   2.820 -0.1728 -0.5280 -0.1263
 8226TIP3    H146093   2.735   0.297   2.754  0.9542 -0.9479 -0.1293
 8226TIP3    H246094   2.823   0.319   2.876  0.7767  0.6539 -0.2653
 8227TIP3   OH246095   3.788   6.699  10.619 -0.0376  0.1718 -0.0718
 8227TIP3    H146096   3.838   6.624  10.651  1.4957  0.7356 -1.0181
 8227TIP3    H246097   3.726   6.663  10.556  2.1287 -0.1567 -2.1712
 8228TIP3   OH246098   5.685   4.144   5.537  0.0002  0.2686 -0.0395
 8228TIP3    H146099   5.755   4.210   5.533 -0.3414  0.6026 -0.6908
 8228TIP3    H246100   5.622   4.172   5.471  0.6658 -1.6537 -1.5965
 8229TIP3   OH246101   4.370   4.295   2.472  0.3121 -0.1566  0.7534
 8229TIP3    H146102   4.317   4.236   2.525 -0.5506 -0.6709 -0.6244
 8229TIP3    H246103   4.453   4.248   2.459 -0.1259 -0.7938  0.2053
 8230TIP3   OH246104   5.569   0.981  13.102  0.6986 -0.2264 -0.4320
 8230TIP3    H146105   5.494   1.040  13.094  1.4360  1.0505  1.2653
 8230TIP3    H246106   5.645   1.039  13.098  1.4754 -1.1080  0.8921
 8231TIP3   OH246107   3.785   0.888   0.108  0.8745  0.0697  0.1568
 8231TIP3    H146108   3.770   0.975   0.144 -0.2911 -0.1873  0.3260
 8231TIP3    H246109   3.842   0.903   0.033  0.2642  1.0545 -0.1358
 8232TIP3   OH246110   0.419   0.344   3.226  0.0286 -0.6315 -0.2309
 8232TIP3    H146111   0.485   0.411   3.244  0.2413 -0.1740 -2.4117
 8232TIP3    H246112   0.412   0.294   3.307  1.0682  0.9959  0.9181
 8233TIP3   OH246113   5.100   1.169   5.334  0.4106  0.3700 -0.1873
 8233TIP3    H146114   5.047   1.097   5.367 -0.7228  0.4248 -1.7879
 8233TIP3    H246115   5.123   1.219   5.413 -2.2080  0.5263  0.5907
 8234TIP3   OH246116   1.287   3.489  15.806 -0.2946 -0.2601  0.7709
 8234TIP3    H146117   1.266   3.401  15.778  1.9516 -1.0915  1.4550
 8234TIP3    H246118   1.301   3.538  15.725 -3.0098 -0.0497  0.3413
 8235TIP3   OH246119   5.609   6.709  13.655 -0.0966 -0.5295 -0.3117
 8235TIP3    H146120   5.535   6.688  13.598  1.0930 -1.4246 -1.5954
 8235TIP3    H246121   5.653   6.782  13.611 -0.2718  0.0821  0.5091
 8236TIP3   OH246122   3.187   3.989  11.880 -0.0747  0.2373  0.3645
 8236TIP3    H146123   3.251   4.035  11.825 -1.4344 -0.0351 -1.5528
 8236TIP3    H246124   3.118   4.054  11.894 -0.8421 -0.4221 -0.2778
 8237TIP3   OH246125   0.069   1.302   6.018  0.0492 -0.2996  0.3555
 8237TIP3    H146126   0.105   1.387   5.990 -1.1751 -0.1140 -0.7092
 8237TIP3    H246127  -0.017   1.297   5.977 -1.6701 -0.3041  3.5720
 8238TIP3   OH246128   4.774   4.019   5.930 -0.1840  0.1279 -0.7814
 8238TIP3    H146129   4.794   3.926   5.928  1.8064  0.3832  1.6883
 8238TIP3    H246130   4.703   4.027   5.995  1.7803  0.5053  1.4688
 8239TIP3   OH246131   0.014   4.179   2.816  0.0294  0.9763 -0.2251
 8239TIP3    H146132   0.072   4.224   2.877 -1.5488  0.5918  1.6403
 8239TIP3    H246133  -0.061   4.151   2.869 -0.4792 -1.1721 -1.9184
 8240TIP3   OH246134   0.374   1.720  14.702 -0.3995  0.0855  0.0437
 8240TIP3    H146135   0.452   1.693  14.653 -0.8316 -0.5329 -0.3079
 8240TIP3    H246136   0.307   1.655  14.680 -0.1785 -1.1855  2.6658
 8241TIP3   OH246137   3.623   3.715  16.456  0.0570 -0.8500  0.8514
 8241TIP3    H146138   3.577   3.635  16.432 -0.0226 -0.9527  1.3403
 8241TIP3    H246139   3.565   3.758  16.518  0.3888 -0.7251  1.0756
 8242TIP3   OH246140   3.769   3.699   1.795  0.3827 -0.0047  0.6000
 8242TIP3    H146141   3.723   3.757   1.855 -1.0036  0.1952 -0.6028
 8242TIP3    H246142   3.701   3.664   1.738  0.9631 -3.5950  1.8324
 8243TIP3   OH246143   5.849   5.821  12.814  0.0602 -0.1095 -0.3553
 8243TIP3    H146144   5.893   5.790  12.893  1.1396  1.6679 -0.2254
 8243TIP3    H246145   5.910   5.882  12.774 -1.1952  0.3688 -1.6496
 8244TIP3   OH246146   2.422   3.938   3.517  0.4126  0.1971 -0.2114
 8244TIP3    H146147   2.343   3.951   3.465  0.6077  1.4238 -0.2314
 8244TIP3    H246148   2.401   3.975   3.603  0.4361 -0.9092  0.2876
 8245TIP3   OH246149   6.592   5.732   4.282 -0.3302 -0.3581  0.1562
 8245TIP3    H146150   6.588   5.745   4.377 -1.5666 -0.6139  0.1571
 8245TIP3    H246151   6.600   5.821   4.246 -2.6641  0.0102  0.4082
 8246TIP3   OH246152   3.073   0.160  15.700  0.2989  0.5515 -0.0106
 8246TIP3    H146153   3.066   0.220  15.775 -0.4956  1.1301 -0.5263
 8246TIP3    H246154   2.990   0.171  15.653  0.7940  0.2265 -0.9886
 8247TIP3   OH246155   3.181   2.535   5.095 -0.0902 -0.2589 -0.2967
 8247TIP3    H146156   3.173   2.560   5.186  0.8194  1.6005 -0.6819
 8247TIP3    H246157   3.092   2.514   5.067 -0.8559  1.9586  0.2835
 8248TIP3   OH246158   4.311   3.809  15.636  0.1853  0.1936  0.2283
 8248TIP3    H146159   4.403   3.786  15.653 -0.1463 -3.6732 -2.0437
 8248TIP3    H246160   4.273   3.728  15.601 -3.1882  2.6534 -2.3405
 8249TIP3   OH246161   3.309   0.497  14.240 -0.9324 -0.7844 -0.1041
 8249TIP3    H146162   3.216   0.474  14.235 -1.2354  0.1780  0.8017
 8249TIP3    H246163   3.310   0.592  14.243  0.0013 -0.8076  1.0174
 8250TIP3   OH246164   4.750   6.647   0.159  0.1456 -0.2337  0.0347
 8250TIP3    H146165   4.714   6.583   0.220 -0.5585  0.4225  0.3271
 8250TIP3    H246166   4.759   6.727   0.212  1.0933 -0.1135 -0.2993
 8251TIP3   OH246167   5.727   5.977  15.105 -0.2563 -0.8283 -0.0250
 8251TIP3    H146168   5.756   6.013  15.188 -0.4711 -3.3035  1.2277
 8251TIP3    H246169   5.642   6.018  15.089  0.4424  0.7568  0.1899
 8252TIP3   OH246170   3.084   0.682   2.899 -0.0893 -0.0299  0.6771
 8252TIP3    H146171   3.131   0.652   2.822 -0.0137  1.9864 -0.1314
 8252TIP3    H246172   3.143   0.664   2.972  0.8282  0.1309 -0.0148
 8253TIP3   OH246173   0.190   2.526  16.122  1.0489 -0.0504  0.4708
 8253TIP3    H146174   0.126   2.597  16.115 -0.8197 -1.7116  0.0721
 8253TIP3    H246175   0.187   2.500  16.214 -0.4064 -1.4808  0.0462
 8254TIP3   OH246176   1.287   6.130  13.082  0.6518 -0.3131  0.4154
 8254TIP3    H146177   1.292   6.121  13.177  1.5382 -0.1338  0.3980
 8254TIP3    H246178   1.373   6.102  13.051  0.1968 -0.8661 -0.3770
 8255TIP3   OH246179   6.509   6.688   5.331 -0.1378 -0.7548 -0.0708
 8255TIP3    H146180   6.444   6.677   5.401 -0.4543 -1.6557 -0.4880
 8255TIP3    H246181   6.480   6.628   5.262  0.8195 -0.7391 -0.5042
 8256TIP3   OH246182   3.841   4.893  14.844 -0.2357  0.9313 -0.0856
 8256TIP3    H146183   3.902   4.826  14.815 -0.8022  0.3875 -0.0295
 8256TIP3    H246184   3.762   4.845  14.871 -0.7705  1.6339 -0.3570
 8257TIP3   OH246185   4.866   3.480  14.108 -0.6276  0.2356  0.1270
 8257TIP3    H146186   4.908   3.554  14.152  1.0100  2.3932 -4.4165
 8257TIP3    H246187   4.937   3.417  14.094 -1.1857 -0.5610  0.8346
 8258TIP3   OH246188   3.248   5.112   0.277 -0.7790  0.9572  0.3380
 8258TIP3    H146189   3.295   5.060   0.211 -0.8362  0.9118  0.3332
 8258TIP3    H246190   3.158   5.114   0.246 -1.1414 -0.4073  1.2382
 8259TIP3   OH246191   6.518   5.431  13.438 -0.1229  0.0982  0.0333
 8259TIP3    H146192   6.528   5.517  13.478 -1.1579 -0.3981  1.4973
 8259TIP3    H246193   6.432   5.434  13.395 -1.2031 -0.8314  1.9853
 8260TIP3   OH246194   4.894   3.971   0.627 -0.5357 -0.2844  0.5608
 8260TIP3    H146195   4.869   4.054   0.666 -1.1536 -0.7022  1.0800
 8260TIP3    H246196   4.983   3.955   0.659 -0.3068  0.2989  0.2363
 8261TIP3   OH246197   6.515   4.832  12.822  0.3110  0.3893  0.0416
 8261TIP3    H146198   6.582   4.883  12.777  0.2213  1.4054  1.0176
 8261TIP3    H246199   6.564   4.775  12.882  0.4412 -1.0847 -1.3886
 8262TIP3   OH246200   4.652   5.236   1.949  0.2637 -0.3386  0.0460
 8262TIP3    H146201   4.639   5.186   2.030  2.0646 -2.2773 -0.7723
 8262TIP3    H246202   4.646   5.328   1.976  1.2279 -0.9147  2.4824
 8263TIP3   OH246203   5.135   0.870   3.957  0.4596 -0.2147 -0.5904
 8263TIP3    H146204   5.216   0.921   3.960  0.0695  0.6028 -2.4824
 8263TIP3    H246205   5.075   0.915   4.016  1.6688 -1.4872  1.7471
 8264TIP3   OH246206   6.174   6.530  13.640  0.5120  0.4078  0.2452
 8264TIP3    H146207   6.203   6.502  13.553 -3.0284  0.1346 -0.9891
 8264TIP3    H246208   6.237   6.489  13.700  0.5875 -3.1474 -1.9575
 8265TIP3   OH246209   3.283   5.708   4.302 -0.2503  0.4736 -0.3077
 8265TIP3    H146210   3.241   5.622   4.302 -0.1773  0.4310 -1.2758
 8265TIP3    H246211   3.248   5.752   4.225  0.9411  0.6986 -0.7402
 8266TIP3   OH246212   5.017   2.594  11.644 -0.8552  0.3197  0.1811
 8266TIP3    H146213   5.096   2.601  11.592 -0.4403  1.1297  0.8965
 8266TIP3    H246214   5.043   2.620  11.732 -1.7026 -0.3203  0.6430
 8267TIP3   OH246215   2.307   3.528   0.085  0.0877 -0.0456  0.4186
 8267TIP3    H146216   2.235   3.573   0.129  0.3782 -0.5927  1.4970
 8267TIP3    H246217   2.361   3.494   0.156  0.6445 -0.8574 -0.3636
 8268TIP3   OH246218   3.141   6.366   2.366  0.3569  0.0176  0.0045
 8268TIP3    H146219   3.091   6.289   2.341 -1.5840  1.3155 -0.3400
 8268TIP3    H246220   3.100   6.438   2.319  2.2101  1.2655  0.1821
 8269TIP3   OH246221   3.301   6.802  15.435  0.1513  0.1009  0.4322
 8269TIP3    H146222   3.353   6.743  15.488  0.0886  0.4679  0.9084
 8269TIP3    H246223   3.297   6.883  15.486  0.0259  0.4309 -0.0936
 8270TIP3   OH246224   4.490   2.249   1.180 -0.3893  0.0720  0.7731
 8270TIP3    H146225   4.457   2.181   1.239  1.1508 -0.4364  1.1164
 8270TIP3    H246226   4.499   2.327   1.235 -0.3452  0.0132  0.8487
 8271TIP3   OH246227   4.060   2.636   0.047  0.9344 -0.4261 -0.6187
 8271TIP3    H146228   4.105   2.719   0.062  0.6282 -0.3157 -0.2906
 8271TIP3    H246229   4.052   2.598   0.135  2.3272 -1.4668 -0.8977
 8272TIP3   OH246230   5.576   1.540  11.026 -0.4740  0.5883 -0.0294
 8272TIP3    H146231   5.528   1.506  10.951  0.0228  1.0284 -0.5635
 8272TIP3    H246232   5.668   1.525  11.004 -0.1996  2.5787 -0.4808
 8273TIP3   OH246233   0.162   6.047  10.960  0.1888  0.1738 -0.0596
 8273TIP3    H146234   0.252   6.024  10.939 -0.2296 -1.5207 -0.0955
 8273TIP3    H246235   0.124   6.072  10.876  0.2608 -0.4407 -0.2825
 8274TIP3   OH246236   2.477   0.643   3.977  0.3005  0.0929  0.2118
 8274TIP3    H146237   2.388   0.671   4.000  0.3897  0.0661  0.5959
 8274TIP3    H246238   2.468   0.607   3.889 -0.4192 -1.4562  0.8758
 8275TIP3   OH246239   6.501   6.303   4.441  0.2181  0.7854 -0.1487
 8275TIP3    H146240   6.500   6.305   4.536  0.0915  2.0027 -0.1590
 8275TIP3    H246241   6.570   6.242   4.418  0.9104  1.2301  0.7212
 8276TIP3   OH246242   6.480   0.835   1.267 -0.0996  0.2331  0.3629
 8276TIP3    H146243   6.393   0.832   1.228  0.4388 -0.2157 -0.8479
 8276TIP3    H246244   6.528   0.899   1.214  0.6158 -0.3094  0.3412
 8277TIP3   OH246245   5.923   5.167  11.171  0.2640 -0.3269  0.8756
 8277TIP3    H146246   5.999   5.133  11.218  3.1289 -0.8251 -3.5142
 8277TIP3    H246247   5.954   5.248  11.130 -3.1463  2.0449  2.4726
 8278TIP3   OH246248   3.497   6.727   3.288  0.1560 -0.1289 -0.1599
 8278TIP3    H146249   3.566   6.792   3.277  0.2067 -0.2484 -0.5746
 8278TIP3    H246250   3.450   6.755   3.367 -1.0554  1.5573 -1.4002
 8279TIP3   OH246251   3.998   1.534  10.539  0.2935  0.3042 -0.1847
 8279TIP3    H146252   3.909   1.511  10.513  0.1938  1.2771 -0.7282
 8279TIP3    H246253   4.007   1.626  10.518  1.6992  0.0377 -0.8748
 8280TIP3   OH246254   4.903   3.267   4.729  0.0597 -0.3378 -0.1063
 8280TIP3    H146255   4.813   3.287   4.754  0.6683 -0.8682  2.8839
 8280TIP3    H246256   4.957   3.311   4.795  1.8938 -1.7045 -0.6091
 8281TIP3   OH246257   5.427   3.650   4.594  0.0478 -0.4393 -0.2242
 8281TIP3    H146258   5.336   3.620   4.589 -0.5949  0.8032  2.4775
 8281TIP3    H246259   5.450   3.644   4.686  2.0238  1.2334 -0.5339
 8282TIP3   OH246260   0.312   6.050  13.208 -0.4496 -0.1420 -0.6799
 8282TIP3    H146261   0.283   6.003  13.285 -0.3142 -0.3890 -0.7803
 8282TIP3    H246262   0.235   6.056  13.152 -0.2656 -0.9688 -1.0335
 8283TIP3   OH246263   6.247   4.884  12.942  0.1737  0.3198  0.2213
 8283TIP3    H146264   6.338   4.870  12.918 -0.3630  0.9640 -2.5434
 8283TIP3    H246265   6.226   4.971  12.908 -2.2150 -0.9581 -2.0148
 8284TIP3   OH246266   1.465   5.861   3.199  0.5075 -0.6263 -0.1945
 8284TIP3    H146267   1.396   5.862   3.133 -0.3517  1.8349  0.6442
 8284TIP3    H246268   1.545   5.842   3.149  0.1003  2.3770 -2.2533
 8285TIP3   OH246269   4.459   2.869  12.376 -0.4062  0.5390  0.8576
 8285TIP3    H146270   4.498   2.824  12.452 -1.8518 -1.0686  0.7135
 8285TIP3    H246271   4.488   2.817  12.301 -0.4449  1.0589  0.4829
 8286TIP3   OH246272   2.159   2.481  14.032  0.0923 -0.2209 -0.3066
 8286TIP3    H146273   2.065   2.499  14.041  0.4204  1.8455 -0.5203
 8286TIP3    H246274   2.185   2.452  14.120 -0.6691 -0.3669 -0.1185
 8287TIP3   OH246275   5.106   0.532  16.212 -0.0967  0.4386 -0.2060
 8287TIP3    H146276   5.176   0.568  16.157  0.5199 -3.3288 -2.2362
 8287TIP3    H246277   5.028   0.536  16.156 -0.1610 -0.6305 -0.2069
 8288TIP3   OH246278   6.532   3.674   0.773  0.1647  0.1473  0.4792
 8288TIP3    H146279   6.549   3.766   0.750  1.4326  0.0404  0.9225
 8288TIP3    H246280   6.589   3.624   0.715  1.5233 -0.2230  2.0321
 8289TIP3   OH246281   1.357   5.209   4.199  0.0006 -0.8312 -0.3808
 8289TIP3    H146282   1.391   5.288   4.157 -3.0194  0.0758 -1.4274
 8289TIP3    H246283   1.341   5.236   4.290 -0.5056 -0.3826 -0.5942
 8290TIP3   OH246284   1.446   4.212  10.785  1.1406  0.4581 -0.5049
 8290TIP3    H146285   1.512   4.161  10.830  0.1525  0.0381  0.5237
 8290TIP3    H246286   1.363   4.179  10.819  0.4062  1.1856 -1.5206
 8291TIP3   OH246287   1.918   0.847  14.937 -0.3426 -0.4464 -0.0933
 8291TIP3    H146288   1.827   0.827  14.959 -0.0797 -0.4003  1.0787
 8291TIP3    H246289   1.921   0.943  14.932  0.1870 -0.2460  2.5546
 8292TIP3   OH246290   4.639   3.977  11.823 -0.0781  0.0361 -0.2883
 8292TIP3    H146291   4.589   4.035  11.766  1.2923  1.0479 -0.5188
 8292TIP3    H246292   4.637   4.019  11.909  0.2833  0.0283 -0.2733
 8293TIP3   OH246293   0.655   1.478  12.812 -0.1217  0.3865 -0.6800
 8293TIP3    H146294   0.751   1.485  12.813 -0.0277 -0.3823 -1.6626
 8293TIP3    H246295   0.626   1.553  12.760 -0.1791  1.4227  0.7835
 8294TIP3   OH246296   1.335   5.695   0.030  0.3032  0.0520  0.1155
 8294TIP3    H146297   1.348   5.737  -0.054  1.4281 -1.0868 -0.3214
 8294TIP3    H246298   1.254   5.645   0.021 -0.3990  1.1335  0.2483
 8295TIP3   OH246299   5.123   4.288   4.119  0.7539 -0.3715  0.2610
 8295TIP3    H146300   5.054   4.249   4.066  1.6622 -1.3807 -0.2018
 8295TIP3    H246301   5.192   4.310   4.056  1.9617 -1.8379  1.0284
 8296TIP3   OH246302   0.676   6.494  11.845  0.5498 -0.2247  0.0933
 8296TIP3    H146303   0.652   6.406  11.816  0.7323  0.0704 -1.0185
 8296TIP3    H246304   0.620   6.552  11.793 -1.3218  0.2910  2.5461
 8297TIP3   OH246305   4.624   4.931   4.116 -0.2256 -0.4994  0.0419
 8297TIP3    H146306   4.537   4.953   4.151 -0.3523  0.2383 -0.7056
 8297TIP3    H246307   4.661   5.015   4.088  0.6009 -0.8483  0.0477
 8298TIP3   OH246308   0.953   6.131   0.169  0.0623 -0.2215  0.7221
 8298TIP3    H146309   0.992   6.056   0.124  1.5688 -1.3641  3.6167
 8298TIP3    H246310   1.000   6.207   0.135 -0.6949 -0.6708 -1.4481
 8299TIP3   OH246311   1.149   2.460  13.076 -0.6490 -0.1153 -0.0061
 8299TIP3    H146312   1.194   2.541  13.100  1.9802 -1.3964 -0.2322
 8299TIP3    H246313   1.139   2.466  12.981  2.6464 -1.3682 -0.5588
 8300TIP3   OH246314   3.264   6.119  16.583 -0.0132 -0.3634 -0.2274
 8300TIP3    H146315   3.320   6.055  16.626  0.1701  0.6366  1.0720
 8300TIP3    H246316   3.185   6.122  16.636  0.5751  1.5419  0.6377
 8301TIP3   OH246317   0.909   2.932   4.196 -0.5951 -0.5477 -0.2782
 8301TIP3    H146318   0.910   2.993   4.270  2.4126 -1.1904  0.3321
 8301TIP3    H246319   0.964   2.975   4.130  0.0344 -1.7650 -0.5609
 8302TIP3   OH246320   0.183   4.576  11.941  0.1864 -0.0047 -0.0985
 8302TIP3    H146321   0.099   4.559  11.899 -0.0208  0.4745  0.1071
 8302TIP3    H246322   0.186   4.672  11.950  1.1113  0.0486 -0.8392
 8303TIP3   OH246323   6.035   3.593  13.298  0.4232 -0.0504  0.1433
 8303TIP3    H146324   5.974   3.518  13.296  1.7023 -1.1269 -0.4497
 8303TIP3    H246325   5.980   3.668  13.319 -1.3083 -0.8006 -1.4073
 8304TIP3   OH246326   1.178   5.103   2.603  0.0741  0.1828  0.4408
 8304TIP3    H146327   1.268   5.094   2.572 -0.3776  0.9575 -1.2750
 8304TIP3    H246328   1.175   5.054   2.684  1.2405 -2.5910 -1.0641
 8305TIP3   OH246329   2.450   1.035  14.726 -0.0559  0.0414 -0.8892
 8305TIP3    H146330   2.495   1.034  14.642  0.4361  1.1364 -0.6620
 8305TIP3    H246331   2.358   1.050  14.704  0.1790  1.1048 -1.2104
 8306TIP3   OH246332   2.951   2.222  16.522  0.2672  0.5926  0.1285
 8306TIP3    H146333   3.016   2.165  16.480 -0.7426 -0.6458  0.1608
 8306TIP3    H246334   2.961   2.204  16.616  0.0620  0.5994  0.1513
 8307TIP3   OH246335   3.659   4.522  10.590 -0.1972 -0.0299 -0.2902
 8307TIP3    H146336   3.638   4.434  10.622 -1.5414  0.3467 -0.0917
 8307TIP3    H246337   3.656   4.514  10.495 -1.3950  0.0207 -0.2775
 8308TIP3   OH246338   4.045   4.902  12.923  0.3775  0.0973 -0.7502
 8308TIP3    H146339   4.128   4.867  12.954  0.0403 -0.6978 -0.7093
 8308TIP3    H246340   3.982   4.831  12.938 -0.3113  0.6970 -0.7506
 8309TIP3   OH246341   2.602   4.085  17.037 -0.1544 -0.3225  0.3472
 8309TIP3    H146342   2.666   4.037  17.090  1.0686  0.9722  0.1010
 8309TIP3    H246343   2.556   4.018  16.987  2.4149 -1.1945 -1.0055
 8310TIP3   OH246344   4.441   3.282   4.555  0.1188 -0.0101  0.3012
 8310TIP3    H146345   4.481   3.316   4.635  0.1644 -1.1115  0.7709
 8310TIP3    H246346   4.352   3.318   4.556  0.5020  0.9635  0.2066
 8311TIP3   OH246347   0.266   3.017  14.410  0.3026 -0.4201  0.6740
 8311TIP3    H146348   0.339   2.955  14.408 -0.7695 -1.7832  1.7312
 8311TIP3    H246349   0.201   2.976  14.467  0.3190  2.5419  3.1061
 8312TIP3   OH246350   4.949   2.879  11.563 -0.7438  0.7343  0.6807
 8312TIP3    H146351   5.027   2.912  11.607  0.4160  1.3594 -1.6808
 8312TIP3    H246352   4.979   2.799  11.518 -0.4832  2.5945 -2.7936
 8313TIP3   OH246353   1.494   3.920   0.347 -0.4156 -0.1981  0.2509
 8313TIP3    H146354   1.428   3.987   0.362 -0.6654  0.1027 -1.7979
 8313TIP3    H246355   1.578   3.963   0.367 -0.6664  0.2766  0.2957
 8314TIP3   OH246356   3.914   1.256   3.125 -0.5026  0.0633 -0.4154
 8314TIP3    H146357   3.895   1.270   3.033 -2.3972 -0.9176 -0.2227
 8314TIP3    H246358   3.835   1.216   3.161  0.0155  0.7982  1.7408
 8315TIP3   OH246359   0.844   6.446  16.306 -0.3387  0.2872 -0.1340
 8315TIP3    H146360   0.885   6.388  16.242 -0.6957 -1.3926  1.0847
 8315TIP3    H246361   0.918   6.491  16.348 -0.1641  3.7288 -3.6062
 8316TIP3   OH246362   0.476   0.121   2.234  0.4473  0.3040  0.1460
 8316TIP3    H146363   0.414   0.187   2.266  0.8511  0.2404  1.0764
 8316TIP3    H246364   0.443   0.039   2.269  0.5166  0.1407 -0.1699
 8317TIP3   OH246365   4.218   0.611   3.774  0.1886 -0.0006 -0.2206
 8317TIP3    H146366   4.243   0.697   3.807 -0.2618  0.5559 -1.2963
 8317TIP3    H246367   4.233   0.616   3.679 -1.5956 -0.4728 -0.5674
 8318TIP3   OH246368   5.384   1.206  15.447 -0.2730  0.1625 -0.4925
 8318TIP3    H146369   5.435   1.128  15.469 -0.4443  0.3170  0.5062
 8318TIP3    H246370   5.294   1.175  15.438 -0.3112  0.2143 -0.2885
 8319TIP3   OH246371   0.926   1.400   4.184  0.6037 -0.9019 -0.4509
 8319TIP3    H146372   0.897   1.432   4.269  2.6318  1.2800 -0.4732
 8319TIP3    H246373   0.995   1.337   4.204  2.6495  1.2384 -0.3847
 8320TIP3   OH246374   1.136   2.909   0.929 -0.4275 -0.3146 -0.4357
 8320TIP3    H146375   1.190   2.926   0.852 -2.3185  0.4405 -1.6657
 8320TIP3    H246376   1.052   2.950   0.910 -0.9950 -0.1315  2.0343
 8321TIP3   OH246377   3.609   0.204  11.834  0.1645  0.0861 -0.4488
 8321TIP3    H146378   3.659   0.283  11.853 -0.9789  1.2629 -2.0979
 8321TIP3    H246379   3.659   0.158  11.767  0.0901  0.1883 -0.5753
 8322TIP3   OH246380   1.676   3.034  13.986  0.4794  0.2275  0.4024
 8322TIP3    H146381   1.683   3.105  14.050  0.0985 -0.0199  0.7195
 8322TIP3    H246382   1.585   3.004  13.993  0.8107 -0.7245  0.7361
 8323TIP3   OH246383   4.762   5.072  13.339  0.1574  0.5034  0.4259
 8323TIP3    H146384   4.705   5.141  13.306 -0.1771  0.2629  0.4965
 8323TIP3    H246385   4.849   5.112  13.342 -0.0064  0.8701  0.3135
 8324TIP3   OH246386   3.324   5.623  14.881  0.4725 -0.1600  0.3800
 8324TIP3    H146387   3.255   5.608  14.945 -0.1057 -0.3366 -0.2718
 8324TIP3    H246388   3.278   5.639  14.798  1.2070 -1.0677 -0.2364
 8325TIP3   OH246389   0.348   0.876   4.938  0.3460 -0.5004  0.2153
 8325TIP3    H146390   0.437   0.903   4.914  0.9141 -2.9289 -0.7371
 8325TIP3    H246391   0.295   0.898   4.862  0.2519  0.3122  0.5072
 8326TIP3   OH246392   2.798   5.867   2.905  0.5272  0.4717  0.0977
 8326TIP3    H146393   2.799   5.930   2.832  0.5543 -0.3748 -0.6528
 8326TIP3    H246394   2.870   5.807   2.886  0.8716  0.5497  1.1148
 8327TIP3   OH246395   1.497   4.516  14.813 -0.4555  0.2796 -0.5044
 8327TIP3    H146396   1.528   4.602  14.785  0.0393 -0.7912 -3.6118
 8327TIP3    H246397   1.577   4.467  14.834 -0.7474  0.5916  1.5498
 8328TIP3   OH246398   0.701   3.689  16.209  0.2098 -0.3149 -0.1054
 8328TIP3    H146399   0.757   3.633  16.262  2.4421 -1.3313 -3.2819
 8328TIP3    H246400   0.746   3.773  16.207 -0.9579  0.3896  1.1851
 8329TIP3   OH246401   1.254   4.013  11.686  0.0924 -0.1408  0.0845
 8329TIP3    H146402   1.308   4.084  11.650 -1.7258  0.5169 -1.5138
 8329TIP3    H246403   1.311   3.936  11.683  0.6289  0.2718 -2.6051
 8330TIP3   OH246404   4.135   2.486  14.351  0.4578  0.1028 -0.2670
 8330TIP3    H146405   4.094   2.400  14.339  0.7901 -0.0350 -0.4219
 8330TIP3    H246406   4.061   2.547  14.352  0.2359 -0.1566 -0.4119
 8331TIP3   OH246407   1.510   1.160  14.725  0.0580 -0.4510  0.4447
 8331TIP3    H146408   1.558   1.088  14.765  0.8066  0.6950  1.7143
 8331TIP3    H246409   1.486   1.217  14.799  2.0924  2.1328 -0.7165
 8332TIP3   OH246410   1.713   4.468   4.507 -0.6786  0.7255 -0.2115
 8332TIP3    H146411   1.767   4.390   4.493 -1.9835 -0.7067  2.0663
 8332TIP3    H246412   1.774   4.533   4.543  0.2331  0.4254 -1.1794
 8333TIP3   OH246413   2.154   1.877  10.939 -0.7135 -0.3800 -0.2345
 8333TIP3    H146414   2.219   1.887  10.869 -0.5780 -1.2965 -0.2501
 8333TIP3    H246415   2.188   1.929  11.011 -0.1859 -0.4871 -0.4049
 8334TIP3   OH246416   6.267   4.307   6.075 -0.5004  0.0683 -0.2716
 8334TIP3    H146417   6.210   4.381   6.055 -0.0870  0.1434 -1.2051
 8334TIP3    H246418   6.267   4.302   6.171  0.2141  1.8562 -0.1594
 8335TIP3   OH246419   2.131   1.171  11.434  0.1877 -0.5511  0.0796
 8335TIP3    H146420   2.066   1.177  11.363 -0.1185 -1.3697  0.2873
 8335TIP3    H246421   2.180   1.091  11.415  0.5958 -0.3745  0.3870
 8336TIP3   OH246422   0.798   2.497   4.397  0.0775 -0.1035 -0.4762
 8336TIP3    H146423   0.825   2.488   4.488 -0.2875  0.7326 -0.2687
 8336TIP3    H246424   0.848   2.572   4.365 -1.1948  0.8282 -0.3836
 8337TIP3   OH246425   3.293   2.221  11.343 -0.0614  0.6051  0.2108
 8337TIP3    H146426   3.360   2.289  11.333 -0.1360  0.6158 -0.2458
 8337TIP3    H246427   3.328   2.145  11.297 -0.6249  0.8045 -0.5549
 8338TIP3   OH246428   6.303   1.263  14.887 -0.1520  0.5543  0.0559
 8338TIP3    H146429   6.299   1.351  14.848 -0.8646 -0.0567 -1.3098
 8338TIP3    H246430   6.381   1.223  14.849  0.6072  0.8382  1.2654
 8339TIP3   OH246431   1.067   0.877  14.680 -0.4456  0.6103  0.1624
 8339TIP3    H146432   1.101   0.949  14.627 -0.0974  2.6140  2.8746
 8339TIP3    H246433   1.143   0.821  14.696 -0.5452  0.0064 -1.2921
 8340TIP3   OH246434   1.716   4.319   0.925  0.2638 -0.4904  0.7147
 8340TIP3    H146435   1.761   4.322   1.010  0.7801  1.8608  0.4499
 8340TIP3    H246436   1.786   4.304   0.862  0.3051  0.4519  0.5192
 8341TIP3   OH246437   4.743   2.485  16.065 -0.2116 -0.6534 -0.8233
 8341TIP3    H146438   4.732   2.580  16.073 -0.8755 -0.6598 -1.4741
 8341TIP3    H246439   4.655   2.450  16.079 -0.0701 -1.1257 -1.0910
 8342TIP3   OH246440   2.413   3.628   5.032  0.0224 -0.1592  0.0316
 8342TIP3    H146441   2.422   3.546   5.082 -1.2100 -1.3861 -1.6342
 8342TIP3    H246442   2.502   3.659   5.020  0.5946 -1.6620  0.1001
 8343TIP3   OH246443   3.050   3.901  14.000 -0.7273  0.3490  0.2699
 8343TIP3    H146444   2.998   3.935  14.073 -0.2652  0.4352  0.5702
 8343TIP3    H246445   3.140   3.924  14.023 -0.5557  0.1964 -0.2334
 8344TIP3   OH246446   5.430   2.898   5.583 -0.2492  0.0205  0.5006
 8344TIP3    H146447   5.373   2.820   5.582  1.4632 -1.2977 -0.3951
 8344TIP3    H246448   5.389   2.957   5.646 -3.5986 -0.0676 -1.3858
 8345TIP3   OH246449   4.583   6.527   2.912  0.2471  0.0145  0.3393
 8345TIP3    H146450   4.649   6.510   2.979  1.0058  1.6238  0.0435
 8345TIP3    H246451   4.569   6.442   2.871 -2.2480 -1.7082  4.1949
 8346TIP3   OH246452   0.133   5.594  16.305  0.2232  0.0074  0.2954
 8346TIP3    H146453   0.090   5.661  16.251  1.4917 -0.9945 -2.0840
 8346TIP3    H246454   0.062   5.554  16.355 -1.3191 -0.1044 -1.8611
 8347TIP3   OH246455   0.798   2.868  12.169  0.2094 -0.2453  0.0132
 8347TIP3    H146456   0.858   2.817  12.224 -1.2433 -0.2555  1.6637
 8347TIP3    H246457   0.847   2.947  12.147  0.6823 -0.0248  1.7239
 8348TIP3   OH246458   3.886   3.885  11.973 -0.6740  0.0973  0.5720
 8348TIP3    H146459   3.937   3.832  12.035 -0.0555  0.9555  0.8142
 8348TIP3    H246460   3.925   3.973  11.979 -0.2835  0.1042 -1.3723
 8349TIP3   OH246461   2.239   6.231   6.528 -0.0478  0.3184 -0.1202
 8349TIP3    H146462   2.265   6.266   6.614  1.3458 -0.4047 -0.2235
 8349TIP3    H246463   2.233   6.308   6.472  1.3051  0.5862  0.0760
 8350TIP3   OH246464   0.320   6.027  15.440 -0.2659 -0.5570  0.3227
 8350TIP3    H146465   0.318   6.030  15.536 -0.1264 -1.5451  0.3653
 8350TIP3    H246466   0.326   5.934  15.419 -0.7219 -0.3727 -0.6639
 8351TIP3   OH246467   0.252   6.353   4.174 -0.1798 -0.4452 -0.2299
 8351TIP3    H146468   0.329   6.402   4.146  2.1059 -3.4217  0.2739
 8351TIP3    H246469   0.280   6.307   4.254 -1.5382 -3.6674 -1.4161
 8352TIP3   OH246470   3.724   0.270  14.895  0.0113 -0.1757  0.2657
 8352TIP3    H146471   3.768   0.231  14.820  0.4766  0.1873  0.3442
 8352TIP3    H246472   3.772   0.237  14.971 -0.1180 -0.1128  0.3771
 8353TIP3   OH246473   0.367   0.666  11.979 -0.1151 -0.1226 -0.8805
 8353TIP3    H146474   0.403   0.676  11.891  0.0738  0.9722 -0.6890
 8353TIP3    H246475   0.434   0.617  12.027  1.8022  2.9328 -0.1771
 8354TIP3   OH246476   4.931   3.620   0.734 -0.0274 -0.3325 -0.0348
 8354TIP3    H146477   4.954   3.670   0.812  0.1324  0.2670 -0.4616
 8354TIP3    H246478   4.863   3.671   0.691  1.2724  0.3790 -1.3375
 8355TIP3   OH246479   6.065   3.793   4.418 -0.4820 -0.2268  0.0232
 8355TIP3    H146480   6.094   3.787   4.509  0.5026  0.2344 -0.2516
 8355TIP3    H246481   6.146   3.794   4.367 -0.9530  1.2563 -0.7490
 8356TIP3   OH246482   5.172   6.323  15.784  0.4041 -0.3412 -0.0946
 8356TIP3    H146483   5.259   6.359  15.799  0.6202 -0.6230 -0.6282
 8356TIP3    H246484   5.134   6.314  15.871  0.6851  0.3266  0.1034
 8357TIP3   OH246485   1.362   5.736  16.447  0.0643 -0.6710 -0.1741
 8357TIP3    H146486   1.332   5.811  16.396  1.0076 -0.2958 -0.2113
 8357TIP3    H246487   1.295   5.724  16.514  0.1185  0.5180  0.1214
 8358TIP3   OH246488   6.299   3.189  14.313  0.3690 -0.4627  0.3313
 8358TIP3    H146489   6.376   3.233  14.349  0.6406  0.0087 -0.7701
 8358TIP3    H246490   6.254   3.257  14.263 -0.2244 -0.9828  0.1519
 8359TIP3   OH246491   4.698   4.990  12.468  0.1573 -0.1627  0.0221
 8359TIP3    H146492   4.664   4.901  12.470  1.6272 -0.7646 -0.2399
 8359TIP3    H246493   4.624   5.044  12.440 -1.2667 -1.0285  1.8587
 8360TIP3   OH246494   2.680   2.344   4.354  0.1369 -0.5787 -0.0939
 8360TIP3    H146495   2.745   2.341   4.284 -1.2257 -1.3994 -1.3870
 8360TIP3    H246496   2.672   2.253   4.383 -0.6099 -0.5346 -0.1385
 8361TIP3   OH246497   1.942   2.995  15.589  0.0046 -0.6439  0.3376
 8361TIP3    H146498   1.922   3.067  15.650  2.6160 -1.5583  2.4899
 8361TIP3    H246499   2.005   3.033  15.527  0.2730 -0.6790  0.5848
 8362TIP3   OH246500   2.258   0.015  12.139 -0.6191 -0.0704  0.0489
 8362TIP3    H146501   2.193  -0.046  12.172  0.2149 -0.3839  1.1663
 8362TIP3    H246502   2.337  -0.038  12.127  0.3932  0.8982  1.9022
 8363TIP3   OH246503   2.964   1.375  14.082 -0.3116 -0.1878  0.6846
 8363TIP3    H146504   2.932   1.360  14.171 -1.5092 -0.2636  0.2500
 8363TIP3    H246505   2.905   1.441  14.045 -0.6263 -1.0923 -0.4845
 8364TIP3   OH246506   5.565   5.727  12.168 -0.1061 -0.1980 -0.4585
 8364TIP3    H146507   5.589   5.743  12.077 -0.4956 -1.3612 -0.7812
 8364TIP3    H246508   5.622   5.785  12.218  1.2601 -0.7010 -1.3678
 8365TIP3   OH246509   1.171   4.486   2.125  0.1991 -0.9778  0.3079
 8365TIP3    H146510   1.142   4.439   2.047  0.7428 -1.3715  0.3361
 8365TIP3    H246511   1.261   4.455   2.140  0.9867  0.8974 -0.2963
 8366TIP3   OH246512   4.654   5.564   4.620 -0.3413  0.3095  0.5756
 8366TIP3    H146513   4.656   5.562   4.524 -0.0161 -2.4348  0.5475
 8366TIP3    H246514   4.713   5.635   4.644 -1.2204  1.7348 -1.2346
 8367TIP3   OH246515   1.368   0.418  13.026 -0.4672  0.4160 -0.6427
 8367TIP3    H146516   1.359   0.513  13.033 -0.9198  0.4330 -1.2651
 8367TIP3    H246517   1.290   0.391  12.977  0.0680 -0.1810 -1.1773
 8368TIP3   OH246518   0.499   3.742   0.070  0.7488  0.5678  0.7445
 8368TIP3    H146519   0.589   3.713   0.080  0.2322 -1.3252  0.3215
 8368TIP3    H246520   0.485   3.747  -0.025  1.1229  3.4505  0.7310
 8369TIP3   OH246521   1.865   3.008  15.062 -0.0589 -0.4015  0.3950
 8369TIP3    H146522   1.795   2.974  15.006 -0.6518  1.2267  0.0855
 8369TIP3    H246523   1.945   2.973  15.024 -0.3565  1.3731 -2.1413
 8370TIP3   OH246524   0.823   4.865   1.508 -0.5888  0.0549  0.0330
 8370TIP3    H146525   0.783   4.832   1.427 -1.6054 -0.8491  0.8652
 8370TIP3    H246526   0.846   4.786   1.556  0.5568  0.5894  0.3821
 8371TIP3   OH246527   0.978   0.818  14.306 -0.0387 -0.3172  0.1830
 8371TIP3    H146528   0.900   0.785  14.261 -1.4798  2.7328  0.1890
 8371TIP3    H246529   1.007   0.745  14.361 -2.1627 -1.9591 -0.7434
 8372TIP3   OH246530   4.821   1.353   2.871  0.5029 -0.0086  0.2748
 8372TIP3    H146531   4.843   1.412   2.799 -0.2037  0.1815  0.1997
 8372TIP3    H246532   4.781   1.410   2.937  0.3480 -0.3144  0.4488
 8373TIP3   OH246533   2.417   0.485  16.461 -0.0503 -0.1365  0.1386
 8373TIP3    H146534   2.423   0.563  16.516 -0.1389 -1.3241  1.9357
 8373TIP3    H246535   2.452   0.512  16.377 -0.6618  2.0015  0.5010
 8374TIP3   OH246536   2.099   4.170   3.044  0.2141  0.7196  0.0434
 8374TIP3    H146537   2.102   4.243   2.983  1.5905 -0.9026 -1.9713
 8374TIP3    H246538   2.191   4.145   3.057 -0.1243  0.1863  1.8078
 8375TIP3   OH246539   4.504   4.479   0.530 -0.1615  0.1629  0.0537
 8375TIP3    H146540   4.481   4.525   0.611  1.4279  1.6080 -0.2725
 8375TIP3    H246541   4.596   4.501   0.515 -0.3195 -0.3858 -1.9527
 8376TIP3   OH246542   4.183   1.634  16.208 -0.3038 -0.0941  0.7679
 8376TIP3    H146543   4.124   1.633  16.133  1.5788  0.3283 -0.7849
 8376TIP3    H246544   4.182   1.724  16.239  0.0583  0.0779  0.2886
 8377TIP3   OH246545   3.525   4.726  13.444 -0.9685 -0.7158 -0.1601
 8377TIP3    H146546   3.515   4.796  13.380 -0.9349  0.5211  1.1249
 8377TIP3    H246547   3.468   4.655  13.412 -2.1903  0.4736 -0.7310
 8378TIP3   OH246548   1.160   1.012   6.246 -0.0309 -0.3411 -0.0685
 8378TIP3    H146549   1.189   1.079   6.308  1.5950 -2.4554  1.6618
 8378TIP3    H246550   1.242   0.972   6.214 -0.9018 -0.6238 -2.0934
 8379TIP3   OH246551   2.794   2.696   1.252 -0.0619  0.0403  0.7492
 8379TIP3    H146552   2.814   2.778   1.298 -0.5658  0.9353 -0.5711
 8379TIP3    H246553   2.705   2.708   1.219 -0.0686 -0.9701  0.3719
 8380TIP3   OH246554   2.298   6.249   5.835 -0.5869 -0.2658 -0.3519
 8380TIP3    H146555   2.349   6.194   5.895 -0.0553  0.8189  0.2129
 8380TIP3    H246556   2.320   6.339   5.859 -0.9686  0.2099 -1.6591
 8381TIP3   OH246557   2.693   4.847   1.363  0.4030 -0.2452 -0.7759
 8381TIP3    H146558   2.610   4.881   1.330 -0.4288 -0.4901  0.9741
 8381TIP3    H246559   2.749   4.924   1.373 -0.1585  0.1167 -0.4313
 8382TIP3   OH246560   1.648   4.906  11.428  0.0970 -0.9055 -0.6428
 8382TIP3    H146561   1.669   4.863  11.511  1.2297  0.9490  0.0920
 8382TIP3    H246562   1.563   4.947  11.444  1.1113  0.9882  0.3281
 8383TIP3   OH246563   4.086   6.595   2.290 -0.0346 -0.6568 -0.0687
 8383TIP3    H146564   3.997   6.562   2.296 -0.7452  0.8332 -1.4929
 8383TIP3    H246565   4.108   6.586   2.197  0.9236 -0.1125  0.0942
 8384TIP3   OH246566   4.017   2.535   0.314  0.1142 -0.4972  0.2227
 8384TIP3    H146567   4.023   2.440   0.303  0.0666 -0.3885 -0.8347
 8384TIP3    H246568   3.924   2.554   0.307 -0.1578 -0.6146  2.7709
 8385TIP3   OH246569   1.914   1.795   0.107  0.1882  0.5737 -0.3187
 8385TIP3    H146570   1.943   1.740   0.180 -2.0688  1.3582  1.3051
 8385TIP3    H246571   1.937   1.884   0.134  0.1220  0.7990 -0.9853
 8386TIP3   OH246572   4.593   4.861   0.960 -0.4410  0.5080  0.5110
 8386TIP3    H146573   4.540   4.937   0.986 -0.8938 -0.1970  1.7331
 8386TIP3    H246574   4.677   4.874   1.004  0.3808  1.5009 -1.2325
 8387TIP3   OH246575   0.574   2.345   4.805 -0.0019 -0.4876  0.0589
 8387TIP3    H146576   0.483   2.373   4.797  0.3508  0.4672 -0.8857
 8387TIP3    H246577   0.616   2.413   4.858  0.0174 -1.3117  1.1394
 8388TIP3   OH246578   5.971   4.239   0.630 -0.0303 -0.0087 -0.1227
 8388TIP3    H146579   5.921   4.255   0.550  0.4058 -2.1063 -0.8740
 8388TIP3    H246580   6.047   4.188   0.602  1.5064  1.3530  1.2897
 8389TIP3   OH246581   0.511   0.101  15.988 -0.1025  0.0055  0.2236
 8389TIP3    H146582   0.566   0.032  16.027  0.8888 -0.0856 -1.2510
 8389TIP3    H246583   0.511   0.171  16.053 -0.5212 -1.0713  1.4336
 8390TIP3   OH246584   5.550   3.224   4.005 -0.3856  0.0078  0.0403
 8390TIP3    H146585   5.572   3.281   3.931 -1.0092 -1.0839 -1.0354
 8390TIP3    H246586   5.631   3.178   4.025 -0.2253  0.2702  0.0036
 8391TIP3   OH246587   5.525   4.194   4.563 -0.4191  0.0291  0.8398
 8391TIP3    H146588   5.526   4.277   4.611  0.7996  0.7060 -0.2884
 8391TIP3    H246589   5.584   4.137   4.612  2.3921  1.3436 -0.8005
 8392TIP3   OH246590   3.587   1.499  10.191 -0.2658  0.2475  0.0765
 8392TIP3    H146591   3.633   1.561  10.248 -0.8998  1.2912 -0.4999
 8392TIP3    H246592   3.604   1.413  10.229  0.3479  0.8088  1.1099
 8393TIP3   OH246593   1.694   5.087  10.851  0.0995  0.1478 -0.6155
 8393TIP3    H146594   1.695   5.182  10.840 -1.7167  0.3534  0.5600
 8393TIP3    H246595   1.638   5.056  10.781  1.6700 -0.2255 -1.7561
 8394TIP3   OH246596   3.084   4.162   5.646 -0.1364 -0.5373  0.3419
 8394TIP3    H146597   3.048   4.220   5.714  0.9101  0.0001  0.4473
 8394TIP3    H246598   3.130   4.220   5.586  0.0475 -1.1557 -0.1289
 8395TIP3   OH246599   6.144   5.428  15.368 -0.5444  0.4543 -0.3531
 8395TIP3    H146600   6.186   5.352  15.329 -1.1538  1.3755 -2.9779
 8395TIP3    H246601   6.069   5.392  15.417 -0.6020 -0.6629 -1.2383
 8396TIP3   OH246602   6.100   6.582   0.343 -0.5301  0.7349  0.5498
 8396TIP3    H146603   6.075   6.635   0.419 -0.8491 -1.8946  2.4027
 8396TIP3    H246604   6.035   6.511   0.341  1.0263 -0.7241 -0.5809
 8397TIP3   OH246605   3.268   4.613   3.326  0.0028 -1.1517 -0.1107
 8397TIP3    H146606   3.313   4.650   3.402  0.7371 -0.9650 -0.6200
 8397TIP3    H246607   3.180   4.594   3.356  0.5231 -1.8431  1.0282
 8398TIP3   OH246608   1.507   6.275   2.748 -0.1653 -0.3865 -0.3123
 8398TIP3    H146609   1.513   6.206   2.681  1.1141 -0.4115 -0.1981
 8398TIP3    H246610   1.416   6.272   2.777 -0.2027 -1.8655 -0.4835
 8399TIP3   OH246611   2.431   0.935  12.928 -0.0298  0.3154 -0.0173
 8399TIP3    H146612   2.409   1.005  12.990  1.4008  0.0368  0.8616
 8399TIP3    H246613   2.509   0.966  12.883  0.0419 -0.2959 -0.3253
 8400TIP3   OH246614   0.939   4.562  12.927 -0.0696  0.1785 -0.2771
 8400TIP3    H146615   0.938   4.652  12.895 -1.2416  0.7158  1.1491
 8400TIP3    H246616   1.018   4.557  12.981  0.2468  0.2087 -0.7338
 8401TIP3   OH246617   4.372   1.001  16.940  0.3584  1.0619 -0.2701
 8401TIP3    H146618   4.323   0.930  16.898 -0.6584  1.0690  0.8438
 8401TIP3    H246619   4.390   0.969  17.028  1.4003  1.5244 -0.2924
 8402TIP3   OH246620   5.763   3.351  15.024 -0.3003  0.0705  0.2600
 8402TIP3    H146621   5.764   3.436  14.981 -1.2865 -0.2452 -0.4117
 8402TIP3    H246622   5.700   3.361  15.095 -1.1544 -0.3602 -0.4146
 8403TIP3   OH246623   2.431   1.914   3.768  0.3738  0.2552  0.2342
 8403TIP3    H146624   2.484   1.850   3.816  1.0228  0.6653  0.0723
 8403TIP3    H246625   2.347   1.916   3.815  0.1760 -1.0459 -0.0270
 8404TIP3   OH246626   3.725   2.241  16.187  0.4721  0.8101  0.2186
 8404TIP3    H146627   3.794   2.270  16.248  0.9565 -0.9871  0.5712
 8404TIP3    H246628   3.768   2.238  16.102  0.3081  1.4933  0.1060
 8405TIP3   OH246629   4.005   1.664  13.122 -0.4873  0.2945 -0.4398
 8405TIP3    H146630   3.950   1.678  13.199  0.9195 -0.9100  0.8394
 8405TIP3    H246631   4.055   1.585  13.141 -1.1117 -0.8969 -3.2326
 8406TIP3   OH246632   1.928   5.244   1.872  0.5201 -0.3284  0.0131
 8406TIP3    H146633   1.992   5.179   1.900  0.6528 -0.1629  0.0918
 8406TIP3    H246634   1.950   5.323   1.922  0.2219 -0.2876  0.0826
 8407TIP3   OH246635   3.600   5.254   3.827  0.1573  0.3428  0.4582
 8407TIP3    H146636   3.514   5.214   3.838  0.0754  0.1495 -0.7891
 8407TIP3    H246637   3.586   5.347   3.847 -0.4435  0.3985 -0.2087
 8408TIP3   OH246638   6.650   2.746   2.616  0.3053  0.1711 -0.2826
 8408TIP3    H146639   6.573   2.801   2.605 -0.3389 -0.7185 -0.3095
 8408TIP3    H246640   6.723   2.808   2.624 -0.6504  1.1081  1.9425
 8409TIP3   OH246641   2.304   0.745   0.765  0.2124 -0.7399 -0.2001
 8409TIP3    H146642   2.319   0.712   0.677  1.3831 -1.2968  0.1909
 8409TIP3    H246643   2.209   0.760   0.769 -0.2014 -2.8146 -0.8253
 8410TIP3   OH246644   0.081   0.220   5.208  0.2466 -0.2035 -0.1689
 8410TIP3    H146645  -0.009   0.253   5.219 -0.4834 -1.9131 -0.7293
 8410TIP3    H246646   0.070   0.130   5.179  2.1721 -0.2587 -0.8338
 8411TIP3   OH246647   6.625   5.325   0.491 -0.0351 -0.0691  0.2353
 8411TIP3    H146648   6.543   5.366   0.461 -0.6094 -2.8074 -2.4345
 8411TIP3    H246649   6.598   5.262   0.557  0.0309 -0.3844 -0.0386
 8412TIP3   OH246650   3.960   5.683   5.284  0.2318  0.1583 -0.7498
 8412TIP3    H146651   3.875   5.694   5.326  1.4738  0.8428  1.8497
 8412TIP3    H246652   3.999   5.608   5.328  1.6330  0.9222 -0.6009
 8413TIP3   OH246653   5.846   3.163   3.828 -0.4554 -0.2585 -0.0321
 8413TIP3    H146654   5.889   3.226   3.886  0.3257 -0.3524 -0.4907
 8413TIP3    H246655   5.838   3.210   3.745 -0.5773 -0.4995 -0.1543
 8414TIP3   OH246656   1.924   1.204   5.667 -0.1755  0.7384  0.2111
 8414TIP3    H146657   1.899   1.287   5.625  2.1011  1.0265 -0.6906
 8414TIP3    H246658   1.949   1.229   5.756 -3.2020  0.3861  1.2879
 8415TIP3   OH246659   3.764   1.886   1.937  0.3504  0.6471 -0.3718
 8415TIP3    H146660   3.751   1.794   1.914  0.4502  0.5783 -0.1587
 8415TIP3    H246661   3.858   1.900   1.925  0.2232  0.9166 -1.1013
 8416TIP3   OH246662   5.046   0.014   4.610 -0.3458 -0.0955  0.2982
 8416TIP3    H146663   5.085  -0.063   4.653  1.9177  1.1502  0.6214
 8416TIP3    H246664   5.114   0.044   4.550 -1.3803  1.3959 -0.1617
 8417TIP3   OH246665   4.695   3.852   3.474  0.0726  0.0304  0.3188
 8417TIP3    H146666   4.669   3.843   3.382 -1.3343  0.3257  0.6593
 8417TIP3    H246667   4.660   3.774   3.516 -1.4158  1.0340  1.0240
 8418TIP3   OH246668   0.795   5.614   5.620 -0.4773  0.2053  0.2671
 8418TIP3    H146669   0.805   5.568   5.703 -2.2824 -1.7831 -0.5257
 8418TIP3    H246670   0.822   5.550   5.554  0.1982  1.4896 -0.7473
 8419TIP3   OH246671   6.743   3.112   0.857 -0.1193 -0.0426  0.5226
 8419TIP3    H146672   6.729   3.158   0.940  0.4691  0.5052  0.3228
 8419TIP3    H246673   6.790   3.174   0.802  1.5656 -1.1854  0.5827
 8420TIP3   OH246674   5.691   1.781   4.511  0.0548 -0.4220  0.1216
 8420TIP3    H146675   5.656   1.694   4.492 -1.4266  0.0540  0.5238
 8420TIP3    H246676   5.615   1.838   4.509  0.6566  0.5240  2.0430
 8421TIP3   OH246677   6.537   2.950  14.610  0.6039 -0.7614 -0.1601
 8421TIP3    H146678   6.454   2.960  14.564 -0.5578 -2.6555  1.3890
 8421TIP3    H246679   6.515   2.961  14.703  1.6845 -2.9842  0.4341
 8422TIP3   OH246680   4.936   3.506   4.479 -0.4435  0.1652  0.1080
 8422TIP3    H146681   4.882   3.434   4.447  0.2866 -0.6512  0.6481
 8422TIP3    H246682   4.873   3.573   4.506 -1.2112 -0.8647  0.9852
 8423TIP3   OH246683   3.641   4.432  16.120  0.1048  0.1787  0.3753
 8423TIP3    H146684   3.736   4.444  16.120  0.0762  0.5297  1.5867
 8423TIP3    H246685   3.628   4.341  16.148  0.1014 -0.3923 -1.3459
 8424TIP3   OH246686   1.685   6.646   2.987  0.3778  0.5652  0.6899
 8424TIP3    H146687   1.640   6.615   2.908 -0.3250  2.0713  0.4671
 8424TIP3    H246688   1.636   6.607   3.059  1.1303 -0.9691  0.4126
 8425TIP3   OH246689   4.493   0.394  11.084 -0.6687  0.0045 -0.3937
 8425TIP3    H146690   4.532   0.463  11.138 -1.5087  0.3009 -0.1564
 8425TIP3    H246691   4.560   0.326  11.079 -1.3483 -1.0624  2.8700
 8426TIP3   OH246692   4.836   1.829   2.046  0.1498  0.0758  0.2683
 8426TIP3    H146693   4.847   1.884   2.123 -1.0038  1.1478 -0.2912
 8426TIP3    H246694   4.908   1.855   1.988  0.3092  0.1378  0.4904
 8427TIP3   OH246695   2.880   4.827   3.751  0.6492 -0.3693 -0.1968
 8427TIP3    H146696   2.805   4.792   3.801  1.3380 -0.5444  0.7474
 8427TIP3    H246697   2.930   4.749   3.726  1.7266 -0.1549  1.1647
 8428TIP3   OH246698   1.205   5.635  16.197 -0.3345 -0.4871 -0.3126
 8428TIP3    H146699   1.116   5.643  16.164  0.0667  1.0903 -1.1114
 8428TIP3    H246700   1.197   5.639  16.292 -1.0881 -0.0533 -0.3930
 8429TIP3   OH246701   3.016   5.496   0.160 -0.0230 -0.0156  0.6363
 8429TIP3    H146702   3.001   5.449   0.242 -0.6815  1.1616  1.2249
 8429TIP3    H246703   2.931   5.533   0.138  0.5804  1.3877  0.5403
 8430TIP3   OH246704   0.046   3.184  12.731 -0.1457  0.1430 -0.0600
 8430TIP3    H146705   0.074   3.257  12.786 -1.4128  1.3742 -0.9798
 8430TIP3    H246706   0.064   3.212  12.642 -0.6465 -0.6791 -0.4373
 8431TIP3   OH246707   5.414   5.389   4.550  0.1183 -0.1964 -0.2694
 8431TIP3    H146708   5.380   5.463   4.499 -1.5141 -0.5353  0.2755
 8431TIP3    H246709   5.464   5.339   4.486  1.7352  1.6302 -0.5346
 8432TIP3   OH246710   0.218   5.934  10.702  0.9223  0.1646 -0.4771
 8432TIP3    H146711   0.270   5.898  10.629  0.5698  0.9377 -1.1275
 8432TIP3    H246712   0.246   6.025  10.708 -1.8062  1.2699 -2.2776
 8433TIP3   OH246713   1.121   0.106  13.054  0.0584 -0.1170 -0.4905
 8433TIP3    H146714   1.116   0.027  13.107  0.7587 -1.3256 -2.1488
 8433TIP3    H246715   1.043   0.104  12.999  1.4584 -1.2837 -2.6013
 8434TIP3   OH246716   4.819   5.153   4.097 -0.1442  0.1517  0.1886
 8434TIP3    H146717   4.783   5.235   4.064  0.1367 -0.7273 -2.5513
 8434TIP3    H246718   4.899   5.140   4.047  1.3530 -0.4476  2.5845
 8435TIP3   OH246719   0.754   1.227  11.017 -0.0624  0.1412 -0.4962
 8435TIP3    H146720   0.731   1.160  10.953 -0.4976  1.7585 -2.1213
 8435TIP3    H246721   0.675   1.240  11.069 -0.4085  0.3397 -1.0711
 8436TIP3   OH246722   4.880   6.610  14.431 -0.2067  0.6088 -0.1374
 8436TIP3    H146723   4.930   6.555  14.491 -1.3015 -2.0926 -1.5031
 8436TIP3    H246724   4.816   6.655  14.486  1.3878  1.4076  1.1612
 8437TIP3   OH246725   6.703   2.367   4.602 -0.0570  0.3044  0.0796
 8437TIP3    H146726   6.671   2.311   4.673 -1.6489 -0.7758 -1.3960
 8437TIP3    H246727   6.641   2.439   4.598 -0.9139 -0.4572 -1.1613
 8438TIP3   OH246728   5.439   3.301   0.820 -0.7378  0.0783 -0.5295
 8438TIP3    H146729   5.507   3.261   0.875  0.2058  0.2924 -1.5079
 8438TIP3    H246730   5.384   3.228   0.792 -0.1033 -0.2918 -0.8238
 8439TIP3   OH246731   5.071   3.060  16.767 -0.0321  0.6337 -0.3273
 8439TIP3    H146732   5.099   2.969  16.762 -1.9451 -0.0275  0.2541
 8439TIP3    H246733   4.977   3.056  16.781 -0.2530  2.7229 -0.8719
 8440TIP3   OH246734   1.029   5.535  13.658  0.2163  0.2402  0.3562
 8440TIP3    H146735   1.030   5.527  13.754  1.2903  0.7002  0.3929
 8440TIP3    H246736   0.948   5.491  13.632  0.3386 -0.6659  1.4090
 8441TIP3   OH246737   2.300   6.175  13.524  0.3981  0.0877 -0.7034
 8441TIP3    H146738   2.334   6.090  13.552 -1.4318 -0.7931 -1.0406
 8441TIP3    H246739   2.375   6.218  13.483  1.3429 -1.3853 -0.5858
 8442TIP3   OH246740   2.383   4.206   3.068 -0.0096 -0.0401 -0.2873
 8442TIP3    H146741   2.399   4.288   3.021  0.0443 -0.6775 -1.4092
 8442TIP3    H246742   2.403   4.227   3.159  0.6714  1.0087 -0.6549
 8443TIP3   OH246743   4.143   1.431   1.863  0.2489  0.4616  0.7640
 8443TIP3    H146744   4.228   1.417   1.905  0.6134  2.2144  0.7031
 8443TIP3    H246745   4.083   1.447   1.936  0.2423  0.4495  0.7609
 8444TIP3   OH246746   4.586   3.374  16.476  0.3438 -0.6605  0.1159
 8444TIP3    H146747   4.608   3.464  16.499 -0.4685 -1.0715  2.8618
 8444TIP3    H246748   4.539   3.381  16.393  0.7626  1.3557 -0.0041
 8445TIP3   OH246749   0.891   1.793   3.670  0.5079  0.0154 -0.1590
 8445TIP3    H146750   0.959   1.859   3.656  0.9143 -0.4552 -0.4631
 8445TIP3    H246751   0.932   1.729   3.729 -0.9082  1.5641  2.7416
 8446TIP3   OH246752   6.006   4.252  12.363  0.2764 -0.8599  0.6072
 8446TIP3    H146753   6.008   4.278  12.455  0.9511  0.0006  0.3595
 8446TIP3    H246754   5.978   4.161  12.365  0.7103 -0.9856  1.6940
 8447TIP3   OH246755   5.538   6.792   3.286  0.6398 -0.3187 -0.2377
 8447TIP3    H146756   5.456   6.745   3.271 -0.3118  1.3365 -0.4726
 8447TIP3    H246757   5.531   6.824   3.376  0.4743  0.8165 -0.6380
 8448TIP3   OH246758   6.377   5.827  11.791 -0.0347  0.7240 -0.2410
 8448TIP3    H146759   6.378   5.923  11.798 -2.2629  0.7003  1.9048
 8448TIP3    H246760   6.327   5.810  11.711  1.6515  1.2807 -1.4718
 8449TIP3   OH246761   1.153   3.456  14.278  0.3407  0.1573 -0.3686
 8449TIP3    H146762   1.096   3.425  14.348 -0.4532  1.1735 -0.5478
 8449TIP3    H246763   1.241   3.450  14.315 -0.0349  0.3215  0.5755
 8450TIP3   OH246764   6.326   0.741   3.706 -0.6367 -0.3570  0.3702
 8450TIP3    H146765   6.387   0.744   3.779  0.3206 -0.4709 -0.4018
 8450TIP3    H246766   6.347   0.819   3.654 -1.3237 -0.2628  0.2280
 8451TIP3   OH246767   2.427   3.605  15.353 -0.0439 -0.1969  0.5077
 8451TIP3    H146768   2.427   3.697  15.378 -0.9527  0.3732 -1.3884
 8451TIP3    H246769   2.507   3.594  15.302 -2.0357  0.8530 -3.2480
 8452TIP3   OH246770   4.369   1.862   4.430 -0.0402  0.0614 -0.3672
 8452TIP3    H146771   4.363   1.864   4.334 -0.2584  1.0684 -0.3434
 8452TIP3    H246772   4.340   1.948   4.457 -1.1457 -0.6076  0.6789
 8453TIP3   OH246773   4.076   0.828  13.315  0.1211 -0.2310 -0.8254
 8453TIP3    H146774   4.098   0.921  13.326 -0.4039 -0.0929 -0.8997
 8453TIP3    H246775   4.103   0.808  13.225  1.7167 -0.5872 -0.3026
 8454TIP3   OH246776   4.984   2.074   1.688 -0.0966 -0.3672 -0.3455
 8454TIP3    H146777   4.912   2.023   1.649 -2.7710  1.3956  1.9061
 8454TIP3    H246778   5.003   2.029   1.770 -0.7777  0.7994  0.4838
 8455TIP3   OH246779   2.971   1.932   0.999 -0.8574  0.0839 -0.5485
 8455TIP3    H146780   3.003   1.845   1.022 -2.3776 -0.3269  0.1846
 8455TIP3    H246781   2.912   1.956   1.071 -0.5383  1.6861 -0.7820
 8456TIP3   OH246782   5.986   4.711  10.764  0.1229  0.4565 -0.0787
 8456TIP3    H146783   6.055   4.677  10.707  0.1145  1.5741 -0.8039
 8456TIP3    H246784   5.927   4.757  10.704 -0.3137  0.9914  0.7454
 8457TIP3   OH246785   2.439   0.500  12.783  0.1893  0.5622 -0.5249
 8457TIP3    H146786   2.348   0.470  12.780 -0.0012  1.1578 -1.2105
 8457TIP3    H246787   2.491   0.420  12.777 -0.2988  0.3582 -2.8544
 8458TIP3   OH246788   1.786   1.974   2.030 -0.5124 -0.5678 -0.5331
 8458TIP3    H146789   1.729   1.898   2.047 -0.2905 -0.2042  2.2669
 8458TIP3    H246790   1.729   2.050   2.043 -0.8488 -0.1232 -3.7404
 8459TIP3   OH246791   3.774   3.995   1.941  0.2890  0.2464  0.3279
 8459TIP3    H146792   3.754   3.991   2.035  1.2534 -1.0141  0.4992
 8459TIP3    H246793   3.753   4.086   1.917 -0.1168  0.5548  1.7162
 8460TIP3   OH246794   6.668   5.434   4.477 -0.2820 -0.4339 -0.7208
 8460TIP3    H146795   6.573   5.435   4.486 -0.2163  0.5876  0.0071
 8460TIP3    H246796   6.690   5.342   4.462 -1.3463 -0.7389 -0.4792
 8461TIP3   OH246797   2.766   5.843  13.509 -0.1166 -0.0114  0.9407
 8461TIP3    H146798   2.677   5.835  13.473 -0.0239  2.3186  0.0074
 8461TIP3    H246799   2.779   5.762  13.557 -2.2382 -1.0320 -0.0255
 8462TIP3   OH246800   1.387   2.030  13.732 -0.1239 -0.4990  0.3628
 8462TIP3    H146801   1.312   1.979  13.700 -0.3798 -0.7373  1.3266
 8462TIP3    H246802   1.369   2.119  13.702 -0.3826 -0.7001 -0.1069
 8463TIP3   OH246803   4.592   2.446   6.394  0.0641 -0.3011 -0.0626
 8463TIP3    H146804   4.589   2.371   6.335  0.9321 -0.4019  0.0125
 8463TIP3    H246805   4.550   2.517   6.344 -0.8725 -0.8453 -0.0880
 8464TIP3   OH246806   4.029   0.131   5.398  0.3227  0.4441  0.4281
 8464TIP3    H146807   4.073   0.139   5.313 -1.9986  1.9242 -0.7072
 8464TIP3    H246808   4.077   0.191   5.455  2.3636 -1.0863  0.4627
 8465TIP3   OH246809   5.264   6.608   5.231 -0.2596  0.5319  0.2503
 8465TIP3    H146810   5.235   6.680   5.288 -2.8897  0.8249 -1.2657
 8465TIP3    H246811   5.253   6.643   5.143  0.5344 -1.0184 -0.4827
 8466TIP3   OH246812   2.993   0.943   3.055  0.1569 -0.0191  0.4167
 8466TIP3    H146813   2.978   0.852   3.030  0.6110 -0.0373  0.1861
 8466TIP3    H246814   3.084   0.944   3.087  0.1684  0.3594  0.3778
 8467TIP3   OH246815   0.420   5.663  15.323  0.0051 -0.2989  0.2220
 8467TIP3    H146816   0.510   5.688  15.343 -0.0759  0.7423 -0.6181
 8467TIP3    H246817   0.367   5.705  15.391 -0.1012  1.7006 -1.0059
 8468TIP3   OH246818   5.886   5.728   3.333 -0.1370 -0.3829  0.4323
 8468TIP3    H146819   5.885   5.654   3.272 -0.3330 -1.2086  1.4027
 8468TIP3    H246820   5.977   5.760   3.330 -0.0497 -0.6597 -0.0028
 8469TIP3   OH246821   3.351   3.835   4.674 -0.1638 -0.4941  0.4276
 8469TIP3    H146822   3.438   3.801   4.697 -1.6571 -3.0249  2.9792
 8469TIP3    H246823   3.310   3.765   4.624 -0.5187  1.0556 -1.6060
 8470TIP3   OH246824   1.972   0.106  12.484  0.2935  0.0769  0.4244
 8470TIP3    H146825   1.947   0.028  12.534  1.6627 -1.1145 -0.6481
 8470TIP3    H246826   1.910   0.108  12.411 -0.3192  0.5393  0.9490
 8471TIP3   OH246827   2.086   4.736  16.900 -0.0725  0.0978  0.0045
 8471TIP3    H146828   2.061   4.758  16.810 -4.0792 -0.2998  0.8392
 8471TIP3    H246829   2.033   4.660  16.921  3.1310 -1.8413  1.7800
 8472TIP3   OH246830   1.879   6.038   2.612 -0.3639 -0.0994 -0.0571
 8472TIP3    H146831   1.800   6.056   2.663 -0.4648  1.3319 -0.6789
 8472TIP3    H246832   1.848   5.993   2.534 -0.4820 -0.1744  0.0333
 8473TIP3   OH246833   1.731   1.139   2.712 -0.4789  0.2796  0.0121
 8473TIP3    H146834   1.678   1.178   2.781 -0.9970 -0.2318 -0.0766
 8473TIP3    H246835   1.686   1.163   2.631 -1.5485 -1.5089  0.0154
 8474TIP3   OH246836   5.473   5.749  15.082  0.2134  0.4571 -0.0502
 8474TIP3    H146837   5.453   5.777  15.171  0.2946  0.1180  0.0751
 8474TIP3    H246838   5.515   5.825  15.042 -0.5461  0.8835 -0.0529
 8475TIP3   OH246839   3.765   4.908  15.512  0.0232  0.8930 -0.0151
 8475TIP3    H146840   3.793   5.000  15.508  0.2131  0.8189 -0.4505
 8475TIP3    H246841   3.751   4.883  15.421  0.6513  0.2840  0.0503
 8476TIP3   OH246842   4.024   5.361   3.711  0.0758  0.7806  0.1334
 8476TIP3    H146843   4.076   5.352   3.631 -1.7914  0.8488 -1.1497
 8476TIP3    H246844   3.937   5.329   3.687 -0.3997  0.2671  2.3178
 8477TIP3   OH246845   4.036   1.010   1.152 -0.4347  0.0642 -0.2361
 8477TIP3    H146846   3.965   0.955   1.186 -0.3520  0.0443 -0.0934
 8477TIP3    H246847   4.012   1.099   1.176 -0.9248  0.1754 -1.0879
 8478TIP3   OH246848   1.871   4.337  10.860 -0.8955 -0.1070  0.4728
 8478TIP3    H146849   1.898   4.423  10.892  1.8841  0.0463 -1.8127
 8478TIP3    H246850   1.799   4.355  10.800 -0.3694  0.6909  0.0535
 8479TIP3   OH246851   6.354   2.667  15.064 -0.2396 -0.2006 -0.0403
 8479TIP3    H146852   6.366   2.714  15.146 -0.5598  0.5330 -0.4110
 8479TIP3    H246853   6.261   2.646  15.061 -0.0444 -1.1975  0.2916
 8480TIP3   OH246854   5.667   2.448  11.651  0.2505 -0.1951 -0.3249
 8480TIP3    H146855   5.695   2.498  11.574  2.2659 -0.8744 -0.0926
 8480TIP3    H246856   5.598   2.390  11.619  1.4737 -0.9021 -1.7890
 8481TIP3   OH246857   2.767   0.636   3.822  0.5872  0.3485 -0.2014
 8481TIP3    H146858   2.757   0.559   3.767  2.3655  0.1064 -0.2551
 8481TIP3    H246859   2.788   0.601   3.909 -2.5361  0.7068  0.8132
 8482TIP3   OH246860   3.636   0.645  16.704  0.1960  0.0639 -0.6280
 8482TIP3    H146861   3.653   0.559  16.742 -0.1834  0.2527 -0.0302
 8482TIP3    H246862   3.577   0.628  16.630 -1.4030 -0.0103  0.6138
 8483TIP3   OH246863   6.442   2.123  13.868 -0.0005 -0.5017  0.2388
 8483TIP3    H146864   6.495   2.165  13.937 -0.5226 -0.8088  0.8332
 8483TIP3    H246865   6.360   2.172  13.867 -0.1176 -0.6980  0.0512
 8484TIP3   OH246866   2.242   4.799  16.542 -0.1823 -0.1182 -0.1365
 8484TIP3    H146867   2.165   4.855  16.534  0.5968  1.2096  1.1419
 8484TIP3    H246868   2.285   4.806  16.457 -0.9383 -0.0870 -0.5291
 8485TIP3   OH246869   0.742   2.259   4.276  0.0194  0.1408  0.1330
 8485TIP3    H146870   0.745   2.344   4.320  0.2024  1.5225 -2.3650
 8485TIP3    H246871   0.662   2.261   4.225  0.5066 -0.7860 -0.6986
 8486TIP3   OH246872   4.154   6.486   0.784  0.4000  0.7295  0.0056
 8486TIP3    H146873   4.087   6.418   0.792  3.0648 -2.0929  0.5724
 8486TIP3    H246874   4.135   6.530   0.701 -4.0319  2.5072  1.6821
 8487TIP3   OH246875   4.815   3.855   1.038  0.1112  0.0545  0.2773
 8487TIP3    H146876   4.827   3.942   1.074 -0.3309  1.3073 -2.3518
 8487TIP3    H246877   4.900   3.832   1.000 -0.2280  0.0861 -0.5171
 8488TIP3   OH246878   0.763   5.358  13.998  0.0084 -0.4459  0.0968
 8488TIP3    H146879   0.721   5.369  13.913 -0.6109  0.1121  0.4693
 8488TIP3    H246880   0.712   5.413  14.058  0.0034 -1.3845  0.9749
 8489TIP3   OH246881   5.971   4.180  11.564  0.4005 -0.2152 -0.6277
 8489TIP3    H146882   5.968   4.197  11.659  0.5321 -1.0302 -0.4714
 8489TIP3    H246883   5.880   4.188  11.535  0.5447  1.4833 -0.7070
 8490TIP3   OH246884   5.230   0.465   4.253  0.2760  0.2055  0.1565
 8490TIP3    H146885   5.168   0.430   4.316  0.6040 -0.3959  0.1563
 8490TIP3    H246886   5.291   0.393   4.237  1.1709  0.8928  0.4122
 8491TIP3   OH246887   5.359   2.731  14.388  0.1216 -0.6771  0.3009
 8491TIP3    H146888   5.316   2.645  14.391 -0.8189 -0.2381 -0.2986
 8491TIP3    H246889   5.446   2.715  14.425 -0.2677 -1.7512  0.8069
 8492TIP3   OH246890   5.850   0.865   5.731 -0.7380  0.7192 -0.6009
 8492TIP3    H146891   5.858   0.945   5.783 -0.7789  0.4753 -0.2173
 8492TIP3    H246892   5.908   0.879   5.656  0.3662  0.5346  0.1981
 8493TIP3   OH246893   4.158   5.330   0.711 -0.3541  0.4229  0.1167
 8493TIP3    H146894   4.128   5.322   0.802  0.2222  0.2319  0.2970
 8493TIP3    H246895   4.100   5.395   0.672 -0.4515  0.6838  0.6873
 8494TIP3   OH246896   1.181   6.001  12.370  0.4450 -0.3622  0.3262
 8494TIP3    H146897   1.099   5.972  12.329 -0.9239  1.8269  1.3027
 8494TIP3    H246898   1.246   5.938  12.341 -0.5280  0.4299 -4.4528
 8495TIP3   OH246899   1.600   4.059   2.328 -0.2542 -0.7882  0.1125
 8495TIP3    H146900   1.515   4.017   2.344 -1.0850  1.0755  0.8816
 8495TIP3    H246901   1.651   4.041   2.407 -0.6749 -0.2256  0.5207
 8496TIP3   OH246902   3.854   2.951  14.008  0.1059  0.2753 -0.2644
 8496TIP3    H146903   3.938   2.993  14.027  0.3435  0.0117 -0.7184
 8496TIP3    H246904   3.865   2.912  13.921 -0.4984  0.2630 -0.3391
 8497TIP3   OH246905   0.999   2.284   0.441 -0.4434  0.1022 -0.2499
 8497TIP3    H146906   1.013   2.338   0.363  0.5873  1.7463  1.0079
 8497TIP3    H246907   1.028   2.197   0.416 -0.2251  0.5691 -1.7213
 8498TIP3   OH246908   5.940   0.488  16.314 -0.3344  0.5075 -0.4745
 8498TIP3    H146909   5.897   0.499  16.229 -1.0283  1.8817  0.0089
 8498TIP3    H246910   6.032   0.474  16.293 -0.7760 -1.2585 -1.5001
 8499TIP3   OH246911   4.210   5.476  11.156 -0.5301 -0.0319 -0.1448
 8499TIP3    H146912   4.178   5.387  11.140  0.3926 -0.4869  0.4260
 8499TIP3    H246913   4.304   5.465  11.170 -0.1750  1.2000 -1.3532
 8500TIP3   OH246914   4.661   1.193   4.876 -0.3804  0.1070 -0.6818
 8500TIP3    H146915   4.614   1.204   4.958 -0.8740 -1.5390 -0.7146
 8500TIP3    H246916   4.745   1.237   4.890 -0.5758  0.1065  0.5985
 8501TIP3   OH246917   4.284   4.250   0.714 -0.0347  0.1905  0.0961
 8501TIP3    H146918   4.354   4.232   0.651 -0.8807 -0.0286 -0.8031
 8501TIP3    H246919   4.278   4.170   0.767  2.0240  1.0980  1.8213
 8502TIP3   OH246920   4.919   4.239   0.503 -0.0825  0.5423  0.0029
 8502TIP3    H146921   4.909   4.145   0.495 -2.3728  0.8859 -2.2061
 8502TIP3    H246922   4.878   4.260   0.587  0.0843 -0.3347  0.3166
 8503TIP3   OH246923   5.063   6.504  11.755 -0.0089  0.6948 -0.7118
 8503TIP3    H146924   5.146   6.532  11.717  1.2448 -0.1580  1.2878
 8503TIP3    H246925   5.072   6.409  11.767 -1.4292  0.5162 -0.7930
 8504TIP3   OH246926   3.507   1.366   2.465  0.2036 -0.0003  0.0809
 8504TIP3    H146927   3.449   1.411   2.404 -0.2204  0.9809  1.1539
 8504TIP3    H246928   3.585   1.421   2.470 -0.5800  1.0534  1.8921
 8505TIP3   OH246929   5.300   3.603   5.440 -0.3500  0.2958  0.1403
 8505TIP3    H146930   5.396   3.607   5.443 -0.3651  0.1859  1.0530
 8505TIP3    H246931   5.281   3.512   5.419 -0.2559  0.5237 -1.0217
 8506TIP3   OH246932   5.092   6.632  13.378  0.5201  0.4881 -0.1206
 8506TIP3    H146933   5.067   6.724  13.386 -0.0845  0.2467  1.1818
 8506TIP3    H246934   5.010   6.587  13.355  1.1428  0.4444 -2.4818
 8507TIP3   OH246935   3.175   1.803   1.819  1.1473  0.1256  0.1937
 8507TIP3    H146936   3.117   1.763   1.754 -0.3016 -1.5589  2.3865
 8507TIP3    H246937   3.128   1.796   1.902  1.8832  4.2696  1.2058
 8508TIP3   OH246938   3.028   4.952   4.495 -0.1384  0.2534 -0.0960
 8508TIP3    H146939   2.991   4.952   4.583  1.4060 -1.8185  0.6330
 8508TIP3    H246940   2.992   5.031   4.454 -3.6483 -0.4648  1.1981
 8509TIP3   OH246941   4.483   0.102  12.366  0.4744  0.2070  0.7314
 8509TIP3    H146942   4.545   0.081  12.296  1.5322  0.7824  1.4508
 8509TIP3    H246943   4.409   0.044  12.352  1.4532 -0.9558  0.1962
 8510TIP3   OH246944   3.979   3.696   4.154  0.1632  0.0347 -0.2929
 8510TIP3    H146945   3.908   3.754   4.183 -1.8428 -2.4772  0.2307
 8510TIP3    H246946   4.030   3.680   4.233  0.2655  0.4612 -0.2684
 8511TIP3   OH246947   3.241   1.505   1.948 -0.0077 -0.4099  0.0388
 8511TIP3    H146948   3.278   1.544   1.870 -1.5502  0.5476 -0.2460
 8511TIP3    H246949   3.172   1.447   1.916  0.1867 -0.9966  0.6389
 8512TIP3   OH246950   3.576   2.642  16.560 -0.7405  0.2405  0.0555
 8512TIP3    H146951   3.588   2.687  16.643 -0.2976  0.2371 -0.0050
 8512TIP3    H246952   3.504   2.690  16.517  0.7973  1.9848 -0.7250
 8513TIP3   OH246953   1.005   2.297  15.399  0.7441 -0.2955 -0.3889
 8513TIP3    H146954   1.099   2.313  15.409  0.6434  0.5476 -0.7019
 8513TIP3    H246955   0.981   2.346  15.320  0.6122 -2.8922 -2.1137
 8514TIP3   OH246956   3.242   4.338   4.616 -0.3035  0.3027 -0.0340
 8514TIP3    H146957   3.263   4.268   4.554 -0.5762 -0.6707  0.9350
 8514TIP3    H246958   3.152   4.321   4.642  0.0570  0.2045  1.2298
 8515TIP3   OH246959   1.709   5.790  16.944  0.2491  0.0925  0.4370
 8515TIP3    H146960   1.631   5.835  16.911  0.4993  1.7342  1.8850
 8515TIP3    H246961   1.691   5.697  16.930 -2.9307  0.2150  2.4814
 8516TIP3   OH246962   4.730   6.397  12.123  0.2400  0.0659 -0.1285
 8516TIP3    H146963   4.804   6.343  12.096  0.6909  0.7693 -0.3087
 8516TIP3    H246964   4.724   6.383  12.218  0.8287  0.2839 -0.0564
 8517TIP3   OH246965   3.217   4.894   3.882 -0.6184 -0.0054  0.7054
 8517TIP3    H146966   3.226   4.811   3.928  3.4526 -0.8526 -1.1572
 8517TIP3    H246967   3.180   4.870   3.797  2.1862 -0.3753 -0.5178
 8518TIP3   OH246968   4.305   2.836  14.077 -0.1981 -0.0707  0.2316
 8518TIP3    H146969   4.368   2.908  14.082  0.9105 -0.6468 -2.9681
 8518TIP3    H246970   4.229   2.874  14.033 -1.9941  0.4395  3.4703
 8519TIP3   OH246971   4.080   0.943   4.620  1.1734  0.0581  0.2175
 8519TIP3    H146972   4.154   0.896   4.659  1.6932 -0.0173 -0.8364
 8519TIP3    H246973   4.008   0.880   4.623  1.3084 -0.0765  0.7105
 8520TIP3   OH246974   3.652   2.960  14.695 -0.5573 -0.0974 -0.3682
 8520TIP3    H146975   3.697   2.998  14.770  0.1563 -0.8224 -0.4132
 8520TIP3    H246976   3.691   3.004  14.619 -0.3101 -0.3350 -0.3798
 8521TIP3   OH246977   1.488   6.019   5.156 -0.5983  0.0128 -0.0669
 8521TIP3    H146978   1.437   5.942   5.130 -0.0388 -0.3160 -0.2091
 8521TIP3    H246979   1.491   6.073   5.078  1.9495 -1.4448 -1.0927
 8522TIP3   OH246980   0.645   0.533   3.004  0.0508  0.1326  0.7495
 8522TIP3    H146981   0.666   0.626   2.988  1.6267 -0.2845  0.1864
 8522TIP3    H246982   0.553   0.525   2.980  0.4062  1.1498 -1.1735
 8523TIP3   OH246983   2.892   2.296  14.535 -0.0580  0.5051 -0.1144
 8523TIP3    H146984   2.923   2.249  14.457  0.4446 -1.1029  1.0050
 8523TIP3    H246985   2.913   2.387  14.518  0.5550  0.1182 -1.6192
 8524TIP3   OH246986   2.994   0.073   3.607  0.5640  0.1655 -0.2008
 8524TIP3    H146987   2.963   0.007   3.546 -0.3160 -0.1358  0.5507
 8524TIP3    H246988   2.915   0.107   3.649  0.9582  1.9927 -0.8593
 8525TIP3   OH246989   2.024   5.711   3.708  0.1659 -0.1907  0.0462
 8525TIP3    H146990   2.022   5.782   3.772 -2.3287 -0.4473  0.3651
 8525TIP3    H246991   2.065   5.750   3.631  0.7106  0.9658  0.8953
 8526TIP3   OH246992   2.209   1.613  14.227 -0.0312 -0.3259  0.2105
 8526TIP3    H146993   2.229   1.520  14.218  1.4805  0.1303 -2.0872
 8526TIP3    H246994   2.128   1.625  14.177  0.9927 -0.0820 -1.4566
 8527TIP3   OH246995   2.870   1.337  10.960 -0.2830 -0.2058  0.4704
 8527TIP3    H146996   2.863   1.365  10.869 -1.9275 -2.3210 -0.1237
 8527TIP3    H246997   2.804   1.390  11.006 -0.1983  0.1030  0.2414
 8528TIP3   OH246998   3.693   5.685  15.083  0.0648  0.0276 -0.0880
 8528TIP3    H146999   3.725   5.747  15.017  0.4389  1.0352  1.0088
 8528TIP3    H247000   3.603   5.712  15.100  0.4054  0.6398  0.7969
 8529TIP3   OH247001   1.083   2.703  11.625 -0.0901 -0.0722  0.3134
 8529TIP3    H147002   1.031   2.649  11.566 -0.7142  0.0301  0.7543
 8529TIP3    H247003   1.035   2.701  11.708  0.3219  0.4734  0.5742
 8530TIP3   OH247004   1.321   4.405   0.523  0.5485 -0.6438  0.4504
 8530TIP3    H147005   1.311   4.437   0.433 -0.0511 -0.1521  0.6895
 8530TIP3    H247006   1.365   4.477   0.568  0.8170 -0.8780  0.5612
 8531TIP3   OH247007   5.299   3.370  12.205  0.6286 -0.0202  0.3155
 8531TIP3    H147008   5.358   3.437  12.239 -0.3980  0.6152  0.8900
 8531TIP3    H247009   5.295   3.388  12.111 -0.1171  1.1300  0.5473
 8532TIP3   OH247010   6.571   1.267   5.629 -0.1481  0.0197 -0.0208
 8532TIP3    H147011   6.566   1.175   5.604  1.1096  0.0416 -0.4398
 8532TIP3    H247012   6.564   1.314   5.546  1.0625  0.2188 -0.0210
 8533TIP3   OH247013   5.105   1.173   3.500  0.0728  0.4124 -0.1725
 8533TIP3    H147014   5.058   1.209   3.575  1.2715  2.8784 -0.4899
 8533TIP3    H247015   5.189   1.219   3.500  0.3775 -0.0140 -2.6339
 8534TIP3   OH247016   3.988   1.562   2.511  0.2178 -0.2556 -0.5015
 8534TIP3    H147017   4.022   1.487   2.462  0.3286 -0.5498  0.0097
 8534TIP3    H247018   4.064   1.619   2.526  0.2303 -0.2762 -0.4858
 8535TIP3   OH247019   0.844   5.338   0.010  0.2623 -0.1375  0.5338
 8535TIP3    H147020   0.885   5.294  -0.064 -2.1971  0.1034 -1.1051
 8535TIP3    H247021   0.778   5.276   0.041 -0.2105  0.6220  1.0888
 8536TIP3   OH247022   6.085   0.981   3.653  0.3498 -0.3313 -0.5702
 8536TIP3    H147023   6.022   0.911   3.666  0.4201 -0.1453  0.9809
 8536TIP3    H247024   6.170   0.939   3.664  0.5238 -0.5087 -2.2989
 8537TIP3   OH247025   0.623   0.482  15.764  0.1623 -0.2651 -0.1491
 8537TIP3    H147026   0.648   0.498  15.673  0.5348 -0.0301 -0.0106
 8537TIP3    H247027   0.572   0.401  15.762  1.1230 -0.8798 -0.4183
 8538TIP3   OH247028   5.762   0.548  13.931  0.0450 -0.9497 -0.4440
 8538TIP3    H147029   5.709   0.527  13.855 -1.2291 -0.4592  0.2830
 8538TIP3    H247030   5.844   0.581  13.895 -0.6374 -0.4749 -1.5934
 8539TIP3   OH247031   2.782   0.154   3.379 -0.1505 -0.1087  0.6024
 8539TIP3    H147032   2.867   0.166   3.335 -0.4557 -0.5063 -0.1129
 8539TIP3    H247033   2.748   0.243   3.390 -0.2704 -0.0119 -0.3963
 8540TIP3   OH247034   5.100   1.714  12.805  0.2778  0.0044 -0.1046
 8540TIP3    H147035   5.055   1.640  12.766  0.0108 -0.3773  0.9047
 8540TIP3    H247036   5.193   1.698  12.787  0.5869 -2.2346  2.6806
 8541TIP3   OH247037   1.347   0.260  14.563 -0.0709 -0.5122 -0.4778
 8541TIP3    H147038   1.418   0.220  14.513 -0.1623 -0.8330 -0.3569
 8541TIP3    H247039   1.312   0.188  14.616 -2.6820 -1.2553 -2.9539
 8542TIP3   OH247040   3.145   2.791   1.463  0.5351 -0.7785  0.3060
 8542TIP3    H147041   3.186   2.876   1.479  0.1791 -0.6728  0.6604
 8542TIP3    H247042   3.193   2.730   1.520  1.4968 -1.0166 -0.7315
 8543TIP3   OH247043   1.897   4.288   0.706  0.0735 -0.2334 -0.4876
 8543TIP3    H147044   1.905   4.378   0.673 -1.3078  1.5729  3.5001
 8543TIP3    H247045   1.968   4.279   0.769 -1.1063 -1.0878  0.7639
 8544TIP3   OH247046   0.481   0.374   3.729  0.1295 -0.7378  0.0230
 8544TIP3    H147047   0.539   0.431   3.680  2.4204 -2.0741  0.9884
 8544TIP3    H247048   0.459   0.303   3.669 -1.0841  0.0855 -0.5420
 8545TIP3   OH247049   3.337   3.295  15.213 -0.4583  0.3214 -0.0349
 8545TIP3    H147050   3.349   3.372  15.157 -0.3215 -0.2146 -0.7619
 8545TIP3    H247051   3.243   3.291  15.227 -0.7468 -0.6309 -1.8626
 8546TIP3   OH247052   4.463   0.063   3.691  0.1585  0.2221  0.3502
 8546TIP3    H147053   4.473  -0.033   3.696 -0.5851  0.1523  0.5278
 8546TIP3    H247054   4.371   0.079   3.710 -0.3599  0.7862 -2.2698
 8547TIP3   OH247055   1.406   5.576  14.669  0.1116 -0.1026 -0.6561
 8547TIP3    H147056   1.455   5.498  14.644 -2.2301 -1.7092 -0.5376
 8547TIP3    H247057   1.328   5.575  14.613 -1.2754  0.6784  1.1352
 8548TIP3   OH247058   2.014   1.652  13.665 -0.6019 -0.1124  0.1949
 8548TIP3    H147059   2.001   1.590  13.737 -0.6774 -0.4497 -0.1071
 8548TIP3    H247060   1.926   1.673  13.635 -0.5470 -0.5540 -0.2900
 8549TIP3   OH247061   6.386   1.193  16.381 -0.0337 -0.0951  0.3252
 8549TIP3    H147062   6.337   1.139  16.320  1.3884 -2.1806  0.9246
 8549TIP3    H247063   6.326   1.265  16.403 -1.9224 -1.2813 -0.6789
 8550TIP3   OH247064   4.674   0.173  11.095  0.4401 -0.1002 -0.2717
 8550TIP3    H147065   4.761   0.143  11.123 -0.0816 -1.0748  0.3648
 8550TIP3    H247066   4.660   0.129  11.011 -0.2672 -1.6266  0.5973
 8551TIP3   OH247067   3.143   3.953   4.839 -0.1672 -0.2272 -0.5384
 8551TIP3    H147068   3.085   3.905   4.781  0.0073 -0.1611 -0.7674
 8551TIP3    H247069   3.231   3.928   4.811 -0.0872 -0.6633  0.0858
 8552TIP3   OH247070   0.731   1.512  13.483  0.8630  0.0063 -0.2641
 8552TIP3    H147071   0.637   1.499  13.499  0.5861  0.7444 -1.1696
 8552TIP3    H247072   0.738   1.605  13.461  1.9015  0.0877  0.3673
 8553TIP3   OH247073   4.045   6.548   3.273 -0.4994 -0.1177 -0.3498
 8553TIP3    H147074   3.984   6.564   3.345  0.5419  3.2116 -0.0166
 8553TIP3    H247075   4.116   6.497   3.312 -0.1266  1.3292  0.9330
 8554TIP3   OH247076   6.364   5.863   5.437  0.2973  0.5804 -0.2018
 8554TIP3    H147077   6.421   5.814   5.379 -0.1717  0.4832 -0.5879
 8554TIP3    H247078   6.421   5.929   5.477  0.6139  0.6812 -0.8079
 8555TIP3   OH247079   5.813   6.516   2.135  0.1783 -0.2964  0.3186
 8555TIP3    H147080   5.774   6.468   2.062  0.5569 -1.1913  0.6949
 8555TIP3    H247081   5.875   6.576   2.095  0.1722 -0.5804 -0.1111
 8556TIP3   OH247082   2.637   0.557  13.829  0.1236  0.3022 -0.3909
 8556TIP3    H147083   2.607   0.537  13.918 -0.6791  0.4869 -0.6094
 8556TIP3    H247084   2.674   0.474  13.798  0.5475  0.2766  0.1645
 8557TIP3   OH247085   3.983   4.550  13.886 -0.1037 -0.5336  0.0163
 8557TIP3    H147086   4.046   4.485  13.918  0.2318 -1.2578 -1.9792
 8557TIP3    H247087   3.979   4.616  13.956 -1.0092 -3.0040  2.4484
 8558TIP3   OH247088   6.309   0.518   0.637 -0.1205  0.3307  0.1109
 8558TIP3    H147089   6.343   0.471   0.561 -0.5884  0.1627  0.0031
 8558TIP3    H247090   6.290   0.606   0.603 -1.0642  0.0305 -0.1653
 8559TIP3   OH247091   6.339   4.486  13.851  0.0197 -0.1150 -0.4886
 8559TIP3    H147092   6.434   4.484  13.850  0.0121 -0.3977 -1.7015
 8559TIP3    H247093   6.314   4.534  13.772 -0.8375  1.3249  0.6019
 8560TIP3   OH247094   1.791   2.078  16.523 -0.3337 -0.1657  0.1681
 8560TIP3    H147095   1.736   2.156  16.531 -0.8480 -0.3713 -1.0380
 8560TIP3    H247096   1.735   2.014  16.480 -0.2298 -1.5510  1.9821
 8561TIP3   OH247097   0.770   2.498   3.234  0.1618 -0.6500 -0.4170
 8561TIP3    H147098   0.864   2.513   3.242  0.3289 -0.4502 -2.3186
 8561TIP3    H247099   0.742   2.472   3.322  1.9302 -0.4289  0.2460
 8562TIP3   OH247100   3.469   2.517  12.600 -0.5090  0.2717  0.1125
 8562TIP3    H147101   3.395   2.549  12.651 -1.2780 -0.7262 -0.3363
 8562TIP3    H247102   3.478   2.425  12.626 -0.7429 -0.1812 -1.3100
 8563TIP3   OH247103   6.335   0.249   2.970 -0.1282 -0.3766 -0.3951
 8563TIP3    H147104   6.301   0.159   2.975 -1.4494  0.1279 -0.0903
 8563TIP3    H247105   6.367   0.256   2.880  2.1230 -1.8608  0.1824
 8564TIP3   OH247106   5.921   2.017  14.880 -0.0962  0.0557 -0.4827
 8564TIP3    H147107   5.934   1.969  14.962  0.4405 -0.9294 -1.1240
 8564TIP3    H247108   5.979   2.092  14.887  0.7306 -0.5780 -0.3832
 8565TIP3   OH247109   6.195   1.875  16.096 -0.0097 -0.2361  0.0725
 8565TIP3    H147110   6.209   1.816  16.170 -0.9748  2.5209  2.6636
 8565TIP3    H247111   6.101   1.890  16.094  0.2211  1.4784 -0.1692
 8566TIP3   OH247112   0.509   1.929  12.164  0.0769  0.6506  0.1434
 8566TIP3    H147113   0.554   2.014  12.174  0.0692  0.4708  2.2147
 8566TIP3    H247114   0.575   1.865  12.188 -0.8219  0.3004  1.8577
 8567TIP3   OH247115   3.518   3.596  11.229  0.4425  0.1830 -0.3856
 8567TIP3    H147116   3.517   3.517  11.283  0.2653  0.1644 -0.4123
 8567TIP3    H247117   3.449   3.581  11.164  0.0111  0.6014 -0.0351
 8568TIP3   OH247118   4.436   5.718   6.427  0.3933 -0.6783  0.3199
 8568TIP3    H147119   4.419   5.726   6.521  0.3002 -1.4674  0.3778
 8568TIP3    H247120   4.531   5.711   6.420  0.3995 -0.6331  0.3599
 8569TIP3   OH247121   6.172   4.169  13.225 -0.3502  0.5684  0.3049
 8569TIP3    H147122   6.081   4.141  13.231 -0.3601  0.3408 -0.7237
 8569TIP3    H247123   6.185   4.190  13.132  0.3835  1.4977  0.5980
 8570TIP3   OH247124   0.721   3.967   2.154 -0.1960 -0.1341  0.1962
 8570TIP3    H147125   0.634   4.002   2.177 -0.5027 -0.8713  0.1676
 8570TIP3    H247126   0.782   4.021   2.204 -0.6272  0.8266 -0.2877
 8571TIP3   OH247127   2.088   4.663   2.799 -0.1070  0.0491 -0.2316
 8571TIP3    H147128   2.067   4.597   2.732  0.5779  1.3244 -1.7704
 8571TIP3    H247129   2.055   4.745   2.763  0.8108  0.8744  0.7306
 8572TIP3   OH247130   4.027   1.305   4.829 -0.1216 -0.0065 -0.0696
 8572TIP3    H147131   4.068   1.343   4.908 -0.3462 -1.4864  0.7970
 8572TIP3    H247132   4.099   1.299   4.766  0.2108  0.6082  0.2354
 8573TIP3   OH247133   1.636   4.234   0.649 -0.5417 -0.1281 -0.7468
 8573TIP3    H147134   1.724   4.268   0.662 -0.0267 -1.8712  0.7748
 8573TIP3    H247135   1.591   4.249   0.732 -1.7944  0.9547 -1.5859
 8574TIP3   OH247136   1.164   5.430  15.117 -0.1634  0.7723  0.2546
 8574TIP3    H147137   1.207   5.496  15.171  2.1015 -0.1225 -0.3256
 8574TIP3    H247138   1.134   5.477  15.040  0.1992  1.3733  0.4752
 8575TIP3   OH247139   6.217   0.702   4.063 -0.3161  0.3174 -0.8338
 8575TIP3    H147140   6.273   0.770   4.101  0.6079 -0.6215 -0.4526
 8575TIP3    H247141   6.148   0.750   4.017  0.8236  1.5249 -1.3508
 8576TIP3   OH247142   3.415   5.470  15.181  0.4190  0.4667  0.1023
 8576TIP3    H147143   3.361   5.536  15.226 -0.7088 -1.0465  1.0686
 8576TIP3    H247144   3.499   5.473  15.226 -0.9389 -1.6280  3.1365
 8577TIP3   OH247145   5.542   1.500  16.762  0.1627  0.0438  0.7166
 8577TIP3    H147146   5.520   1.426  16.705  2.1894  1.8695 -2.7487
 8577TIP3    H247147   5.460   1.549  16.771 -0.3407 -0.6390 -0.0806
 8578TIP3   OH247148   0.198   3.928   4.959  0.2033  0.4180 -0.0634
 8578TIP3    H147149   0.251   3.876   5.020  2.6565  1.8570 -0.7871
 8578TIP3    H247150   0.214   3.889   4.874  0.5923  1.2173 -0.3680
 8579TIP3   OH247151   2.768   4.649  13.721  0.4032 -0.1368  0.5693
 8579TIP3    H147152   2.734   4.728  13.763 -0.7876  0.5672 -1.5832
 8579TIP3    H247153   2.721   4.577  13.763  0.9005  0.3225  1.9708
 8580TIP3   OH247154   2.231   0.810   4.234  0.3419  0.6131  0.2344
 8580TIP3    H147155   2.257   0.828   4.144  0.7494  1.2751  0.4762
 8580TIP3    H247156   2.314   0.804   4.282  0.1932 -0.9083  0.3645
 8581TIP3   OH247157   5.355   2.945   2.049 -0.1151 -0.1186  0.1026
 8581TIP3    H147158   5.424   2.880   2.065 -0.4714 -0.7956 -1.0497
 8581TIP3    H247159   5.313   2.917   1.968 -2.7784 -0.5919  1.5335
 8582TIP3   OH247160   1.590   5.078   4.575  0.6804  0.5987  0.1123
 8582TIP3    H147161   1.570   5.092   4.667 -1.3028  0.3783 -0.2422
 8582TIP3    H247162   1.518   5.023   4.543  2.5513 -1.3518 -1.0338
 8583TIP3   OH247163   2.126   3.485  14.542 -0.0244 -0.0954 -0.0836
 8583TIP3    H147164   2.125   3.487  14.446  1.1349  0.7315 -0.1028
 8583TIP3    H247165   2.115   3.393  14.565 -2.9904 -0.0778 -0.9114
 8584TIP3   OH247166   2.957   1.364  13.215 -0.3388  0.2394 -0.7132
 8584TIP3    H147167   2.981   1.409  13.297  1.5310  1.0136 -1.6167
 8584TIP3    H247168   3.040   1.326  13.185 -0.7036  1.0334 -2.8744
 8585TIP3   OH247169   5.146   4.193   6.289 -0.0818 -0.4649 -0.6034
 8585TIP3    H147170   5.169   4.158   6.375  0.0748 -0.1813 -0.5282
 8585TIP3    H247171   5.055   4.169   6.277 -0.7889  1.4027  0.6173
 8586TIP3   OH247172   3.574   1.124  13.977 -0.1418 -0.5783 -0.2809
 8586TIP3    H147173   3.529   1.120  13.893  0.2935  0.7572 -0.5909
 8586TIP3    H247174   3.522   1.185  14.030  0.5355 -0.0767 -0.1795
 8587TIP3   OH247175   0.247   5.130  13.294  0.2474  0.2989 -0.2104
 8587TIP3    H147176   0.274   5.043  13.267 -0.5637  0.5005 -1.7794
 8587TIP3    H247177   0.181   5.114  13.362 -0.7137 -0.3537 -1.2746
 8588TIP3   OH247178   0.335   5.512   0.158  0.3083 -0.8872  0.0300
 8588TIP3    H147179   0.297   5.590   0.199  1.5665 -1.2411  2.0047
 8588TIP3    H247180   0.400   5.547   0.097  1.1849 -0.3744  1.2350
 8589TIP3   OH247181   2.549   0.324   3.070  0.0058 -0.4411 -0.0114
 8589TIP3    H147182   2.520   0.327   3.161  2.1421  0.7922  0.6999
 8589TIP3    H247183   2.627   0.269   3.071  0.7532  0.5536 -0.8351
 8590TIP3   OH247184   0.604   6.128   4.192  0.2381 -0.5151 -0.0790
 8590TIP3    H147185   0.542   6.128   4.120  1.3230 -0.1051 -1.0440
 8590TIP3    H247186   0.588   6.211   4.238 -0.9344 -1.0963  0.6160
 8591TIP3   OH247187   3.156   0.093  16.368 -0.1584  0.2693  0.3619
 8591TIP3    H147188   3.076   0.075  16.417  0.4061  0.1908  1.2926
 8591TIP3    H247189   3.183   0.008  16.333 -0.0064  0.1320  0.8042
 8592TIP3   OH247190   4.825   4.005   1.399 -0.6330  0.1102  0.0241
 8592TIP3    H147191   4.759   4.074   1.388 -1.7563 -0.8767  0.3575
 8592TIP3    H247192   4.828   3.990   1.493  0.5780  0.5921  0.0808
 8593TIP3   OH247193   3.407   3.564  15.092  0.0771 -0.5163  0.0898
 8593TIP3    H147194   3.485   3.596  15.047 -1.2472  0.7707 -1.4263
 8593TIP3    H247195   3.394   3.627  15.164  1.2994 -1.6699  1.3826
 8594TIP3   OH247196   0.292   5.207   2.284 -0.1847 -0.1156 -0.5369
 8594TIP3    H147197   0.327   5.280   2.336 -0.2709  0.3081 -1.0640
 8594TIP3    H247198   0.198   5.226   2.277 -0.4929 -1.0786  0.5953
 8595TIP3   OH247199   2.196   6.181  11.957 -0.4085 -0.3269  0.7285
 8595TIP3    H147200   2.133   6.132  11.903 -0.0469 -2.0694  1.7916
 8595TIP3    H247201   2.197   6.133  12.040  0.8791  0.8342  1.4106
 8596TIP3   OH247202   4.538   2.620   6.210 -0.1332  0.0292 -0.2962
 8596TIP3    H147203   4.525   2.564   6.133 -3.5501 -0.6158  0.5798
 8596TIP3    H247204   4.458   2.671   6.216 -0.5410 -0.7865  3.4668
 8597TIP3   OH247205   1.839   6.501   4.016 -0.8531  0.4487 -0.6583
 8597TIP3    H147206   1.819   6.582   4.064  0.0662  0.9468 -1.0872
 8597TIP3    H247207   1.928   6.479   4.044 -0.7604  0.0873 -1.2361
 8598TIP3   OH247208   5.717   0.154   1.337  0.2501 -0.1293  0.3771
 8598TIP3    H147209   5.678   0.113   1.260  1.4788 -0.7010  0.0309
 8598TIP3    H247210   5.802   0.185   1.306  0.4013  0.4038  1.3037
 8599TIP3   OH247211   3.987   3.564   1.659  0.4983 -0.1556  0.5175
 8599TIP3    H147212   3.901   3.569   1.702  0.7597 -0.0401  1.0255
 8599TIP3    H247213   3.970   3.510   1.581 -0.1552  0.3353  0.3075
 8600TIP3   OH247214   5.500   2.209  15.757  0.2435 -0.0670  0.1488
 8600TIP3    H147215   5.430   2.267  15.788  0.6987 -0.3469  1.7960
 8600TIP3    H247216   5.580   2.262  15.766  0.6681 -0.9384  1.7135
 8601TIP3   OH247217   3.319   2.319  15.042 -0.1476  0.0412  0.2463
 8601TIP3    H147218   3.270   2.306  14.961  0.6760 -0.6695 -0.1483
 8601TIP3    H247219   3.300   2.241  15.094  1.5602 -0.8764 -0.4435
 8602TIP3   OH247220   4.122   4.353   6.363  0.4625  0.1538  0.2852
 8602TIP3    H147221   4.043   4.382   6.409  0.2137  0.5467 -0.3854
 8602TIP3    H247222   4.172   4.433   6.347  0.4491  0.0527 -0.2998
 8603TIP3   OH247223   4.892   5.832  11.074 -0.4685  0.4670  0.5302
 8603TIP3    H147224   4.955   5.817  11.004 -0.3408 -0.0485  0.7477
 8603TIP3    H247225   4.876   5.745  11.111  1.6901  1.0175  3.0353
 8604TIP3   OH247226   0.429   2.718  16.876  0.2994  0.6098 -0.1511
 8604TIP3    H147227   0.421   2.804  16.835  0.1125  0.9619  0.6102
 8604TIP3    H247228   0.410   2.733  16.969  1.9374  0.0506  0.3102
 8605TIP3   OH247229   0.157   3.560  16.181 -0.2539  0.1411  0.4739
 8605TIP3    H147230   0.247   3.593  16.190  0.0136 -0.4188 -0.0250
 8605TIP3    H247231   0.165   3.466  16.199 -0.9250  0.2623  1.4474
 8606TIP3   OH247232   2.373   2.745   5.410  0.0228  0.3351 -0.1689
 8606TIP3    H147233   2.307   2.683   5.440 -0.8680  2.2335  2.1254
 8606TIP3    H247234   2.387   2.722   5.318 -1.1232 -2.4276  0.2322
 8607TIP3   OH247235   5.853   3.550  16.026  0.0443  0.1093 -0.0247
 8607TIP3    H147236   5.763   3.518  16.017  0.7455 -2.1272  0.0985
 8607TIP3    H247237   5.861   3.570  16.120  0.5696 -3.0859  0.7647
 8608TIP3   OH247238   0.597   2.720   2.883  0.3737  0.4120  0.2262
 8608TIP3    H147239   0.692   2.714   2.875  0.3182 -2.1793  0.5351
 8608TIP3    H247240   0.565   2.719   2.793  0.6226  0.6545  0.1360
 8609TIP3   OH247241   5.980   2.324  14.639  0.0062  0.1339 -0.6881
 8609TIP3    H147242   6.056   2.369  14.676 -0.1653  1.4015 -1.7993
 8609TIP3    H247243   6.018   2.259  14.579  0.2278 -0.4565  0.0684
 8610TIP3   OH247244   1.444   3.529   3.611  0.1372 -0.0611  0.4206
 8610TIP3    H147245   1.483   3.530   3.523 -0.3196  0.9550  0.2114
 8610TIP3    H247246   1.355   3.496   3.597 -0.2771  1.0595  0.3320
 8611TIP3   OH247247   3.785   2.738   1.905  0.0993 -0.0418 -0.7408
 8611TIP3    H147248   3.714   2.797   1.927 -0.9536 -1.0147 -1.4179
 8611TIP3    H247249   3.820   2.710   1.990  0.7595  1.6874 -0.4209
 8612TIP3   OH247250   1.347   4.014  14.183  0.1924 -0.0638 -0.3555
 8612TIP3    H147251   1.294   4.023  14.263  0.8491  1.7451 -0.0733
 8612TIP3    H247252   1.341   4.100  14.141  1.2949 -0.4504 -1.3397
 8613TIP3   OH247253   2.400   3.868  15.474  0.6054 -0.1731  0.2010
 8613TIP3    H147254   2.386   3.921  15.395  0.2929  1.7424  1.4501
 8613TIP3    H247255   2.323   3.886  15.528  0.2437 -2.3721  0.4815
 8614TIP3   OH247256   6.245   2.980   4.830  0.5517  0.2907 -0.5379
 8614TIP3    H147257   6.247   2.936   4.915  1.2447 -1.0574 -1.2136
 8614TIP3    H247258   6.330   3.025   4.824 -0.3002  2.0963  0.3060
 8615TIP3   OH247259   2.148   0.206  17.071  0.3145 -0.0536  0.1429
 8615TIP3    H147260   2.088   0.209  17.145 -0.0463 -1.9527 -0.0140
 8615TIP3    H247261   2.092   0.211  16.994  0.6397  1.2990 -0.0286
 8616TIP3   OH247262   1.765   2.010  11.916 -0.4056  0.0495 -0.2514
 8616TIP3    H147263   1.737   2.000  12.007  1.3576 -1.0091  0.2152
 8616TIP3    H247264   1.693   2.058  11.874 -0.6369  1.8687  2.0035
 8617TIP3   OH247265   2.402   3.586   2.106 -0.1261  0.1322 -0.0567
 8617TIP3    H147266   2.318   3.615   2.069  0.3242  1.4835 -0.0906
 8617TIP3    H247267   2.381   3.558   2.194 -0.8373 -0.8999 -0.5368
 8618TIP3   OH247268   3.483   1.957   1.297 -0.2090  0.4529  0.0054
 8618TIP3    H147269   3.544   1.885   1.312 -0.4112  0.2592 -0.0931
 8618TIP3    H247270   3.426   1.925   1.227 -0.9800  0.2780  0.6998
 8619TIP3   OH247271   0.821   1.463  12.019  0.1349 -0.3128 -0.1567
 8619TIP3    H147272   0.778   1.545  11.992 -0.2590 -0.6871 -0.6759
 8619TIP3    H247273   0.777   1.395  11.969  1.0776 -0.7548 -0.4033
 8620TIP3   OH247274   2.087   2.754   3.136 -0.2528 -0.0887 -0.1730
 8620TIP3    H147275   2.050   2.691   3.074 -0.3441  0.4773 -0.6977
 8620TIP3    H247276   2.151   2.803   3.085  1.0651 -0.8838  0.6604
 8621TIP3   OH247277   6.581   3.084   3.546  0.1773  0.0253 -0.2464
 8621TIP3    H147278   6.669   3.095   3.508  0.9959  0.5975  1.6852
 8621TIP3    H247279   6.597   3.055   3.636 -1.6808 -1.5772 -0.3700
 8622TIP3   OH247280   1.505   6.450  16.764 -0.0686 -0.7995 -0.0322
 8622TIP3    H147281   1.557   6.405  16.697  0.3979 -2.0154  1.1031
 8622TIP3    H247282   1.480   6.533  16.723  3.3433  0.2075 -0.4605
 8623TIP3   OH247283   1.512   4.170   5.856 -0.4606 -1.1850 -0.3802
 8623TIP3    H147284   1.491   4.115   5.931  0.5379 -1.2838 -0.1548
 8623TIP3    H247285   1.560   4.113   5.796 -0.2097 -0.8030 -0.5512
 8624TIP3   OH247286   2.605   5.237  15.466 -0.1322  0.5892 -0.1922
 8624TIP3    H147287   2.553   5.174  15.416 -0.8663  0.4501  0.7196
 8624TIP3    H247288   2.553   5.318  15.464 -0.4360  0.4284  0.7913
 8625TIP3   OH247289   0.257   5.660  12.317 -0.6902 -0.5925 -0.2602
 8625TIP3    H147290   0.325   5.705  12.268 -0.1659 -0.8808  0.1899
 8625TIP3    H247291   0.304   5.600  12.375 -1.2696 -0.0854  0.7776
 8626TIP3   OH247292   2.666   5.514  12.282  0.2094 -0.6511  0.3209
 8626TIP3    H147293   2.615   5.436  12.261  1.3392 -1.9078  1.9608
 8626TIP3    H247294   2.624   5.549  12.360  0.6937 -0.5992  0.5617
 8627TIP3   OH247295   6.573   0.733   5.124  0.2372  0.6988 -0.5321
 8627TIP3    H147296   6.510   0.770   5.186 -0.4340  0.0836 -0.8326
 8627TIP3    H247297   6.659   0.749   5.164 -0.1116  1.4294 -0.0571
 8628TIP3   OH247298   3.838   4.790  13.453  0.1564 -0.1783  0.1892
 8628TIP3    H147299   3.834   4.716  13.392  0.3097 -0.7351  0.8383
 8628TIP3    H247300   3.928   4.822  13.445  0.6157 -1.1494  1.1343
 8629TIP3   OH247301   6.360   3.427  11.371 -0.1808 -0.6243  0.2018
 8629TIP3    H147302   6.433   3.388  11.323 -0.5575 -1.7422  0.4987
 8629TIP3    H247303   6.329   3.498  11.314  0.8719 -0.4054 -0.1065
 8630TIP3   OH247304   2.358   1.695  16.502  0.9140 -0.3440  0.5094
 8630TIP3    H147305   2.435   1.733  16.460  0.4073 -0.1598 -0.2553
 8630TIP3    H247306   2.285   1.721  16.447  0.5935 -2.8630 -0.3790
 8631TIP3   OH247307   5.836   1.473  15.606  0.0487  0.5272  0.3713
 8631TIP3    H147308   5.831   1.381  15.580  1.1944  0.7942 -0.8712
 8631TIP3    H247309   5.774   1.518  15.549  1.5341  0.9057 -1.0102
 8632TIP3   OH247310   4.053   4.307   5.580 -0.1691 -0.6078 -0.2347
 8632TIP3    H147311   4.014   4.320   5.666 -1.1927 -0.8635 -0.6510
 8632TIP3    H247312   4.140   4.348   5.587  0.0919 -1.3369  1.1578
 8633TIP3   OH247313   5.421   4.278   0.098  0.2546  0.2779  0.4953
 8633TIP3    H147314   5.487   4.251   0.034  0.0283 -2.6480  1.3612
 8633TIP3    H247315   5.348   4.310   0.045  0.6368 -0.7115 -0.6740
 8634TIP3   OH247316   5.490   1.668  15.719 -0.5483 -0.0531 -0.2565
 8634TIP3    H147317   5.426   1.739  15.729 -0.6343 -0.1756  0.0957
 8634TIP3    H247318   5.524   1.654  15.807  0.1520  0.1781 -0.4859
 8635TIP3   OH247319   6.657   1.358   5.891  0.5962  0.2555  0.0384
 8635TIP3    H147320   6.661   1.342   5.797  0.1275  1.4827 -0.2132
 8635TIP3    H247321   6.587   1.301   5.922  1.1225 -0.5627 -0.2519
 8636TIP3   OH247322   1.715   2.793  16.010 -0.2096 -0.1846  0.8506
 8636TIP3    H147323   1.801   2.834  15.999 -0.7327  0.6964 -0.0807
 8636TIP3    H247324   1.692   2.810  16.102  0.7051 -0.6712  1.1922
 8637TIP3   OH247325   5.772   4.335   2.608  0.1920  0.3296  0.2290
 8637TIP3    H147326   5.749   4.258   2.558 -0.3361  0.7759 -0.2304
 8637TIP3    H247327   5.793   4.302   2.696  1.7276 -0.5182 -0.4316
 8638TIP3   OH247328   5.301   3.298   0.422  0.2020 -0.2497  0.3395
 8638TIP3    H147329   5.287   3.296   0.327  3.4634 -2.6591 -0.2705
 8638TIP3    H247330   5.220   3.262   0.459 -0.4421 -1.0407 -1.6933
 8639TIP3   OH247331   0.375   2.938   0.699  0.0805 -0.7719  0.8175
 8639TIP3    H147332   0.397   3.028   0.676  0.6516 -1.0335  0.2817
 8639TIP3    H247333   0.451   2.887   0.669 -0.4320 -1.4798  0.6923
 8640TIP3   OH247334   2.905   1.087  13.430 -0.3749 -0.0334  0.1835
 8640TIP3    H147335   2.867   1.150  13.369 -1.5369  0.4698  1.3571
 8640TIP3    H247336   2.998   1.083  13.407 -0.9483 -0.7531 -2.3320
 8641TIP3   OH247337   0.102   0.840   2.091  0.3470 -0.0801  0.0048
 8641TIP3    H147338   0.032   0.886   2.136  1.0251  1.3229 -0.3277
 8641TIP3    H247339   0.156   0.803   2.161 -1.0015 -1.6765  0.2599
 8642TIP3   OH247340   3.342   6.017  14.063 -0.2811  0.2303  0.3507
 8642TIP3    H147341   3.393   5.982  13.990 -1.1935  1.7001 -1.0775
 8642TIP3    H247342   3.283   6.081  14.022 -1.2445  0.6759  2.3127
 8643TIP3   OH247343   1.362   2.864   1.593 -0.7608 -0.0406  0.4540
 8643TIP3    H147344   1.329   2.852   1.504 -1.7018  2.3418  0.3842
 8643TIP3    H247345   1.300   2.816   1.648 -1.8107  0.7090 -0.0242
 8644TIP3   OH247346   4.760   4.705   5.051 -0.0358  0.1485 -0.2749
 8644TIP3    H147347   4.846   4.681   5.086  0.6049 -0.4747 -2.1347
 8644TIP3    H247348   4.698   4.650   5.099  0.7792 -0.5704 -0.0250
 8645TIP3   OH247349   1.099   0.671  14.094  0.0118  0.1019  0.1439
 8645TIP3    H147350   1.027   0.719  14.136  0.2161  1.3433 -0.8587
 8645TIP3    H247351   1.152   0.640  14.167  0.6980  2.7137  0.8903
 8646TIP3   OH247352   3.111   6.626   6.142 -0.0402 -0.1711  0.5056
 8646TIP3    H147353   3.158   6.708   6.160 -2.4879  1.6039 -0.6956
 8646TIP3    H247354   3.130   6.606   6.051  0.4037 -0.8801  0.7425
 8647TIP3   OH247355   0.118   3.120   1.087 -0.1818  0.7305 -0.1953
 8647TIP3    H147356   0.043   3.177   1.071 -0.4919  0.7896  1.2649
 8647TIP3    H247357   0.186   3.150   1.027 -0.0928  3.1384  1.0178
 8648TIP3   OH247358   3.185   2.354  12.015  0.0322  0.2279  0.1477
 8648TIP3    H147359   3.197   2.317  12.102  0.8897 -0.7097 -0.3561
 8648TIP3    H247360   3.090   2.367  12.008 -0.0616  0.1554  1.1442
 8649TIP3   OH247361   0.912   5.865   0.624 -0.1714 -0.8252  0.1524
 8649TIP3    H147362   0.839   5.869   0.562 -0.4341  0.4487  0.5219
 8649TIP3    H247363   0.886   5.796   0.685 -0.5384 -1.1646 -0.3718
 8650TIP3   OH247364   1.411   1.324  12.544  0.0780 -0.6526 -0.4628
 8650TIP3    H147365   1.412   1.305  12.638  0.5523 -1.3296 -0.5916
 8650TIP3    H247366   1.452   1.410  12.536 -0.8127 -0.1752  0.0238
 8651TIP3   OH247367   1.505   4.701   6.158  0.2142 -0.2986  0.4608
 8651TIP3    H147368   1.505   4.740   6.246  0.2438  2.7673 -0.8056
 8651TIP3    H247369   1.414   4.705   6.130  0.3397 -0.5257  0.0124
 8652TIP3   OH247370   3.759   3.036   0.962  0.0994 -0.0632 -0.1907
 8652TIP3    H147371   3.819   2.967   0.933  2.2065  0.4481  2.5193
 8652TIP3    H247372   3.757   3.028   1.057 -2.6311  1.2780 -0.0244
 8653TIP3   OH247373   3.289   2.312  12.846  0.0052 -0.2129  0.1616
 8653TIP3    H147374   3.296   2.217  12.860 -0.5151 -0.3188 -0.2567
 8653TIP3    H247375   3.231   2.342  12.916  1.1651  0.0029  1.0586
 8654TIP3   OH247376   2.168   3.948   1.099  0.6202  0.4290 -0.1996
 8654TIP3    H147377   2.184   4.040   1.077 -0.7101  0.0456 -3.4145
 8654TIP3    H247378   2.244   3.901   1.062 -0.5905 -0.0396 -2.2628
 8655TIP3   OH247379   1.556   0.688   2.611  0.3740  0.3345 -0.4534
 8655TIP3    H147380   1.531   0.771   2.569 -1.7696  0.3811  0.7845
 8655TIP3    H247381   1.616   0.647   2.549 -1.9857  0.7640 -3.2245
 8656TIP3   OH247382   4.809   1.590  14.338  0.5807 -0.1114 -0.4560
 8656TIP3    H147383   4.728   1.631  14.367  0.1438 -1.0733 -0.2685
 8656TIP3    H247384   4.825   1.627  14.251  0.4619  0.7900 -0.1048
 8657TIP3   OH247385   4.923   2.624   0.485 -0.0274  0.6264  0.2157
 8657TIP3    H147386   4.943   2.613   0.578 -0.2386 -1.4163  0.0588
 8657TIP3    H247387   4.834   2.659   0.483 -0.9113 -1.4473  0.8038
 8658TIP3   OH247388   3.638   5.933   4.437  0.2979 -0.1749  0.2911
 8658TIP3    H147389   3.683   5.859   4.396  0.4009 -0.2237  0.4930
 8658TIP3    H247390   3.701   5.966   4.501 -0.2110 -0.6472  1.0403
 8659TIP3   OH247391   3.706   5.139  14.273  0.2220 -0.0404 -0.0234
 8659TIP3    H147392   3.613   5.119  14.285  0.1109  0.6991  0.3798
 8659TIP3    H247393   3.740   5.064  14.224 -0.6862 -0.1091 -0.5844
 8660TIP3   OH247394   3.212   5.144  15.587  0.4068  0.1381  0.6767
 8660TIP3    H147395   3.152   5.147  15.512  2.7746 -0.6841 -1.4006
 8660TIP3    H247396   3.213   5.051  15.612 -1.8157  0.6557  3.1214
 8661TIP3   OH247397   0.157   5.881  11.203 -0.2205 -0.3590 -0.0776
 8661TIP3    H147398   0.088   5.816  11.188  1.5505 -2.5164  0.5212
 8661TIP3    H247399   0.172   5.920  11.117 -1.6381 -0.3792 -0.3611
 8662TIP3   OH247400   5.969   6.462  12.588  0.0496  0.0369  0.0792
 8662TIP3    H147401   5.882   6.502  12.587  0.5893  1.2770  0.3903
 8662TIP3    H247402   5.992   6.451  12.496 -0.3134 -0.0221 -0.0044
 8663TIP3   OH247403   4.717   3.870  11.229 -0.2329 -0.5951  0.0834
 8663TIP3    H147404   4.663   3.885  11.151 -0.6073 -2.1642  0.0013
 8663TIP3    H247405   4.682   3.789  11.266  2.3346 -1.9127 -0.1900
 8664TIP3   OH247406   3.850   2.305   3.185 -0.4280  0.2958 -0.1822
 8664TIP3    H147407   3.805   2.238   3.134 -0.7830  1.4777 -1.4980
 8664TIP3    H247408   3.806   2.303   3.270 -1.3543 -0.2167 -0.6504
 8665TIP3   OH247409   5.448   1.424  11.526 -0.1888  0.1723  0.2494
 8665TIP3    H147410   5.477   1.451  11.439 -0.2785 -0.6862 -0.0532
 8665TIP3    H247411   5.446   1.505  11.577 -0.5512  0.7438 -0.6606
 8666TIP3   OH247412   4.128   2.009  11.218 -1.0273  0.3060 -0.8674
 8666TIP3    H147413   4.078   1.959  11.282  0.5763  0.0666  0.2531
 8666TIP3    H247414   4.070   2.081  11.192 -1.9865 -0.0417  0.2654
 8667TIP3   OH247415   6.035   6.591   4.742 -1.3162  0.1064 -0.1293
 8667TIP3    H147416   6.087   6.589   4.823  1.4692  0.5966 -1.7447
 8667TIP3    H247417   6.020   6.684   4.726 -0.8329  0.0883 -0.7341
 8668TIP3   OH247418   5.597   5.062   4.623  0.7611 -0.6778  0.4960
 8668TIP3    H147419   5.536   4.990   4.608 -0.1898  0.1608  0.1925
 8668TIP3    H247420   5.673   5.021   4.665  0.5639 -1.9638 -0.3398
 8669TIP3   OH247421   1.888   4.885   4.789  0.5926 -0.9642  0.2663
 8669TIP3    H147422   1.976   4.920   4.791  0.2427  0.1117 -1.5538
 8669TIP3    H247423   1.839   4.938   4.852  1.1881 -1.5179  1.2244
 8670TIP3   OH247424   6.510   4.514   2.146 -0.0620 -0.0057 -0.2588
 8670TIP3    H147425   6.528   4.541   2.236 -0.1793  1.2661 -0.6101
 8670TIP3    H247426   6.425   4.471   2.150 -1.3241  2.3715 -0.1680
 8671TIP3   OH247427   4.866   3.326  11.330 -0.2493 -0.3680  0.2798
 8671TIP3    H147428   4.953   3.287  11.339  0.2476  0.4752 -0.6370
 8671TIP3    H247429   4.835   3.294  11.245  0.5578  1.8940 -0.9373
 8672TIP3   OH247430   5.176   0.577   2.627  0.1176  0.0190 -0.1488
 8672TIP3    H147431   5.128   0.528   2.560  0.4704 -1.1573  0.4366
 8672TIP3    H247432   5.192   0.663   2.587 -3.0595  0.7320 -0.1226
 8673TIP3   OH247433   6.042   1.110   6.064 -0.3325  0.1979 -0.3904
 8673TIP3    H147434   6.101   1.054   6.015 -1.3804 -1.5804  0.2653
 8673TIP3    H247435   5.958   1.103   6.019 -0.4059  1.5777 -0.5153
 8674TIP3   OH247436   1.039   3.768   1.719 -0.3043 -0.1067 -0.5932
 8674TIP3    H147437   1.082   3.696   1.673  0.8644  0.8729 -1.0778
 8674TIP3    H247438   1.107   3.805   1.775 -0.6085  1.2453 -1.0844
 8675TIP3   OH247439   0.676   4.243  13.197  0.5687 -0.0634  0.3410
 8675TIP3    H147440   0.770   4.244  13.209  0.5021 -1.0067  0.9716
 8675TIP3    H247441   0.657   4.327  13.155  1.6237  0.3343  0.6265
 8676TIP3   OH247442   1.424   0.115   5.287  0.2434 -0.2281 -0.4547
 8676TIP3    H147443   1.421   0.175   5.361 -2.8487 -0.0347 -0.5862
 8676TIP3    H247444   1.382   0.035   5.319  1.1169 -1.0603 -1.3078
 8677TIP3   OH247445   3.153   0.642  11.190  0.2537 -0.0560 -0.5181
 8677TIP3    H147446   3.172   0.700  11.117 -1.0400  0.7679 -0.2188
 8677TIP3    H247447   3.080   0.588  11.160 -0.0672  0.0638  0.0385
 8678TIP3   OH247448   1.957   2.494   5.716 -0.1565  0.5631 -0.1745
 8678TIP3    H147449   1.996   2.534   5.639  1.7512 -2.4154 -0.9131
 8678TIP3    H247450   2.019   2.425   5.741 -2.5469 -1.0494  1.7490
 8679TIP3   OH247451   0.400   4.303  15.179 -0.2236 -0.3211  0.1430
 8679TIP3    H147452   0.419   4.228  15.234 -0.0508  0.2161  0.8177
 8679TIP3    H247453   0.377   4.373  15.240  0.5818  0.4565 -0.4263
 8680TIP3   OH247454   1.471   3.885  11.603 -0.4254 -0.3535 -0.2036
 8680TIP3    H147455   1.481   3.887  11.507 -0.4909 -0.8023 -0.2205
 8680TIP3    H247456   1.561   3.890  11.636 -0.2657 -2.0450 -0.3189
 8681TIP3   OH247457   6.653   6.378  11.993 -0.0494  0.4361 -0.1653
 8681TIP3    H147458   6.657   6.301  11.937  2.0073 -1.2151  2.0399
 8681TIP3    H247459   6.561   6.386  12.017 -0.0777 -2.7199  1.2228
 8682TIP3   OH247460   3.032   3.862  15.856 -0.2652  0.2861 -0.1325
 8682TIP3    H147461   2.988   3.839  15.775  0.7475 -0.9797 -0.3526
 8682TIP3    H247462   2.963   3.897  15.912 -1.1909  0.0603 -1.1062
 8683TIP3   OH247463   3.900   5.833   1.794  0.1127 -0.6488  0.9317
 8683TIP3    H147464   3.845   5.826   1.716  0.1879  1.1113  0.6867
 8683TIP3    H247465   3.852   5.786   1.862 -1.6905  0.8205  0.7251
 8684TIP3   OH247466   0.216   1.931   4.026 -0.1953 -0.7909  0.5885
 8684TIP3    H147467   0.131   1.947   4.066  0.2434 -0.9300  1.5945
 8684TIP3    H247468   0.247   1.849   4.066  0.7304 -0.3647  0.7689
 8685TIP3   OH247469   5.440   3.193   4.632 -0.3009  0.4328 -0.4575
 8685TIP3    H147470   5.422   3.122   4.571 -0.7038  1.3168 -1.4014
 8685TIP3    H247471   5.421   3.273   4.582 -0.1010  1.1964  0.6513
 8686TIP3   OH247472   1.820   4.332   2.643  0.5318  0.2924  0.3102
 8686TIP3    H147473   1.782   4.261   2.694 -1.1670 -0.1674 -1.4580
 8686TIP3    H247474   1.780   4.324   2.556 -0.2415  3.7530  0.1694
 8687TIP3   OH247475   4.612   2.000  11.545 -0.0279  0.7234  0.5689
 8687TIP3    H147476   4.520   1.976  11.555  0.3116 -0.7904  0.3020
 8687TIP3    H247477   4.646   2.005  11.634 -1.3319  5.8429  1.1268
 8688TIP3   OH247478   6.043   3.309  14.997  0.1576  0.2139 -0.4971
 8688TIP3    H147479   5.950   3.299  15.018  0.1133 -0.4972 -1.0101
 8688TIP3    H247480   6.053   3.266  14.912  0.5854  1.9035 -1.3555
 8689TIP3   OH247481   4.718   0.289   3.309  0.3630  0.3452 -0.4314
 8689TIP3    H147482   4.674   0.205   3.322  2.3912 -0.9133 -1.1469
 8689TIP3    H247483   4.693   0.342   3.385  0.0806 -1.3752  0.7149
 8690TIP3   OH247484   2.378   0.566   3.730 -0.7553 -0.4399 -0.1976
 8690TIP3    H147485   2.294   0.527   3.752 -0.4381 -0.8108  0.3797
 8690TIP3    H247486   2.381   0.563   3.634 -1.0931 -1.0799 -0.1975
 8691TIP3   OH247487   1.035   4.146  15.592  0.1007  0.2290  0.2664
 8691TIP3    H147488   0.993   4.063  15.571 -0.4627  0.3195  0.9989
 8691TIP3    H247489   0.971   4.213  15.569  0.3184  0.4309  0.2405
 8692TIP3   OH247490   6.420   5.592   1.052 -0.0740 -0.0216 -0.1110
 8692TIP3    H147491   6.422   5.655   1.124 -1.9555 -0.3609  0.3096
 8692TIP3    H247492   6.333   5.604   1.013  0.3812 -0.8244 -1.4210
 8693TIP3   OH247493   5.549   6.812   4.558  0.1561  0.2784  0.4156
 8693TIP3    H147494   5.540   6.736   4.615 -2.0982 -1.9508 -2.5925
 8693TIP3    H247495   5.607   6.783   4.488  1.7722  2.4892  0.7151
 8694TIP3   OH247496   6.234   5.406  14.434  0.9304  0.2583  1.1283
 8694TIP3    H147497   6.259   5.477  14.493  1.2886  0.7922  0.3559
 8694TIP3    H247498   6.318   5.372  14.401  0.7145  1.0615 -0.3269
 8695TIP3   OH247499   4.617   6.763  12.176 -0.1286  0.0837 -0.3299
 8695TIP3    H147500   4.568   6.680  12.176  0.5325 -0.3109 -0.2464
 8695TIP3    H247501   4.702   6.741  12.212 -0.2842  1.0142  0.6588
 8696TIP3   OH247502   5.305   5.625  12.091 -0.0840  0.7714 -0.6336
 8696TIP3    H147503   5.374   5.678  12.132 -0.5493  1.2542 -0.4593
 8696TIP3    H247504   5.349   5.543  12.067  0.1250  0.2915  1.2016
 8697TIP3   OH247505   6.181   2.607   1.748 -0.1121 -0.0258 -0.2569
 8697TIP3    H147506   6.160   2.664   1.823 -1.2399 -0.0973 -0.5086
 8697TIP3    H247507   6.110   2.542   1.746  0.6940 -0.9224 -0.5044
 8698TIP3   OH247508   2.206   5.629  16.884 -0.3650  0.1009 -0.3493
 8698TIP3    H147509   2.166   5.565  16.943 -0.9418  0.5345 -0.2563
 8698TIP3    H247510   2.152   5.625  16.805  1.2200 -1.4719 -1.4208
 8699TIP3   OH247511   0.819   5.316   2.627 -0.3496 -0.2044 -0.2357
 8699TIP3    H147512   0.875   5.239   2.641 -2.3574 -1.4225  1.9490
 8699TIP3    H247513   0.755   5.286   2.563 -1.1727 -0.4285  0.6672
 8700TIP3   OH247514   6.178   5.675   5.311 -0.0142  0.1792 -0.2991
 8700TIP3    H147515   6.235   5.745   5.344 -0.9127  0.6605  0.2827
 8700TIP3    H247516   6.224   5.640   5.235  1.2170  0.3161  0.3639
 8701TIP3   OH247517   2.081   5.690  12.179 -0.3282 -0.1088 -0.1439
 8701TIP3    H147518   2.144   5.704  12.250  1.0241  0.8202 -1.4367
 8701TIP3    H247519   2.029   5.771  12.178 -0.3627 -0.1321 -0.1838
 8702TIP3   OH247520   4.238   0.075  15.259  0.7548 -0.1859  0.7006
 8702TIP3    H147521   4.183  -0.003  15.251 -0.3127  0.7154 -2.3425
 8702TIP3    H247522   4.202   0.123  15.334 -2.2500 -0.0097 -0.6946
 8703TIP3   OH247523   3.999   5.816  15.158 -0.0060 -0.2016 -0.1724
 8703TIP3    H147524   3.931   5.803  15.091 -0.5639 -0.5090  0.4434
 8703TIP3    H247525   4.028   5.727  15.179  1.4371 -0.0214 -1.2770
 8704TIP3   OH247526   4.746   0.947   4.808  0.2093 -0.1512 -0.0824
 8704TIP3    H147527   4.687   1.022   4.813 -1.4480 -1.4334  0.7376
 8704TIP3    H247528   4.789   0.945   4.894 -2.2821 -2.0025  1.2616
 8705TIP3   OH247529   5.051   1.620   3.609  0.1901 -0.6369  0.4929
 8705TIP3    H147530   5.096   1.588   3.531 -1.1191 -0.3229 -0.4236
 8705TIP3    H247531   5.115   1.676   3.652 -0.3507  2.7875 -2.6607
 8706TIP3   OH247532   5.191   3.668   6.443  1.0224 -0.1713 -0.6744
 8706TIP3    H147533   5.182   3.577   6.413  2.4465 -0.9909  1.2149
 8706TIP3    H247534   5.135   3.673   6.520 -0.5996  1.1842 -1.8707
 8707TIP3   OH247535   0.713   4.422  15.088 -0.2599  0.4042 -0.1008
 8707TIP3    H147536   0.640   4.417  15.150 -0.4295  1.1452 -0.2427
 8707TIP3    H247537   0.772   4.488  15.125  1.4693 -1.6838  1.1881
 8708TIP3   OH247538   3.584   1.789  11.165 -0.1324 -0.6839  0.6445
 8708TIP3    H147539   3.665   1.775  11.116 -1.4122 -2.9554 -1.0209
 8708TIP3    H247540   3.611   1.783  11.257  1.8106  0.3292  0.1931
 8709TIP3   OH247541   2.093   2.882   4.422  0.3774  0.1304  0.5527
 8709TIP3    H147542   2.068   2.796   4.456  0.5438 -1.6098 -3.1749
 8709TIP3    H247543   2.187   2.873   4.401  0.3244  1.0953 -0.1593
 8710TIP3   OH247544   0.456   3.350   1.094  0.2249  0.4650 -0.2892
 8710TIP3    H147545   0.517   3.289   1.135 -0.4617 -0.1017 -0.0794
 8710TIP3    H247546   0.397   3.294   1.043  0.1734  1.0424 -0.8772
 8711TIP3   OH247547   1.182   2.382   1.581 -0.2781  0.6116 -0.1130
 8711TIP3    H147548   1.119   2.420   1.642  0.4409  1.9314 -0.1416
 8711TIP3    H247549   1.265   2.426   1.602 -0.0060  1.0871 -1.9925
 8712TIP3   OH247550   4.346   6.360   3.159 -0.6388  0.4431  0.3847
 8712TIP3    H147551   4.375   6.327   3.244  0.0281  1.6646  0.6524
 8712TIP3    H247552   4.339   6.282   3.104 -0.5811 -0.3019  1.4153
 8713TIP3   OH247553   5.270   1.477   5.723  0.6164 -0.3478 -0.5932
 8713TIP3    H147554   5.302   1.558   5.683 -0.1942 -0.3427 -1.2597
 8713TIP3    H247555   5.294   1.484   5.815  0.7372  0.5527 -0.6875
 8714TIP3   OH247556   2.827   2.623   3.561  0.2549  0.4460 -0.0871
 8714TIP3    H147557   2.820   2.687   3.490  0.0943  1.9930  1.2571
 8714TIP3    H247558   2.752   2.641   3.617 -0.4808 -1.7745 -0.2743
 8715TIP3   OH247559   5.817   1.101   5.928  0.3003  0.2416  0.2491
 8715TIP3    H147560   5.750   1.052   5.976  0.6466 -0.2870  0.2046
 8715TIP3    H247561   5.794   1.192   5.941 -0.3938  0.0674  0.2901
 8716TIP3   OH247562   3.892   4.024  14.285 -0.1126 -0.1221 -0.4730
 8716TIP3    H147563   3.884   3.941  14.238  0.2426  0.7287 -2.0999
 8716TIP3    H247564   3.840   4.012  14.364  0.4611 -2.1158 -0.3537
 8717TIP3   OH247565   2.274   1.466  15.565  0.3197 -0.3082 -0.4272
 8717TIP3    H147566   2.344   1.401  15.569 -0.6534 -1.3281  0.6301
 8717TIP3    H247567   2.269   1.503  15.653  1.3684  1.8235 -1.1793
 8718TIP3   OH247568   3.314   1.431   3.982  0.1464  0.0136  0.0705
 8718TIP3    H147569   3.267   1.514   3.973  0.0600  0.0369  0.6898
 8718TIP3    H247570   3.331   1.403   3.892  0.1149  0.6657 -0.1421
 8719TIP3   OH247571   6.369   1.108  13.183 -0.0886 -0.3156  0.3771
 8719TIP3    H147572   6.355   1.043  13.114  1.5881 -0.7544  0.4024
 8719TIP3    H247573   6.459   1.138  13.170 -0.7079  1.7998  0.5599
 8720TIP3   OH247574   4.048   1.664   4.891  0.5987 -0.1186 -0.0707
 8720TIP3    H147575   4.051   1.758   4.873  0.2572  0.0042  0.4696
 8720TIP3    H247576   4.121   1.649   4.952  1.4521 -0.4443 -1.1294
 8721TIP3   OH247577   4.992   5.240  16.066  0.1710 -0.6869  0.7110
 8721TIP3    H147578   4.991   5.145  16.060 -1.7693 -0.6196 -1.0165
 8721TIP3    H247579   5.035   5.269  15.985  0.3137 -0.0736  0.9971
 8722TIP3   OH247580   0.801   0.215  11.829  0.0570 -0.1144  0.0406
 8722TIP3    H147581   0.795   0.163  11.909 -1.1774  0.5450  0.4232
 8722TIP3    H247582   0.746   0.292  11.847  0.7869  0.6730 -0.9717
 8723TIP3   OH247583   2.712   5.176  13.021  0.1622 -0.1400  0.7387
 8723TIP3    H147584   2.793   5.224  13.033 -0.4230  1.0658  0.0707
 8723TIP3    H247585   2.724   5.095  13.070  1.7339  0.0447  0.6943
 8724TIP3   OH247586   3.223   1.817  15.299  0.0803  0.1211  0.1106
 8724TIP3    H147587   3.298   1.796  15.354 -0.1380  0.0515  0.3839
 8724TIP3    H247588   3.211   1.739  15.244  0.6372  0.4072 -0.4218
 8725TIP3   OH247589   2.971   0.756  15.780 -0.3115  0.2451 -0.1805
 8725TIP3    H147590   2.889   0.763  15.830 -1.6514 -0.2830 -2.1656
 8725TIP3    H247591   3.037   0.794  15.837 -2.0741  1.4455  1.1901
 8726TIP3   OH247592   6.451   5.287   3.875  0.4713  0.5044  0.0269
 8726TIP3    H147593   6.390   5.240   3.932  2.3538 -2.0346  0.0922
 8726TIP3    H247594   6.412   5.281   3.788 -0.8475  1.6309  0.5043
 8727TIP3   OH247595   5.791   4.981  12.682 -0.0508  0.6066  0.6888
 8727TIP3    H147596   5.856   4.979  12.611  0.3658 -0.8111  1.0923
 8727TIP3    H247597   5.801   5.069  12.719 -1.7850  2.2754 -2.3379
 8728TIP3   OH247598   5.280   4.423  11.720  0.5624  0.1465 -0.2673
 8728TIP3    H147599   5.341   4.473  11.774  0.7627  1.4326 -1.6066
 8728TIP3    H247600   5.198   4.473  11.723  0.7072  0.4936 -1.4697
 8729TIP3   OH247601   5.461   5.516   1.945 -0.0210  0.1097 -0.0471
 8729TIP3    H147602   5.432   5.575   1.875 -0.1226  0.3792  0.2208
 8729TIP3    H247603   5.394   5.523   2.012  1.1162  1.5128  1.0283
 8730TIP3   OH247604   2.122   1.028  16.421 -0.4298 -0.3125 -0.3943
 8730TIP3    H147605   2.051   0.991  16.473  1.1998 -1.2361  1.2763
 8730TIP3    H247606   2.177   0.953  16.397  0.4617  0.4739 -0.8962
 8731TIP3   OH247607   5.416   2.186  16.734  0.1936 -0.5067  0.5603
 8731TIP3    H147608   5.339   2.158  16.784  0.9596 -1.9535  0.9977
 8731TIP3    H247609   5.383   2.251  16.672 -1.6750 -2.1149 -0.2461
 8732TIP3   OH247610   0.964   3.587   4.392 -0.3910  0.0011  0.1806
 8732TIP3    H147611   1.003   3.674   4.399 -1.7731  0.7192 -0.6664
 8732TIP3    H247612   0.937   3.566   4.481 -0.3980  0.6210  0.3306
 8733TIP3   OH247613   0.388   4.264   3.440 -1.5041  0.7637  0.2940
 8733TIP3    H147614   0.305   4.228   3.471 -0.5102 -2.3127 -0.2904
 8733TIP3    H247615   0.453   4.232   3.502 -0.1176 -1.5825 -2.1241
 8734TIP3   OH247616   4.998   4.260   2.131 -0.7551 -0.0243  0.3799
 8734TIP3    H147617   5.002   4.307   2.048 -1.6188  0.2568  0.4961
 8734TIP3    H247618   4.944   4.315   2.188  0.9345  0.4718  1.5917
 8735TIP3   OH247619   1.059   5.493  13.961 -0.1265 -0.3360 -0.0424
 8735TIP3    H147620   1.122   5.421  13.973  0.8583  0.7299  1.4629
 8735TIP3    H247621   0.982   5.466  14.012  0.0391 -0.5483  0.0983
 8736TIP3   OH247622   4.718   1.994   1.629 -0.6816 -0.1768 -0.2895
 8736TIP3    H147623   4.669   1.925   1.673 -1.2001  0.3382 -0.0490
 8736TIP3    H247624   4.721   2.066   1.692 -0.5186  0.1824 -0.6963
 8737TIP3   OH247625   2.006   4.703  13.470 -0.0542 -0.2062 -0.1485
 8737TIP3    H147626   1.918   4.729  13.442  0.8065  1.0254 -1.8939
 8737TIP3    H247627   2.061   4.780  13.453  1.4201 -1.0317  0.6556
 8738TIP3   OH247628   3.490   0.813   0.601 -0.1041  0.3661 -0.0417
 8738TIP3    H147629   3.423   0.745   0.596  0.0524  0.2852 -1.4079
 8738TIP3    H247630   3.459   0.872   0.670 -0.4107 -0.8840  0.9233
 8739TIP3   OH247631   0.532   4.989  11.662  0.2300  0.1115  0.6314
 8739TIP3    H147632   0.442   4.954  11.660  0.2626  0.0140 -1.2401
 8739TIP3    H247633   0.587   4.914  11.641  0.4438  0.8102 -1.6070
 8740TIP3   OH247634   1.131   1.540   1.302 -0.5756 -0.1140 -0.2076
 8740TIP3    H147635   1.122   1.635   1.309  2.3741  0.1670  1.6366
 8740TIP3    H247636   1.190   1.527   1.228 -1.1515 -0.5362 -0.5989
 8741TIP3   OH247637   1.967   0.466   2.000 -0.2985 -0.4839  0.1130
 8741TIP3    H147638   2.039   0.525   2.023 -0.4284  0.3317 -1.4566
 8741TIP3    H247639   1.929   0.441   2.085  1.5644 -0.6222  0.9506
 8742TIP3   OH247640   2.033   0.895   1.744  0.2382 -0.2176 -0.3185
 8742TIP3    H147641   2.012   0.941   1.825 -0.6291 -0.4238 -0.4112
 8742TIP3    H247642   2.006   0.955   1.674  2.3692  0.6092 -0.5148
 8743TIP3   OH247643   3.266   4.115   1.156  0.0897  0.1334 -0.2163
 8743TIP3    H147644   3.174   4.102   1.179 -0.0827  1.3855 -0.0990
 8743TIP3    H247645   3.315   4.075   1.227 -0.3111 -1.9525 -1.0509
 8744TIP3   OH247646   2.624   2.749   3.824  0.0858 -0.0498 -0.0147
 8744TIP3    H147647   2.566   2.781   3.894 -0.9366  0.1953 -0.9568
 8744TIP3    H247648   2.571   2.685   3.777 -0.0120  1.2977 -1.8519
 8745TIP3   OH247649   1.158   2.692   1.662 -0.3282 -0.2324  0.0330
 8745TIP3    H147650   1.107   2.624   1.705 -0.8619 -0.2753 -0.6570
 8745TIP3    H247651   1.107   2.715   1.585 -0.5057  1.4411  0.6131
 8746TIP3   OH247652   1.085   0.825  15.264 -0.4951  0.7933  0.4033
 8746TIP3    H147653   1.004   0.802  15.218 -0.6757 -0.7246  1.4361
 8746TIP3    H247654   1.076   0.788  15.351  1.5004  0.1882  0.4149
 8747TIP3   OH247655   2.329   3.924   4.345  0.0085 -0.1091  0.4649
 8747TIP3    H147656   2.412   3.966   4.320  0.4373 -0.4761  1.2493
 8747TIP3    H247657   2.299   3.973   4.421 -1.7656  1.5937 -1.1958
 8748TIP3   OH247658   4.394   1.440   5.681  0.9017  0.3412 -0.5178
 8748TIP3    H147659   4.332   1.511   5.699  1.7123  1.3251 -1.4995
 8748TIP3    H247660   4.480   1.479   5.693  1.4924 -1.6544  3.4128
 8749TIP3   OH247661   3.182   2.787  12.370 -0.5343  0.5938 -0.1520
 8749TIP3    H147662   3.196   2.858  12.434  0.3218  1.2159 -0.9981
 8749TIP3    H247663   3.153   2.833  12.291  0.7989  0.0866 -0.9562
 8750TIP3   OH247664   1.897   6.009  16.287 -0.0903  0.1597 -0.2744
 8750TIP3    H147665   1.883   6.090  16.337  1.0156  0.0951  0.1707
 8750TIP3    H247666   1.822   5.954  16.310 -0.5653  0.8487 -0.1444
 8751TIP3   OH247667   5.037   2.628   3.504 -0.0795  0.2802 -0.4111
 8751TIP3    H147668   5.120   2.675   3.509  0.3572 -0.4610 -0.5962
 8751TIP3    H247669   4.972   2.691   3.535  0.2482  1.5992 -2.2518
 8752TIP3   OH247670   4.231   4.890  11.224  0.2760 -0.8876 -0.0266
 8752TIP3    H147671   4.321   4.910  11.199  0.7220 -0.0661  2.0635
 8752TIP3    H247672   4.187   4.975  11.226  0.2211 -0.9237  1.6751
 8753TIP3   OH247673   2.040   3.549  15.500  0.3985  0.1806  0.6585
 8753TIP3    H147674   2.042   3.552  15.596 -0.8609 -3.4365  0.9590
 8753TIP3    H247675   1.988   3.471  15.480  2.2409 -0.3217 -2.9443
 8754TIP3   OH247676   6.113   0.638  13.145  0.1564  0.0425 -0.3293
 8754TIP3    H147677   6.076   0.552  13.164 -2.2272  1.0822  0.0581
 8754TIP3    H247678   6.171   0.656  13.220  0.3510 -1.0296 -0.2091
 8755TIP3   OH247679   1.226   3.012   5.912  0.3063 -0.7293 -0.3693
 8755TIP3    H147680   1.142   3.024   5.955  0.6718 -1.2060  0.5125
 8755TIP3    H247681   1.217   3.055   5.828 -1.4617 -2.4369 -1.1192
 8756TIP3   OH247682   4.613   2.300   1.594 -0.3296 -0.5017  0.0875
 8756TIP3    H147683   4.546   2.241   1.627 -0.1432 -1.8621 -1.8105
 8756TIP3    H247684   4.577   2.336   1.513  0.9209 -0.7284 -0.6091
 8757TIP3   OH247685   3.559   3.266   1.010  0.8756 -0.3009  0.1489
 8757TIP3    H147686   3.522   3.211   0.941 -1.0097 -0.9657  1.5875
 8757TIP3    H247687   3.525   3.354   0.993 -0.5093 -0.6789  0.7928
 8758TIP3   OH247688   4.799   5.432  14.449 -0.1989 -0.3734 -0.0879
 8758TIP3    H147689   4.885   5.468  14.429 -0.0707 -0.5495  0.1370
 8758TIP3    H247690   4.738   5.502  14.427 -0.0101 -0.3020 -0.3945
 8759TIP3   OH247691   5.613   4.833   4.122  0.0580  0.3899  0.1680
 8759TIP3    H147692   5.590   4.845   4.215 -1.8137  0.6438 -0.2936
 8759TIP3    H247693   5.700   4.873   4.114 -0.1511  1.2247  1.6101
 8760TIP3   OH247694   3.662   6.528   2.484  0.2617 -0.4086 -0.2033
 8760TIP3    H147695   3.729   6.571   2.537 -0.3857  0.2466  0.0982
 8760TIP3    H247696   3.582   6.535   2.537 -0.0036 -1.3683 -0.4601
 8761TIP3   OH247697   2.699   6.596  12.024 -0.1774 -0.0577  0.1944
 8761TIP3    H147698   2.675   6.527  11.962  0.1175  0.6580 -0.7343
 8761TIP3    H247699   2.791   6.580  12.043 -0.0889  0.1243 -0.0799
 8762TIP3   OH247700   6.727   2.681   2.275  0.4713  0.4024  0.1641
 8762TIP3    H147701   6.679   2.761   2.256  0.5016  0.7371  1.4024
 8762TIP3    H247702   6.667   2.610   2.249 -0.4542  0.8160  1.0798
 8763TIP3   OH247703   6.651   2.013   4.920 -0.0306  0.5230  0.4693
 8763TIP3    H147704   6.586   2.030   4.852 -1.5081 -0.4850  1.5551
 8763TIP3    H247705   6.640   2.084   4.982 -0.8378 -0.1710  1.1517
 8764TIP3   OH247706   6.366   1.951  15.908  0.0019  0.0381 -0.8792
 8764TIP3    H147707   6.294   1.984  15.854 -1.5988 -0.6807  0.7174
 8764TIP3    H247708   6.323   1.909  15.983  2.0772 -0.9957 -0.1846
 8765TIP3   OH247709   5.716   2.950   3.195  0.3994  0.0980  0.3232
 8765TIP3    H147710   5.806   2.945   3.162  0.0178 -1.2125 -0.6339
 8765TIP3    H247711   5.687   3.039   3.176  0.2576 -0.5332 -2.8686
 8766TIP3   OH247712   1.372   6.317   1.031  0.4709 -0.0147  0.0285
 8766TIP3    H147713   1.337   6.335   0.944 -0.1998 -2.2879 -0.2287
 8766TIP3    H247714   1.466   6.302   1.017  0.5011  0.3493 -0.1707
 8767TIP3   OH247715   3.436   4.224   2.862 -0.3036  0.2221 -0.6938
 8767TIP3    H147716   3.464   4.167   2.791  0.9020 -0.0995  0.0185
 8767TIP3    H247717   3.445   4.171   2.941 -1.7786  0.5206 -0.2784
 8768TIP3   OH247718   0.638   4.013   1.704  0.7877  0.3858 -0.3900
 8768TIP3    H147719   0.693   4.004   1.781  1.4613  0.2213 -0.8851
 8768TIP3    H247720   0.685   3.966   1.634 -0.7861 -1.2727 -0.4225
 8769TIP3   OH247721   3.977   2.965   4.824 -0.1403  0.1588  0.0266
 8769TIP3    H147722   3.951   3.017   4.748  0.7630 -0.1725 -0.5288
 8769TIP3    H247723   3.928   3.002   4.897 -2.1134 -0.4288 -0.9545
 8770TIP3   OH247724   1.835   4.552  14.954 -0.0537  0.6826  0.2178
 8770TIP3    H147725   1.848   4.483  15.019 -0.2094  0.8734  0.4559
 8770TIP3    H247726   1.866   4.514  14.872  1.1913  0.8211  0.6011
 8771TIP3   OH247727   0.487   3.659  13.865 -0.4161 -0.0695 -0.1425
 8771TIP3    H147728   0.533   3.601  13.926 -0.0511  1.1772  0.8212
 8771TIP3    H247729   0.403   3.676  13.907  0.2119  1.5693  0.5488
 8772TIP3   OH247730   6.711   5.604   2.958  0.4457 -0.0522 -0.2998
 8772TIP3    H147731   6.733   5.664   3.029  0.8742 -0.6693  0.0977
 8772TIP3    H247732   6.615   5.601   2.958  0.2729 -3.3894  3.2348
 8773TIP3   OH247733   0.113   0.636   1.272  0.1767  0.1172 -0.5849
 8773TIP3    H147734   0.025   0.665   1.296  0.8324  1.4015  0.4610
 8773TIP3    H247735   0.170   0.684   1.332  1.5439 -1.3285 -0.6759
 8774TIP3   OH247736   2.858   6.366  13.476  0.1846 -0.3573  0.1032
 8774TIP3    H147737   2.850   6.274  13.501 -0.8518  0.0075  1.2325
 8774TIP3    H247738   2.847   6.414  13.558 -1.2312  0.8286 -0.7350
 8775TIP3   OH247739   5.192   3.954  11.855  0.2850 -0.0853 -0.2970
 8775TIP3    H147740   5.132   4.027  11.842 -0.4014 -0.4491  0.6451
 8775TIP3    H247741   5.136   3.877  11.854  0.7230 -0.4358  0.6175
 8776TIP3   OH247742   2.263   1.717  15.763 -0.4217  0.1269  0.5420
 8776TIP3    H147743   2.206   1.768  15.705  0.8782  1.7954  0.6698
 8776TIP3    H247744   2.341   1.698  15.710 -1.9918 -4.5413 -0.6275
 8777TIP3   OH247745   3.363   2.046  10.733  0.1393 -0.1573  0.1070
 8777TIP3    H147746   3.335   1.955  10.743  2.2027 -0.8803 -0.1728
 8777TIP3    H247747   3.324   2.074  10.650 -0.4278 -0.8120  0.1387
 8778TIP3   OH247748   6.375   0.882   0.080  0.2165  0.1959 -0.6362
 8778TIP3    H147749   6.282   0.907   0.082  0.2295  0.2988 -1.0841
 8778TIP3    H247750   6.386   0.825   0.155  0.2938  1.9227  0.7349
 8779TIP3   OH247751   0.240   4.389  12.167  0.7524  0.0285  0.0973
 8779TIP3    H147752   0.155   4.403  12.208  1.0277 -1.5000  1.2961
 8779TIP3    H247753   0.235   4.435  12.083 -2.6700 -3.1170 -1.6968
 8780TIP3   OH247754   4.902   1.861  12.991  0.1162  0.7129  0.3712
 8780TIP3    H147755   4.957   1.916  12.935 -0.3780  1.1334  0.2858
 8780TIP3    H247756   4.954   1.849  13.071  1.2655 -0.7533 -0.5529
 8781TIP3   OH247757   2.707   2.852   2.896  0.2215  0.7392  0.4659
 8781TIP3    H147758   2.655   2.917   2.944  0.8819  0.5871  1.4174
 8781TIP3    H247759   2.758   2.807   2.964  1.7164  0.9885 -0.4368
 8782TIP3   OH247760   5.966   4.177   6.313  0.0252 -0.3869  0.1939
 8782TIP3    H147761   6.043   4.140   6.356  0.9656  1.1675 -0.0816
 8782TIP3    H247762   5.910   4.208   6.384  0.1979 -0.4725  0.3659
 8783TIP3   OH247763   2.403   5.341   1.663  0.1604 -0.1661 -0.1393
 8783TIP3    H147764   2.467   5.270   1.656  1.3496  0.8756 -0.3646
 8783TIP3    H247765   2.329   5.303   1.710  2.0310 -0.7125  2.5678
 8784TIP3   OH247766   2.718   6.070   0.703 -0.1005  0.2418 -0.3318
 8784TIP3    H147767   2.626   6.052   0.723 -0.3110 -0.7889 -1.9962
 8784TIP3    H247768   2.743   6.138   0.765 -2.2758  1.2629 -0.4577
 8785TIP3   OH247769   6.730   4.439  15.386  0.9008 -0.2003 -0.5764
 8785TIP3    H147770   6.777   4.398  15.313 -1.2580 -2.0351 -1.0885
 8785TIP3    H247771   6.700   4.365  15.439 -2.6979  0.6145 -1.1880
 8786TIP3   OH247772   0.278   3.353   2.421 -0.3190  0.0211 -0.1478
 8786TIP3    H147773   0.243   3.290   2.359  0.5027 -0.3442 -0.2513
 8786TIP3    H247774   0.285   3.434   2.371 -0.5045 -0.0392 -0.2743
 8787TIP3   OH247775   2.491   5.298  13.294 -0.5417  0.0112 -0.4863
 8787TIP3    H147776   2.533   5.231  13.241 -2.0786  1.2775 -3.5129
 8787TIP3    H247777   2.550   5.374  13.288  0.2372 -0.4016  1.3251
 8788TIP3   OH247778   3.196   0.143   2.716 -0.1479  0.0513 -0.2725
 8788TIP3    H147779   3.124   0.141   2.778  0.4950  2.0643  0.5870
 8788TIP3    H247780   3.157   0.175   2.635 -0.6165 -0.9015 -0.4466
 8789TIP3   OH247781   6.262   1.586  12.351 -0.5574 -0.7765  0.8295
 8789TIP3    H147782   6.191   1.646  12.377 -0.8696 -1.0557  0.6257
 8789TIP3    H247783   6.283   1.538  12.431  0.4554  0.3645  1.2837
 8790TIP3   OH247784   6.050   4.008   3.800 -0.0921 -0.1137 -0.4837
 8790TIP3    H147785   5.991   4.026   3.874 -0.2183 -0.5106 -0.4893
 8790TIP3    H247786   5.991   4.001   3.725 -0.1535 -1.5502 -0.3283
 8791TIP3   OH247787   0.266   5.089  13.665  0.2161  0.0189  0.1170
 8791TIP3    H147788   0.197   5.104  13.600 -0.2656  0.5134  0.7302
 8791TIP3    H247789   0.298   5.001  13.647 -0.9050 -0.3977  0.1159
 8792TIP3   OH247790   3.522   4.914   0.741  0.6257 -0.2650 -0.3236
 8792TIP3    H147791   3.488   4.867   0.665  0.3602 -1.8367  0.7145
 8792TIP3    H247792   3.533   4.846   0.808 -0.6423  1.2579  1.5544
 8793TIP3   OH247793   4.406   1.900   4.892  0.2175 -0.1040  0.3909
 8793TIP3    H147794   4.457   1.910   4.812 -2.3649  0.0247 -1.3262
 8793TIP3    H247795   4.345   1.973   4.892 -1.4909 -1.4510  1.1849
 8794TIP3   OH247796   5.447   5.847   4.715 -0.2676 -0.0789  0.2230
 8794TIP3    H147797   5.501   5.858   4.636 -0.3080  0.0180  0.2083
 8794TIP3    H247798   5.358   5.869   4.686 -0.2200  0.3433  0.3916
 8795TIP3   OH247799   5.150   2.077  13.272 -1.0735 -0.1914 -0.3682
 8795TIP3    H147800   5.133   2.133  13.196  0.7296  2.2703  0.8891
 8795TIP3    H247801   5.126   2.132  13.347 -0.5773 -1.6590  0.9126
 8796TIP3   OH247802   4.191   1.295  10.543  0.0892  0.3048  0.0850
 8796TIP3    H147803   4.180   1.269  10.635 -2.0831 -3.6276 -1.0851
 8796TIP3    H247804   4.128   1.366  10.530  0.5870  1.0776  1.6065
 8797TIP3   OH247805   0.592   4.441   5.701  0.0998  0.3377 -0.5735
 8797TIP3    H147806   0.539   4.373   5.741  1.5316 -0.2268  0.4340
 8797TIP3    H247807   0.584   4.516   5.760  0.3701  0.2788 -0.4635
 8798TIP3   OH247808   5.738   6.705   3.799  0.2331  0.0853 -0.6295
 8798TIP3    H147809   5.779   6.628   3.760  0.4268  0.4982 -1.2516
 8798TIP3    H247810   5.694   6.748   3.726 -3.7300 -1.7736  0.3405
 8799TIP3   OH247811   5.314   4.599  14.327  0.2289 -0.3265  0.0402
 8799TIP3    H147812   5.286   4.508  14.318  2.3230 -0.9386 -0.8953
 8799TIP3    H247813   5.365   4.616  14.248  1.3861  1.0839  1.0389
 8800TIP3   OH247814   4.487   2.157  16.406 -0.0361  0.2172 -0.0855
 8800TIP3    H147815   4.438   2.228  16.447 -0.2557 -0.0039  0.0409
 8800TIP3    H247816   4.578   2.173  16.429 -0.2755 -0.5600  1.4857
 8801TIP3   OH247817   5.505   1.622  14.653  0.5417 -0.5160  0.6492
 8801TIP3    H147818   5.546   1.537  14.636 -0.3790 -0.4055 -2.8134
 8801TIP3    H247819   5.576   1.675  14.689  1.7802 -2.0699  0.6187
 8802TIP3   OH247820   4.746   6.101  14.102  0.6824 -0.0239  0.1079
 8802TIP3    H147821   4.778   6.188  14.082 -0.1515  0.2918  0.0961
 8802TIP3    H247822   4.678   6.085  14.036  0.5270 -0.5012  0.3764
 8803TIP3   OH247823   4.133   1.352   2.368 -1.1713 -0.1023  0.1527
 8803TIP3    H147824   4.223   1.330   2.390  0.6044  3.0953 -2.9366
 8803TIP3    H247825   4.094   1.269   2.340  1.5282 -1.2186 -0.5455
 8804TIP3   OH247826   1.366   0.420  11.787 -1.0106  0.2896  0.3815
 8804TIP3    H147827   1.314   0.378  11.718 -0.4864  0.2196  0.0239
 8804TIP3    H247828   1.423   0.481  11.739  1.5261 -1.8764  0.3944
 8805TIP3   OH247829   2.702   5.929   5.214  0.0251 -0.1937  0.3124
 8805TIP3    H147830   2.642   5.960   5.147 -1.5256 -0.8735  1.3424
 8805TIP3    H247831   2.704   5.834   5.203  2.8864 -0.0698 -1.2893
 8806TIP3   OH247832   5.335   5.762  11.106  0.0949  0.0324  0.2377
 8806TIP3    H147833   5.329   5.757  11.201 -0.7716  0.5062  0.2144
 8806TIP3    H247834   5.291   5.684  11.074  1.2303 -0.6319  0.2292
 8807TIP3   OH247835   4.218   1.617  15.782 -0.6040 -0.8265  0.4581
 8807TIP3    H147836   4.164   1.587  15.855  0.3334  1.7098  2.3409
 8807TIP3    H247837   4.157   1.660  15.723 -0.8311  2.4377  2.7860
 8808TIP3   OH247838   6.672   4.526   5.492  0.1032 -0.3631 -0.0846
 8808TIP3    H147839   6.665   4.618   5.467 -0.5442 -0.5396 -0.5770
 8808TIP3    H247840   6.632   4.478   5.419 -0.1142 -0.9962  0.4415
 8809TIP3   OH247841   4.308   3.173  16.842 -0.9243  0.2914  0.2599
 8809TIP3    H147842   4.319   3.266  16.862 -1.8685  0.4328  0.1614
 8809TIP3    H247843   4.374   3.155  16.775 -0.6653  0.8635  0.3547
 8810TIP3   OH247844   1.218   4.471   0.234 -0.0969  0.5953  0.5521
 8810TIP3    H147845   1.247   4.561   0.250 -0.3301  1.0398 -1.3389
 8810TIP3    H247846   1.263   4.444   0.154 -3.1808  0.5797 -1.3493
 8811TIP3   OH247847   4.962   6.273   5.094 -0.1343 -0.0338  0.1111
 8811TIP3    H147848   5.047   6.276   5.050 -0.5991  0.1707 -0.7840
 8811TIP3    H247849   4.984   6.275   5.187  0.8817 -1.0094 -0.0844
 8812TIP3   OH247850   0.346   5.901   2.317 -0.0537 -0.4580 -0.0087
 8812TIP3    H147851   0.385   5.830   2.369  0.7982 -0.6501 -0.8724
 8812TIP3    H247852   0.419   5.935   2.266 -0.7593  0.0872 -0.6705
 8813TIP3   OH247853   2.225   0.326  13.478 -0.0433  0.4999 -0.0092
 8813TIP3    H147854   2.188   0.330  13.390 -0.9804 -1.9189  0.2223
 8813TIP3    H247855   2.225   0.233  13.500 -1.0526  1.1154  3.0448
 8814TIP3   OH247856   1.971   2.165  14.076  0.4654 -0.7847  0.2071
 8814TIP3    H147857   1.896   2.212  14.039 -0.6058 -1.7545  1.0570
 8814TIP3    H247858   1.993   2.213  14.155  1.4891  0.1513 -0.6252
 8815TIP3   OH247859   4.896   1.248  16.589  0.5964 -0.1634  0.2440
 8815TIP3    H147860   4.840   1.325  16.594  1.5483  0.5528  0.0400
 8815TIP3    H247861   4.835   1.174  16.595 -0.2492  0.5894  1.2604
 8816TIP3   OH247862   5.734   2.656   0.419  0.4740  0.3172 -0.0285
 8816TIP3    H147863   5.807   2.681   0.362 -0.7196 -1.5874 -2.6174
 8816TIP3    H247864   5.656   2.685   0.371 -0.5779 -1.0735  0.7905
 8817TIP3   OH247865   5.369   6.752  16.509 -0.2821  0.1956 -0.2158
 8817TIP3    H147866   5.318   6.687  16.557  0.8857  0.0623  0.8870
 8817TIP3    H247867   5.304   6.803  16.460 -1.3272 -0.8821  0.0249
 8818TIP3   OH247868   3.944   1.679  13.755  0.2679 -0.4312 -0.3694
 8818TIP3    H147869   3.936   1.774  13.765  1.6908 -0.4436  1.3560
 8818TIP3    H247870   3.854   1.647  13.757 -0.1284  0.7035  1.2441
 8819TIP3   OH247871   0.759   4.705  12.542  0.2102  0.0213  0.5600
 8819TIP3    H147872   0.737   4.714  12.449 -0.2873 -1.1289  0.5547
 8819TIP3    H247873   0.789   4.792  12.568 -0.9804  0.7361 -0.3347
 8820TIP3   OH247874   4.183   0.113   2.840  0.0101  0.0119  0.1894
 8820TIP3    H147875   4.133   0.032   2.830  1.1316 -0.9827  2.1683
 8820TIP3    H247876   4.121   0.176   2.877 -0.1929 -0.7600  1.1891
 8821TIP3   OH247877   1.551   2.089  11.106 -0.0754  0.4294 -0.1405
 8821TIP3    H147878   1.512   2.118  11.024 -0.6485  0.0713 -0.0006
 8821TIP3    H247879   1.536   1.995  11.108  0.7784  0.2849 -0.0648
 8822TIP3   OH247880   5.382   4.450  14.579  0.2000 -0.0191 -0.5277
 8822TIP3    H147881   5.382   4.533  14.532  0.6943  1.0291  1.2330
 8822TIP3    H247882   5.289   4.429  14.590  0.0643 -0.7630 -2.6969
 8823TIP3   OH247883   4.285   2.893  10.749 -0.8434 -0.2082 -0.0033
 8823TIP3    H147884   4.343   2.931  10.683 -0.2069 -1.5552 -0.2557
 8823TIP3    H247885   4.262   2.966  10.806  0.5652  0.4929 -0.2956
 8824TIP3   OH247886   1.862   2.820  11.509 -0.2087  0.2167  0.4437
 8824TIP3    H147887   1.914   2.802  11.588  1.6519  2.5649 -0.1171
 8824TIP3    H247888   1.825   2.735  11.485 -0.7387 -0.6226  3.7188
 8825TIP3   OH247889   1.101   4.870  13.777  0.2744 -0.1491  0.0360
 8825TIP3    H147890   1.196   4.875  13.763  0.2521  1.5525  0.3161
 8825TIP3    H247891   1.084   4.929  13.850 -1.1186  0.2770 -0.5963
 8826TIP3   OH247892   1.003   4.995  13.991 -0.2641  0.4510  0.0028
 8826TIP3    H147893   0.969   4.948  14.067  0.4401 -1.0854 -0.6020
 8826TIP3    H247894   1.041   5.075  14.028  1.3698 -0.9403  1.4694
 8827TIP3   OH247895   0.147   5.318  13.796 -0.4082 -0.1596 -0.2618
 8827TIP3    H147896   0.205   5.243  13.785  0.3211  0.2411  0.6505
 8827TIP3    H247897   0.059   5.284  13.781 -0.3570 -1.8044  2.5991
 8828TIP3   OH247898   5.188   1.906   0.248 -0.3741  0.0168 -0.0236
 8828TIP3    H147899   5.163   1.825   0.203  2.1142 -1.4848  1.1082
 8828TIP3    H247900   5.224   1.878   0.332 -2.5826  2.5723  1.9696
 8829TIP3   OH247901   5.510   0.454  12.678 -0.4710  0.6462  0.0405
 8829TIP3    H147902   5.585   0.398  12.656 -0.6234 -0.1449  1.4208
 8829TIP3    H247903   5.532   0.539  12.639  0.9387  0.3136  0.0461
 8830TIP3   OH247904   3.595   0.396  16.977  0.5043  0.0046 -0.8313
 8830TIP3    H147905   3.539   0.361  16.907 -0.7135  0.3780 -0.0826
 8830TIP3    H247906   3.586   0.491  16.969  0.0327  0.0497  0.0485
 8831TIP3   OH247907   4.863   1.157   3.649  0.3911  0.2565  0.5730
 8831TIP3    H147908   4.785   1.115   3.613  1.7518 -0.1138 -2.2125
 8831TIP3    H247909   4.862   1.245   3.611  1.6823 -0.0123 -0.1433
 8832TIP3   OH247910   6.743   0.070  16.375  0.1982 -0.2438 -0.5846
 8832TIP3    H147911   6.765   0.160  16.400 -0.5117  0.1182 -1.2232
 8832TIP3    H247912   6.677   0.079  16.307  0.5182 -1.2472 -1.0576
 8833TIP3   OH247913   0.239   0.564   3.683  0.0416 -0.2485  0.2107
 8833TIP3    H147914   0.323   0.586   3.642  0.3948 -0.1210  0.9822
 8833TIP3    H247915   0.255   0.574   3.777 -0.8259 -0.2765  0.3694
 8834TIP3   OH247916   0.493   1.637   2.388  0.3352  0.1120 -0.4157
 8834TIP3    H147917   0.540   1.557   2.409 -0.5166  0.0597  1.4785
 8834TIP3    H247918   0.407   1.626   2.430 -0.4689  1.2409 -1.6908
 8835TIP3   OH247919   5.310   1.412  14.864  0.4868  0.6129  0.2447
 8835TIP3    H147920   5.385   1.353  14.872  0.0813 -0.0495 -0.6040
 8835TIP3    H247921   5.271   1.388  14.780 -2.0523 -0.6838  1.6781
 8836TIP3   OH247922   0.023   0.845   0.158  0.0963 -0.0290 -0.1113
 8836TIP3    H147923   0.062   0.890   0.233  1.4362 -0.9900 -0.1802
 8836TIP3    H247924   0.080   0.868   0.084 -1.0363  0.6728 -0.7939
 8837TIP3   OH247925   0.425   4.301   0.415 -0.1440 -0.0283 -0.3316
 8837TIP3    H147926   0.488   4.341   0.355 -2.5017  0.5099 -2.6184
 8837TIP3    H247927   0.400   4.372   0.474 -0.6336  0.5755 -1.2275
 8838TIP3   OH247928   4.631   1.212  17.031 -0.6804 -0.2247 -0.1101
 8838TIP3    H147929   4.625   1.120  17.053  0.8170 -0.3535 -0.1501
 8838TIP3    H247930   4.625   1.214  16.935  0.5771 -0.4350 -0.2156
 8839TIP3   OH247931   3.108   6.425   5.669  0.1324  0.4942 -0.6814
 8839TIP3    H147932   3.029   6.465   5.632  0.2491 -1.7204 -3.6265
 8839TIP3    H247933   3.178   6.450   5.609  0.8003 -1.3591 -0.7127
 8840TIP3   OH247934   1.420   5.679  13.690 -0.0911 -0.4663 -0.3549
 8840TIP3    H147935   1.419   5.584  13.701  3.0483 -0.6780 -0.8556
 8840TIP3    H247936   1.448   5.713  13.775  0.7498 -0.2057 -0.7179
 8841TIP3   OH247937   1.654   2.568   3.307 -0.3760 -0.1823  0.0043
 8841TIP3    H147938   1.620   2.606   3.225  1.3903 -1.1645 -1.2507
 8841TIP3    H247939   1.735   2.525   3.281  2.1090  2.3057  2.8776
 8842TIP3   OH247940   5.792   5.765  14.753  0.8749 -0.5247  0.2487
 8842TIP3    H147941   5.764   5.857  14.754 -0.0267 -0.7886  0.2695
 8842TIP3    H247942   5.864   5.763  14.690  0.2132  0.0159 -0.5639
 8843TIP3   OH247943   4.971   0.074  13.382  0.6972  0.0622  0.0379
 8843TIP3    H147944   4.882   0.076  13.346  1.7729 -1.0568 -2.9984
 8843TIP3    H247945   4.992   0.166  13.400 -0.9392  0.3668  0.5920
 8844TIP3   OH247946   4.274   1.747  11.190 -0.1602 -0.6088 -0.2492
 8844TIP3    H147947   4.353   1.706  11.227 -0.7082 -0.8833  0.6477
 8844TIP3    H247948   4.273   1.835  11.228  0.5604 -0.0231 -1.5154
 8845TIP3   OH247949   4.031   2.991  14.311  0.2241  0.5137 -0.0783
 8845TIP3    H147950   4.119   2.995  14.347  0.2217  0.7225 -0.0964
 8845TIP3    H247951   4.034   3.046  14.233  0.0692  0.5472 -0.0616
 8846TIP3   OH247952   4.536   4.038   6.056 -0.4459  0.4397 -0.4559
 8846TIP3    H147953   4.502   4.118   6.016 -3.0715  0.0302  0.6953
 8846TIP3    H247954   4.496   3.967   6.004 -1.3352 -0.0742  0.8763
 8847TIP3   OH247955   5.679   4.757   0.481  0.0973  0.1538 -0.1543
 8847TIP3    H147956   5.727   4.833   0.449 -1.9151  0.5706 -2.3836
 8847TIP3    H247957   5.733   4.682   0.455  0.3972  0.6760 -1.0645
 8848TIP3   OH247958   1.015   0.039   2.085 -0.0356  0.2983  0.0947
 8848TIP3    H147959   0.924   0.033   2.115 -0.5984 -0.0188 -1.5465
 8848TIP3    H247960   1.053  -0.046   2.106 -0.6277 -0.1727 -0.6618
 8849TIP3   OH247961   1.082   3.230   0.750  0.0837 -0.2771 -0.2223
 8849TIP3    H147962   1.006   3.178   0.778  0.8918 -0.8773  0.9480
 8849TIP3    H247963   1.044   3.306   0.706 -1.1841 -0.7884 -0.0671
 8850TIP3   OH247964   3.458   4.179  15.228 -0.6037  0.0418  0.1160
 8850TIP3    H147965   3.449   4.170  15.133 -0.0321 -3.4014  0.2743
 8850TIP3    H247966   3.526   4.245  15.240 -1.7670  1.7118 -1.7558
 8851TIP3   OH247967   6.412   6.706   4.062  0.0402 -0.1513  0.1286
 8851TIP3    H147968   6.348   6.777   4.068 -0.3990 -0.6058  0.9454
 8851TIP3    H247969   6.493   6.750   4.038 -0.4085  0.5253 -0.2019
 8852TIP3   OH247970   1.234   0.961  12.659  0.0306 -0.2463 -0.1242
 8852TIP3    H147971   1.162   1.015  12.628 -1.3085 -2.0805 -0.4027
 8852TIP3    H247972   1.303   0.973  12.593 -0.6691  0.2196 -0.7961
 8853TIP3   OH247973   2.872   4.255  13.244 -0.4547 -0.2406  0.2600
 8853TIP3    H147974   2.922   4.252  13.325  0.0021 -0.3825 -0.0206
 8853TIP3    H247975   2.898   4.175  13.197  0.7056  0.7326 -0.8450
 8854TIP3   OH247976   4.813   5.419  12.499  0.6967 -0.6334  0.0120
 8854TIP3    H147977   4.878   5.375  12.554  0.1571  0.3855  1.5310
 8854TIP3    H247978   4.761   5.471  12.560  0.9708  1.7348 -1.6135
 8855TIP3   OH247979   1.316   1.582  12.375  0.0007 -0.1173  0.7997
 8855TIP3    H147980   1.377   1.522  12.331  0.3833  0.5941  0.3542
 8855TIP3    H247981   1.294   1.537  12.457 -1.9736 -2.2546 -0.7477
 8856TIP3   OH247982   0.740   1.131  11.590  0.1938 -0.1644 -0.0049
 8856TIP3    H147983   0.765   1.086  11.510 -0.7232 -1.7100  0.5206
 8856TIP3    H247984   0.656   1.173  11.569  0.3237  0.0647 -0.0690
 8857TIP3   OH247985   5.311   3.739  13.444  0.3076 -0.1022  0.5759
 8857TIP3    H147986   5.331   3.651  13.412  1.5980  0.7097 -0.9427
 8857TIP3    H247987   5.238   3.769  13.389 -1.5899 -0.9571  2.4773
 8858TIP3   OH247988   2.005   1.159   2.411  0.7199 -0.1731  0.7902
 8858TIP3    H147989   1.989   1.199   2.496  0.9571  1.0579  0.2787
 8858TIP3    H247990   2.003   1.233   2.349 -0.2634 -1.1296 -0.3825
 8859TIP3   OH247991   1.148   2.742  12.280  0.0517  0.6056  0.1869
 8859TIP3    H147992   1.073   2.691  12.309  1.4568 -1.0385  1.1940
 8859TIP3    H247993   1.184   2.779  12.361  1.5908 -0.5308  0.0819
 8860TIP3   OH247994   4.150   2.911   2.232  0.2411  0.4822 -0.0161
 8860TIP3    H147995   4.117   2.977   2.171  0.1652 -0.0764 -0.6054
 8860TIP3    H247996   4.200   2.851   2.176 -0.3529 -0.3928  0.3629
 8861TIP3   OH247997   3.461   6.177  14.722 -0.4740 -0.1861  0.3571
 8861TIP3    H147998   3.548   6.204  14.751 -0.2765 -0.6572  0.2095
 8861TIP3    H247999   3.416   6.259  14.701  0.7122 -0.0273 -1.8149
 8862TIP3   OH248000   3.284   5.187   5.196 -0.6084 -0.6461 -0.2512
 8862TIP3    H148001   3.340   5.233   5.134  0.3945 -1.1474  0.2716
 8862TIP3    H248002   3.195   5.207   5.167 -0.1626 -0.4615 -1.5461
 8863TIP3   OH248003   2.605   0.755  11.587  0.8257 -0.1655 -0.5706
 8863TIP3    H148004   2.658   0.690  11.633  1.6920  1.9095  1.5640
 8863TIP3    H248005   2.661   0.784  11.515  1.4838  0.0205  0.0058
 8864TIP3   OH248006   6.203   3.941   1.205 -0.6230  0.2273 -0.4272
 8864TIP3    H148007   6.109   3.934   1.190 -0.8768  2.0738 -0.0061
 8864TIP3    H248008   6.211   3.981   1.291  0.4531  1.9890 -1.2824
 8865TIP3   OH248009   6.148   2.351   4.107 -0.2348  0.0781 -0.1166
 8865TIP3    H148010   6.225   2.302   4.079 -0.3213  0.1569 -0.4986
 8865TIP3    H248011   6.091   2.352   4.031 -0.3417  0.5536 -0.0386
 8866TIP3   OH248012   5.232   4.159   1.443 -0.2655  0.1816 -0.1529
 8866TIP3    H148013   5.279   4.120   1.517 -0.3455  1.7732  0.7944
 8866TIP3    H248014   5.293   4.152   1.369 -0.6317 -2.5011 -0.3148
 8867TIP3   OH248015   3.528   5.669  16.259 -0.5889  0.2044  0.0143
 8867TIP3    H148016   3.486   5.590  16.227  1.2203  0.2636 -2.8857
 8867TIP3    H248017   3.618   5.642  16.280 -0.3446  1.2131  0.3590
 8868TIP3   OH248018   4.409   3.016  11.533 -0.4688  0.5041  0.4483
 8868TIP3    H148019   4.410   3.067  11.452 -0.2907  1.0645  0.7983
 8868TIP3    H248020   4.384   2.928  11.505  0.8918  0.3566 -0.4126
 8869TIP3   OH248021   0.944   2.880  17.011 -0.0786  0.0488 -0.1111
 8869TIP3    H148022   1.026   2.928  17.017 -0.6907  1.3301 -1.4091
 8869TIP3    H248023   0.960   2.798  17.058  1.3361  1.0573  1.2509
 8870TIP3   OH248024   1.823   0.808  14.171  0.3324  0.0731 -0.0155
 8870TIP3    H148025   1.754   0.844  14.226 -0.3014  0.7439 -1.2203
 8870TIP3    H248026   1.899   0.801  14.229 -0.8330 -1.0806  1.4428
 8871TIP3   OH248027   5.813   0.059   1.567  0.4842 -0.4867  0.3662
 8871TIP3    H148028   5.819   0.136   1.624  0.7542 -0.2824  0.0598
 8871TIP3    H248029   5.759   0.088   1.493 -1.5329 -1.2970  1.4218
 8872TIP3   OH248030   0.018   0.444  12.070  0.3761 -0.1760  0.3471
 8872TIP3    H148031   0.083   0.381  12.039 -0.3682  0.0709 -1.9105
 8872TIP3    H248032   0.055   0.530  12.049 -0.5445 -0.0288 -0.7799
 8873TIP3   OH248033   2.657   2.200  16.094 -0.2437  0.1166 -0.3581
 8873TIP3    H148034   2.717   2.242  16.032 -0.5972 -2.0366 -2.3274
 8873TIP3    H248035   2.706   2.125  16.127 -0.6309  0.3570  0.8226
 8874TIP3   OH248036   2.594   3.782   4.690  0.0785 -0.0665  0.2195
 8874TIP3    H148037   2.508   3.740   4.684  0.8277 -1.9540  1.7042
 8874TIP3    H248038   2.609   3.793   4.784  2.8547 -2.9506  0.2575
 8875TIP3   OH248039   6.614   5.401   5.541  0.7439 -0.5622  0.2172
 8875TIP3    H148040   6.526   5.389   5.505  0.6158 -0.9080  0.6362
 8875TIP3    H248041   6.605   5.377   5.633  1.4658 -1.4244  0.0717
 8876TIP3   OH248042   3.046   3.130   4.404 -0.5162  0.2983  0.0144
 8876TIP3    H148043   2.978   3.097   4.345 -0.9428  0.7108  0.2701
 8876TIP3    H248044   3.111   3.169   4.346  0.1745 -1.2914 -0.3220
 8877TIP3   OH248045   6.430   2.502  14.581 -0.1767 -0.2069 -0.0199
 8877TIP3    H148046   6.420   2.454  14.663 -1.7932 -0.9487 -0.6011
 8877TIP3    H248047   6.497   2.568  14.599 -0.2805 -0.5565  1.7917
 8878TIP3   OH248048   0.069   4.060  14.732  0.1596  0.3412 -0.0249
 8878TIP3    H148049   0.162   4.067  14.754 -0.0218  1.6871  0.4308
 8878TIP3    H248050   0.029   4.137  14.773 -1.2709 -0.5492  0.3501
 8879TIP3   OH248051   3.320   4.990  15.026  0.1655  0.2342 -0.2198
 8879TIP3    H148052   3.281   4.943  14.952  2.2247  0.5118 -1.5910
 8879TIP3    H248053   3.324   5.081  14.997  1.4987  0.2574 -0.0586
 8880TIP3   OH248054   6.096   4.715   0.592  0.3745  0.7233 -0.5053
 8880TIP3    H148055   6.083   4.663   0.514 -1.2566  0.6784 -0.2392
 8880TIP3    H248056   6.156   4.664   0.646  0.3475  0.0643 -1.0933
 8881TIP3   OH248057   1.402   6.600  12.228  0.3737 -0.0561  0.0535
 8881TIP3    H148058   1.407   6.505  12.218 -2.0434 -0.3644  1.0242
 8881TIP3    H248059   1.351   6.629  12.152 -1.3624  0.0402  1.1960
 8882TIP3   OH248060   1.985   3.736   2.863  0.2051  0.3421  0.4228
 8882TIP3    H148061   2.029   3.794   2.800 -1.2370  1.7935  0.6781
 8882TIP3    H248062   1.951   3.795   2.930 -0.6003 -0.9039  1.1439
 8883TIP3   OH248063   2.708   2.583  11.436 -0.6823 -0.3145 -0.0620
 8883TIP3    H148064   2.773   2.653  11.426 -1.3669  0.6307  1.6519
 8883TIP3    H248065   2.624   2.626  11.419 -1.0657 -0.8810  0.3629
 8884TIP3   OH248066   4.298   6.162   1.147 -0.0685  0.1106 -0.5084
 8884TIP3    H148067   4.207   6.189   1.139  0.2072  1.0850 -0.4896
 8884TIP3    H248068   4.330   6.157   1.057 -0.1953 -0.4602 -0.5274
 8885TIP3   OH248069   1.464   0.225  10.164 -0.0915  0.2289 -0.2059
 8885TIP3    H148070   1.438   0.317  10.169 -0.3241  0.1686 -0.2916
 8885TIP3    H248071   1.385   0.180  10.134 -0.2487 -0.1263  0.7174
 8886TIP3   OH248072   1.010   1.466  14.618 -0.0289  0.4881 -0.5389
 8886TIP3    H148073   0.982   1.379  14.647 -1.3915  1.0670 -0.0354
 8886TIP3    H248074   0.986   1.469  14.526  2.5064 -0.6246 -1.3316
 8887TIP3   OH248075   1.129   4.092  17.019  0.2734 -0.1352 -0.0300
 8887TIP3    H148076   1.154   4.006  16.985  0.0614  0.7311 -2.5782
 8887TIP3    H248077   1.063   4.073  17.086  0.9712 -1.9797  0.1997
 8888TIP3   OH248078   2.269   6.195   4.100  0.3871 -0.0119 -0.0948
 8888TIP3    H148079   2.253   6.106   4.131 -0.5145  0.5100  1.0145
 8888TIP3    H248080   2.273   6.187   4.005 -2.8272 -0.8485 -0.2978
 8889TIP3   OH248081   0.208   5.773  13.725 -0.4204 -0.4900  0.5009
 8889TIP3    H148082   0.249   5.703  13.777  0.2906  0.2338  0.9287
 8889TIP3    H248083   0.281   5.819  13.684 -0.8873 -0.0431  0.1562
 8890TIP3   OH248084   6.373   1.022  11.460  0.7384  0.4002 -0.4259
 8890TIP3    H148085   6.300   1.010  11.521  1.3997 -2.2426 -0.0240
 8890TIP3    H248086   6.437   1.072  11.511  0.4471  0.0476  0.3130
 8891TIP3   OH248087   6.191   1.332  13.991  0.0558  0.2897 -0.0831
 8891TIP3    H148088   6.106   1.377  13.997 -1.0752 -1.7187 -0.1478
 8891TIP3    H248089   6.169   1.243  13.963  2.2330 -0.2236 -0.3525
 8892TIP3   OH248090   3.432   0.074   4.403  0.1874 -0.5735  0.1043
 8892TIP3    H148091   3.428  -0.018   4.428 -1.9769 -0.3240  0.9436
 8892TIP3    H248092   3.523   0.100   4.418  0.5462 -2.2517  1.0297
 8893TIP3   OH248093   6.482   1.453  13.806  0.0311 -0.0242 -0.7578
 8893TIP3    H148094   6.578   1.456  13.805  0.0507  1.8940  0.7949
 8893TIP3    H248095   6.456   1.540  13.775 -1.1371  0.2466  0.8795
 8894TIP3   OH248096   6.292   4.069  14.425 -0.1119  0.0108 -0.1755
 8894TIP3    H148097   6.280   4.052  14.332  0.0313  0.9189 -0.3724
 8894TIP3    H248098   6.361   4.008  14.452  0.1954  0.0786 -0.7843
 8895TIP3   OH248099   2.324   6.420  14.686 -0.0914 -0.0228 -0.8241
 8895TIP3    H148100   2.315   6.437  14.780 -2.5433 -1.6216 -0.6890
 8895TIP3    H248101   2.355   6.503  14.650  0.7585  0.6817  1.3580
 8896TIP3   OH248102   4.546   2.882  11.094  0.2109 -0.0880 -0.3285
 8896TIP3    H148103   4.548   2.829  11.173  1.9867 -0.8875 -0.8504
 8896TIP3    H248104   4.512   2.824  11.026 -0.3549  0.2779 -0.3620
 8897TIP3   OH248105   2.859   4.201  11.070  0.3701  0.0816 -0.0451
 8897TIP3    H148106   2.819   4.282  11.101 -0.4025 -0.9743  1.9317
 8897TIP3    H248107   2.944   4.198  11.115  0.8063  0.2406 -0.8491
 8898TIP3   OH248108   1.369   5.423  11.922 -0.0377 -0.4078 -0.0624
 8898TIP3    H148109   1.306   5.351  11.912  0.5394 -1.0055  0.5056
 8898TIP3    H248110   1.407   5.409  12.008  1.7504 -0.7715 -0.8666
 8899TIP3   OH248111   3.298   0.516  14.600  0.0493 -0.2191  0.0996
 8899TIP3    H148112   3.235   0.463  14.650  0.9979 -0.3298  1.2016
 8899TIP3    H248113   3.378   0.464  14.600  1.0339  1.2397  1.2943
 8900TIP3   OH248114   1.854   2.360   4.485 -0.2278  0.0937  0.2261
 8900TIP3    H148115   1.842   2.434   4.425 -1.4536 -0.5288 -0.3279
 8900TIP3    H248116   1.768   2.319   4.490  0.6143 -1.8179 -0.1696
 8901TIP3   OH248117   5.562   5.748   2.200 -0.2078 -0.3428  0.0893
 8901TIP3    H148118   5.601   5.787   2.122 -0.4269  1.8137  0.9734
 8901TIP3    H248119   5.597   5.800   2.273 -2.1306 -0.4591  1.1762
 8902TIP3   OH248120   5.975   5.120  14.958  0.4208  0.2367  0.7753
 8902TIP3    H148121   5.943   5.113  15.048  0.7041 -0.2143  0.8466
 8902TIP3    H248122   6.047   5.057  14.953  0.0544 -0.1520  0.0779
 8903TIP3   OH248123   6.457   3.554   3.814  0.3862  0.0948 -0.1030
 8903TIP3    H148124   6.511   3.585   3.742  1.1216 -0.1182  0.3420
 8903TIP3    H248125   6.501   3.586   3.893 -0.7696  0.9139  0.2477
 8904TIP3   OH248126   2.152   5.400  17.021 -0.2286  0.3590  0.4629
 8904TIP3    H148127   2.164   5.354  17.104  0.3846 -1.0817 -0.3732
 8904TIP3    H248128   2.058   5.397  17.004 -0.3751  0.8253  1.1859
 8905TIP3   OH248129   6.338   5.894  13.976  0.0024 -0.4405 -0.3669
 8905TIP3    H148130   6.404   5.957  14.005  0.3216 -0.0866 -1.7749
 8905TIP3    H248131   6.371   5.810  14.007  1.1706 -0.2742 -1.0746
 8906TIP3   OH248132   4.926   1.016   1.718 -0.0285 -0.1815 -0.4513
 8906TIP3    H148133   4.874   1.084   1.675 -0.5574 -1.4059 -1.8491
 8906TIP3    H248134   5.015   1.050   1.718 -0.6690  1.7059  1.4741
 8907TIP3   OH248135   6.449   5.191  14.707 -0.1278 -0.1335 -0.3790
 8907TIP3    H148136   6.367   5.193  14.657 -1.3073  0.3883  1.5074
 8907TIP3    H248137   6.447   5.107  14.752  0.8419 -0.5154 -1.0046
 8908TIP3   OH248138   4.737   3.599  12.625 -1.0597 -0.2597 -0.3551
 8908TIP3    H148139   4.765   3.689  12.636  1.3170 -1.0378  0.5890
 8908TIP3    H248140   4.781   3.570  12.545 -2.1934 -0.4693 -0.9220
 8909TIP3   OH248141   0.992   1.464  12.427  0.3084  0.6179  0.0060
 8909TIP3    H148142   1.057   1.481  12.495 -0.1542 -2.6763  1.4810
 8909TIP3    H248143   0.912   1.444  12.476 -0.8752  1.1378 -1.6547
 8910TIP3   OH248144   3.508   3.668  15.736 -0.3054  0.1570 -0.1474
 8910TIP3    H148145   3.467   3.610  15.799  1.0371  0.6599  1.2552
 8910TIP3    H248146   3.446   3.740  15.724 -0.2760  0.4482  1.2405
 8911TIP3   OH248147   1.482   4.516   3.512 -0.6822  0.2260  0.2952
 8911TIP3    H148148   1.482   4.530   3.417 -1.2859  0.1670  0.2809
 8911TIP3    H248149   1.538   4.440   3.525  0.9192  1.3463  0.1775
 8912TIP3   OH248150   1.605   5.681  13.477  0.5710  0.5508 -0.4292
 8912TIP3    H148151   1.525   5.680  13.531  0.4608 -1.0805 -0.5795
 8912TIP3    H248152   1.602   5.766  13.432 -0.3055  1.1478  0.6891
 8913TIP3   OH248153   0.774   3.585   5.313 -0.2045  1.0363 -0.3077
 8913TIP3    H148154   0.791   3.671   5.353  1.3086  0.9442 -0.6859
 8913TIP3    H248155   0.843   3.529   5.349 -0.8254  0.1204 -0.5239
 8914TIP3   OH248156   2.816   1.375  16.122  0.0473  0.6696  0.1233
 8914TIP3    H148157   2.861   1.459  16.108 -0.6433  1.2522  1.2875
 8914TIP3    H248158   2.887   1.312  16.139  0.5466  1.0987 -0.3414
 8915TIP3   OH248159   0.545   2.721  15.520 -0.3733  0.1920  0.4002
 8915TIP3    H148160   0.574   2.812  15.516 -0.7935  0.2842 -1.8147
 8915TIP3    H248161   0.452   2.725  15.498 -0.4464 -0.7593  0.4999
 8916TIP3   OH248162   1.876   4.507   1.419  0.9951  0.0683 -0.0678
 8916TIP3    H148163   1.909   4.417   1.417 -1.5490 -0.9495 -2.5014
 8916TIP3    H248164   1.803   4.504   1.481  0.5769  0.3239 -0.5472
 8917TIP3   OH248165   3.184   2.896   0.326 -0.4212 -0.0240 -0.9064
 8917TIP3    H148166   3.107   2.911   0.381  0.1709 -3.2747  1.0865
 8917TIP3    H248167   3.155   2.833   0.261  0.5362 -1.3865 -0.0508
 8918TIP3   OH248168   2.094   4.161  10.941 -0.1285  0.3901 -0.5875
 8918TIP3    H148169   2.128   4.099  10.877 -1.1772  1.3151 -2.1108
 8918TIP3    H248170   2.021   4.204  10.896  1.4926  3.8107 -0.2030
 8919TIP3   OH248171   3.984   2.991   5.365  0.2654 -0.2510  0.0197
 8919TIP3    H148172   3.973   2.896   5.361  0.0353 -0.2019 -0.6995
 8919TIP3    H248173   3.894   3.025   5.373  0.4314 -0.1437  1.8671
 8920TIP3   OH248174   1.205   4.395   1.364  0.1053 -0.0860  0.0584
 8920TIP3    H148175   1.284   4.449   1.360  0.0029 -0.0019 -2.3171
 8920TIP3    H248176   1.235   4.310   1.396  0.9947  0.2255  0.0761
 8921TIP3   OH248177   1.182   0.663  16.791 -0.0595 -0.1372  0.3783
 8921TIP3    H148178   1.088   0.679  16.787 -0.1718 -0.6586  0.8931
 8921TIP3    H248179   1.203   0.619  16.709 -0.7527 -2.4924  1.3820
 8922TIP3   OH248180   3.012   1.185   2.397  0.4007 -0.1470  0.0366
 8922TIP3    H148181   2.942   1.248   2.383  0.4379 -0.4932 -1.8968
 8922TIP3    H248182   3.031   1.191   2.491 -0.4117  1.8345  0.1143
 8923TIP3   OH248183   4.123   3.656   4.398  0.0902  0.5291  0.3508
 8923TIP3    H148184   4.214   3.680   4.381 -0.2403  1.0214 -0.8017
 8923TIP3    H248185   4.103   3.696   4.483  1.2181 -0.3875  1.0793
 8924TIP3   OH248186   2.540   4.945  14.117  0.4442 -0.1379 -0.1058
 8924TIP3    H148187   2.552   4.987  14.202  1.8914 -0.6737 -0.0218
 8924TIP3    H248188   2.487   4.868  14.136  2.2528 -1.2439  0.6464
 8925TIP3   OH248189   6.523   0.971   5.804  0.6133 -0.2923 -0.2579
 8925TIP3    H148190   6.451   1.026   5.834 -0.3867 -1.5459 -0.2451
 8925TIP3    H248191   6.487   0.924   5.729  1.9470  0.2086 -1.2612
 8926TIP3   OH248192   6.247   6.428  13.395  0.4492 -0.3603 -0.1931
 8926TIP3    H148193   6.340   6.449  13.395  0.1423  1.0671 -0.4449
 8926TIP3    H248194   6.235   6.369  13.321  0.9951  0.2042 -0.7352
 8927TIP3   OH248195   0.751   5.141  13.535  0.1077 -0.0707 -0.4263
 8927TIP3    H148196   0.808   5.064  13.539 -1.1685 -1.0397 -0.1426
 8927TIP3    H248197   0.674   5.115  13.586 -1.1133  0.7487 -1.8127
 8928TIP3   OH248198   3.796   0.622  15.405  0.3953  0.3778  0.0666
 8928TIP3    H148199   3.778   0.716  15.404  0.4442  0.4010  0.8544
 8928TIP3    H248200   3.818   0.603  15.496 -0.4065 -0.5484  0.0843
 8929TIP3   OH248201   5.724   0.873   4.483  0.2784 -0.6829  0.1653
 8929TIP3    H148202   5.654   0.880   4.418  1.2768 -0.9327 -0.9626
 8929TIP3    H248203   5.801   0.909   4.440  0.9682 -0.8510  1.2228
 8930TIP3   OH248204   1.015   3.320  15.948  0.4922 -0.0305  0.1126
 8930TIP3    H148205   0.998   3.403  15.903  2.2011 -0.4916 -1.5254
 8930TIP3    H248206   1.105   3.328  15.979  0.0537 -0.5944  1.6152
 8931TIP3   OH248207   1.014   6.317  15.019 -0.4641 -0.1419 -0.2074
 8931TIP3    H148208   1.060   6.355  15.094 -0.8881  1.6340 -0.8012
 8931TIP3    H248209   0.966   6.390  14.981 -0.6188 -1.0999 -1.9445
 8932TIP3   OH248210   4.657   6.497  15.563  0.0231  0.0905 -0.3960
 8932TIP3    H148211   4.581   6.462  15.516 -1.6461 -1.4810  3.1063
 8932TIP3    H248212   4.713   6.421  15.579  0.9511  0.7315 -0.5061
 8933TIP3   OH248213   5.708   3.126   3.513  0.3895  0.7692 -0.0159
 8933TIP3    H148214   5.688   3.088   3.599  0.0432  0.8478 -0.0628
 8933TIP3    H248215   5.626   3.119   3.464  1.9524 -5.4696 -2.7670
 8934TIP3   OH248216   3.894   0.042   2.682  0.1259 -0.0379 -0.1421
 8934TIP3    H148217   3.857   0.105   2.745  1.9059  0.1209  0.8187
 8934TIP3    H248218   3.822   0.024   2.622 -1.0284  1.4253  0.7056
 8935TIP3   OH248219   3.392   3.320  13.777 -0.3603 -0.1574 -0.1636
 8935TIP3    H148220   3.486   3.303  13.780 -0.0816 -0.1283 -3.7578
 8935TIP3    H248221   3.383   3.411  13.806  0.9346  0.2897 -1.0542
 8936TIP3   OH248222   4.274   5.028   2.213  0.1397  0.1685  0.3374
 8936TIP3    H148223   4.354   5.032   2.161 -0.3333  0.3661 -0.3974
 8936TIP3    H248224   4.240   5.117   2.212  1.1477  0.6584  2.6982
 8937TIP3   OH248225   0.917   4.968  16.934 -0.0084  0.3940 -0.0009
 8937TIP3    H148226   1.011   4.968  16.951  0.3344  0.9218 -1.6379
 8937TIP3    H248227   0.877   4.992  17.017  1.2388 -0.7416  0.9617
 8938TIP3   OH248228   5.608   6.658  14.660 -0.3746  0.3437 -0.2899
 8938TIP3    H148229   5.624   6.665  14.566  0.4205  0.8427 -0.1275
 8938TIP3    H248230   5.583   6.567  14.674 -1.8712  0.5896 -1.1758
 8939TIP3   OH248231   5.114   3.675  13.751  0.1133 -0.1287  0.1317
 8939TIP3    H148232   5.107   3.745  13.687 -3.6150 -1.0642 -0.7107
 8939TIP3    H248233   5.067   3.709  13.828 -1.7976 -1.6304 -0.3144
 8940TIP3   OH248234   2.516   1.817  13.408 -0.2722  0.4226  0.2982
 8940TIP3    H148235   2.472   1.797  13.325  1.5463  2.4308 -1.2389
 8940TIP3    H248236   2.513   1.734  13.456 -2.4618 -0.4850 -1.2041
 8941TIP3   OH248237   5.506   2.197   1.556 -0.0566 -0.9471  0.4743
 8941TIP3    H148238   5.518   2.167   1.466  1.4222 -0.1970  0.3814
 8941TIP3    H248239   5.412   2.210   1.565 -0.1601 -0.2639 -1.2242
 8942TIP3   OH248240   1.416   1.642   5.214  0.1236 -0.3992  0.0416
 8942TIP3    H148241   1.412   1.555   5.253  1.7035 -1.2471 -1.5204
 8942TIP3    H248242   1.328   1.677   5.223  0.0406 -1.1122  2.9384
 8943TIP3   OH248243   2.790   5.102   1.026 -0.2327 -0.1900 -0.9455
 8943TIP3    H148244   2.823   5.019   0.991 -0.3002 -0.5942 -0.0746
 8943TIP3    H248245   2.796   5.163   0.953 -1.0575 -1.1981 -1.8951
 8944TIP3   OH248246   2.328   0.769  15.482  0.1918  0.1807 -0.5801
 8944TIP3    H148247   2.382   0.847  15.492  1.0543 -0.0694 -2.6536
 8944TIP3    H248248   2.387   0.704  15.444  0.0093 -2.1545  2.7539
 8945TIP3   OH248249   6.358   6.223  16.792 -0.6266 -0.0672  0.1837
 8945TIP3    H148250   6.283   6.213  16.851 -0.6657  1.2210  0.3830
 8945TIP3    H248251   6.427   6.259  16.848 -0.2715 -0.0153 -0.2907
 8946TIP3   OH248252   0.490   5.927   0.999  0.0989 -0.0449  0.2104
 8946TIP3    H148253   0.399   5.957   0.992  0.0891  0.0631  0.7312
 8946TIP3    H248254   0.487   5.836   0.971  0.2529  0.5936 -2.0919
 8947TIP3   OH248255   3.294   3.252   1.939  0.0567 -0.3848  0.1570
 8947TIP3    H148256   3.367   3.270   1.998  0.5105  0.0572 -0.5258
 8947TIP3    H248257   3.218   3.287   1.984  0.2608 -0.8462  0.8754
 8948TIP3   OH248258   6.445   0.811  10.537  0.0296 -0.1268 -0.7065
 8948TIP3    H148259   6.366   0.864  10.542  1.0150  1.3069  0.6114
 8948TIP3    H248260   6.517   0.875  10.539  1.2672 -1.4773  0.8188
 8949TIP3   OH248261   5.224   5.745   0.357 -0.0166  0.2048 -0.6862
 8949TIP3    H148262   5.284   5.768   0.285 -0.5231  0.3726 -1.0577
 8949TIP3    H248263   5.137   5.758   0.321 -0.3425 -1.8497 -0.7898
 8950TIP3   OH248264   0.745   1.777  11.609 -0.0593  0.4277 -0.1367
 8950TIP3    H148265   0.792   1.695  11.627  0.3076  0.9720  1.5857
 8950TIP3    H248266   0.668   1.749  11.560  0.7028 -0.7920 -0.7154
 8951TIP3   OH248267   0.401   6.435  14.629 -0.2009  0.2141  0.2430
 8951TIP3    H148268   0.473   6.474  14.578  0.2496 -0.1925  0.5548
 8951TIP3    H248269   0.363   6.508  14.677 -1.4520  0.8491 -1.6180
 8952TIP3   OH248270   5.469   5.352  12.956 -0.5300  0.2454 -0.1506
 8952TIP3    H148271   5.461   5.258  12.971  1.5245  0.1387  0.5867
 8952TIP3    H248272   5.561   5.365  12.930 -0.9265  1.9704 -0.8641
 8953TIP3   OH248273   4.700   5.196  16.447  0.2269 -0.0635  0.4818
 8953TIP3    H148274   4.655   5.214  16.364  1.6448 -2.5816 -0.9782
 8953TIP3    H248275   4.632   5.204  16.513 -1.2896  0.6862 -1.0689
 8954TIP3   OH248276   4.589   3.668   3.235  0.6299 -0.6107  0.3487
 8954TIP3    H148277   4.529   3.602   3.270  0.2319 -1.3246 -1.5555
 8954TIP3    H248278   4.540   3.749   3.236  0.8744 -0.4479  2.0414
 8955TIP3   OH248279   4.941   3.682   2.847  0.6016  0.2461  0.0364
 8955TIP3    H148280   5.016   3.654   2.899  0.3125  0.4093  0.5447
 8955TIP3    H248281   4.866   3.671   2.906  0.2124 -0.0185 -0.5002
 8956TIP3   OH248282   4.241   5.182   0.964 -0.0896 -0.4225  0.3109
 8956TIP3    H148283   4.209   5.178   1.054  0.6736  1.0540  0.6932
 8956TIP3    H248284   4.325   5.227   0.971 -0.7591  1.2118 -1.2907
 8957TIP3   OH248285   6.356   4.811  13.245 -0.0938 -0.1525 -0.0453
 8957TIP3    H148286   6.302   4.872  13.197  0.2864  0.4660  0.3038
 8957TIP3    H248287   6.304   4.731  13.250 -0.1243 -0.2445 -1.4979
 8958TIP3   OH248288   2.974   0.905   1.390 -0.4297 -0.0723 -0.2341
 8958TIP3    H148289   2.882   0.883   1.402  0.0841 -2.2438 -0.0031
 8958TIP3    H248290   3.003   0.852   1.316  0.6399  0.6044 -0.3292
 8959TIP3   OH248291   1.372   1.485  14.396  0.2880  0.0478 -0.6355
 8959TIP3    H148292   1.456   1.440  14.399  0.9500  1.2891  0.2595
 8959TIP3    H248293   1.309   1.416  14.377  1.4645 -0.9622 -1.0014
 8960TIP3   OH248294   4.326   0.144   0.579 -0.0437  0.3276  0.2695
 8960TIP3    H148295   4.284   0.192   0.508  0.5236 -0.9085 -0.9535
 8960TIP3    H248296   4.255   0.125   0.640 -0.8029  0.3392 -0.5819
 8961TIP3   OH248297   4.302   6.590   4.749 -0.0398  0.5289  0.6047
 8961TIP3    H148298   4.360   6.605   4.824 -0.2482  2.7504  0.4143
 8961TIP3    H248299   4.221   6.556   4.787  0.9254 -1.4048  1.0055
 8962TIP3   OH248300   4.641   4.302  16.893 -0.6532 -0.2667  0.1283
 8962TIP3    H148301   4.672   4.389  16.919  1.7923 -1.1591  0.5062
 8962TIP3    H248302   4.721   4.255  16.869 -2.0029 -2.1423 -0.9648
 8963TIP3   OH248303   0.775   1.203   0.129  0.4268 -0.3711 -0.2199
 8963TIP3    H148304   0.735   1.146   0.062  0.9959  0.8050 -1.6254
 8963TIP3    H248305   0.703   1.224   0.188 -0.4403 -0.3242 -1.2664
 8964TIP3   OH248306   5.758   1.860   0.750  0.5938  0.3406  0.2029
 8964TIP3    H148307   5.752   1.956   0.759 -0.2200  0.4000 -0.7268
 8964TIP3    H248308   5.816   1.833   0.820  1.4439  1.6099  0.0370
 8965TIP3   OH248309   6.441   4.922   2.421  0.2699  0.3879  0.6396
 8965TIP3    H148310   6.519   4.872   2.398 -0.9784 -0.4705 -2.1403
 8965TIP3    H248311   6.454   5.008   2.381  0.5190  0.8575  1.6906
 8966TIP3   OH248312   5.127   1.053   6.126  0.1482 -0.1312 -0.2047
 8966TIP3    H148313   5.103   1.031   6.216 -0.7150  0.5919 -0.2373
 8966TIP3    H248314   5.060   1.117   6.099  1.5557  1.2058 -0.6618
 8967TIP3   OH248315   2.079   1.773  11.655 -0.2029 -0.0378 -0.0032
 8967TIP3    H148316   2.006   1.815  11.611 -2.3697 -2.0353  1.3894
 8967TIP3    H248317   2.058   1.780  11.748  2.2492  0.7112  0.5806
 8968TIP3   OH248318   5.833   4.069   3.628 -0.6352 -0.4736 -0.3707
 8968TIP3    H148319   5.839   4.146   3.685  1.4211 -1.3250  0.6792
 8968TIP3    H248320   5.763   4.016   3.666 -1.3873  0.4102 -0.5114
 8969TIP3   OH248321   0.339   1.959  13.379  0.8453  0.1494  0.0051
 8969TIP3    H148322   0.306   1.897  13.444 -1.0721  1.0710 -0.0183
 8969TIP3    H248323   0.315   1.921  13.295  2.6774 -0.6853 -0.1727
 8970TIP3   OH248324   5.218   0.113  16.353 -0.6286 -0.4100 -0.5642
 8970TIP3    H148325   5.146   0.171  16.376  0.1520 -0.2843  1.8568
 8970TIP3    H248326   5.293   0.172  16.339 -0.6209 -0.6389 -1.5810
 8971TIP3   OH248327   3.617   2.031  15.847  0.0022  0.3971 -0.1001
 8971TIP3    H148328   3.653   2.098  15.906 -1.6020  0.1471  1.2297
 8971TIP3    H248329   3.645   2.059  15.760  0.1811  2.2815  0.5132
 8972TIP3   OH248330   2.879   2.068  12.328  0.9039  0.5073  0.5601
 8972TIP3    H148331   2.796   2.113  12.313 -0.4050 -1.9799 -0.1135
 8972TIP3    H248332   2.930   2.085  12.248  1.7381  3.2299  1.5467
 8973TIP3   OH248333   0.346   1.762  12.008  0.1556  0.7099 -0.3538
 8973TIP3    H148334   0.258   1.788  12.035 -0.6085 -1.9927  0.0232
 8973TIP3    H248335   0.403   1.801  12.075 -0.9989  0.5118  0.8037
 8974TIP3   OH248336   2.615   6.283   3.808 -0.1144  0.0150  0.1162
 8974TIP3    H148337   2.688   6.344   3.800 -0.7914  1.0551  1.4620
 8974TIP3    H248338   2.601   6.251   3.719  1.1305  0.7852 -0.3896
 8975TIP3   OH248339   2.190   1.215  14.466 -0.0098 -0.1096 -0.3911
 8975TIP3    H148340   2.237   1.136  14.492 -0.5040 -0.4937 -0.6550
 8975TIP3    H248341   2.157   1.196  14.378 -0.5094  0.2198 -0.2814
 8976TIP3   OH248342   3.302   0.454  11.357  0.2229  0.1061  0.1874
 8976TIP3    H148343   3.207   0.445  11.357  0.0708  0.7463  3.4762
 8976TIP3    H248344   3.318   0.538  11.314 -0.2646 -1.6630 -3.9817
 8977TIP3   OH248345   3.802   2.797  16.464  0.1761  0.1222 -0.3197
 8977TIP3    H148346   3.735   2.732  16.443  1.1847 -1.1426  0.2434
 8977TIP3    H248347   3.780   2.826  16.552  1.5687 -1.9270  0.7657
 8978TIP3   OH248348   5.230   2.100  12.530  0.1319 -0.2848 -1.2460
 8978TIP3    H148349   5.256   2.140  12.614  3.9142 -3.5146 -0.5568
 8978TIP3    H248350   5.249   2.167  12.465  1.5744  0.7683  0.1733
 8979TIP3   OH248351   0.884   3.832   4.936 -0.3442 -0.5047  0.2319
 8979TIP3    H148352   0.935   3.768   4.987 -1.5479 -2.0850 -0.4746
 8979TIP3    H248353   0.869   3.789   4.852 -0.0877  1.2674 -0.7638
 8980TIP3   OH248354   0.711   2.486  15.948 -0.2435  0.2368 -0.9353
 8980TIP3    H148355   0.724   2.537  16.028 -2.9155  2.0064 -1.4746
 8980TIP3    H248356   0.630   2.438  15.963 -1.2589  1.2343 -2.7889
 8981TIP3   OH248357   2.808   1.649   4.009 -0.2379  0.1894 -0.1108
 8981TIP3    H148358   2.885   1.699   3.983  2.1854 -2.9628  0.4402
 8981TIP3    H248359   2.746   1.661   3.936  0.2759  3.5336 -0.1536
 8982TIP3   OH248360   0.838   6.572   5.802 -0.1157  0.1476 -0.5342
 8982TIP3    H148361   0.930   6.569   5.830  0.0909  1.0530 -1.0755
 8982TIP3    H248362   0.796   6.630   5.866 -0.0810  0.5766 -0.8971
 8983TIP3   OH248363   1.389   4.905  17.089  0.1077 -0.1975 -0.2226
 8983TIP3    H148364   1.360   4.930  17.177  1.2450  1.4354 -0.2755
 8983TIP3    H248365   1.458   4.840  17.103 -1.6734 -2.1754 -0.0400
 8984TIP3   OH248366   6.537   1.920  14.780  0.4202 -0.2055  0.5866
 8984TIP3    H148367   6.480   1.873  14.719  0.8218 -0.9976  0.8130
 8984TIP3    H248368   6.540   1.864  14.858  1.0922  0.0786  0.7700
 8985TIP3   OH248369   2.933   0.531   4.096 -0.6243  0.1807 -0.2092
 8985TIP3    H148370   2.940   0.449   4.144 -1.3883  0.6083  0.6740
 8985TIP3    H248371   2.990   0.520   4.020  1.8979  0.0555  1.5791
 8986TIP3   OH248372   5.888   3.837  11.588  0.4315  0.1567 -0.1561
 8986TIP3    H148373   5.903   3.776  11.660 -1.1710  0.9681  0.9192
 8986TIP3    H248374   5.838   3.909  11.627  0.3665  1.0997 -1.8686
 8987TIP3   OH248375   1.300   3.708   6.253  0.1733 -0.2417  0.4463
 8987TIP3    H148376   1.389   3.680   6.234  0.7763  0.7409  1.7256
 8987TIP3    H248377   1.307   3.760   6.332 -1.4839  0.2141  0.3319
 8988TIP3   OH248378   1.153   2.963  12.866  0.1546  0.0784  0.4205
 8988TIP3    H148379   1.199   2.894  12.818  1.4944 -0.3036  2.1400
 8988TIP3    H248380   1.222   3.007  12.917 -0.6754  2.6110 -0.4745
 8989TIP3   OH248381   2.153   2.112   1.172  0.2198  0.9472  0.4323
 8989TIP3    H148382   2.131   2.204   1.187 -1.0816  0.7836 -0.3584
 8989TIP3    H248383   2.177   2.080   1.259  0.1882  1.8983  0.8124
 8990TIP3   OH248384   5.536   3.554   3.116 -0.0672 -0.3113 -0.1593
 8990TIP3    H148385   5.518   3.640   3.078  1.1319  0.0291  0.0191
 8990TIP3    H248386   5.604   3.517   3.060 -0.4414 -1.0809 -0.1236
 8991TIP3   OH248387   3.159   0.711  15.245  0.1838 -0.2502 -0.3443
 8991TIP3    H148388   3.092   0.650  15.215  0.2828 -0.5956  0.1305
 8991TIP3    H248389   3.139   0.725  15.338  0.0233  0.6172 -0.4998
 8992TIP3   OH248390   2.366   4.606   3.540 -0.0402 -0.4254  0.2683
 8992TIP3    H148391   2.426   4.598   3.465  0.2802 -0.9944  0.5731
 8992TIP3    H248392   2.288   4.559   3.513  0.4817 -1.5861  0.6802
 8993TIP3   OH248393   2.034   6.135   5.811  0.2315  0.3338 -0.2076
 8993TIP3    H148394   2.122   6.171   5.800 -0.2507  1.5550 -0.3413
 8993TIP3    H248395   1.993   6.145   5.725  0.3756 -1.4810 -0.5221
 8994TIP3   OH248396   6.173   4.486  14.472 -0.1621  0.4110  0.3961
 8994TIP3    H148397   6.200   4.422  14.537 -1.1802  0.4590  0.8900
 8994TIP3    H248398   6.086   4.514  14.501 -0.7279  0.2744 -1.1038
 8995TIP3   OH248399   0.188   1.317   5.057  0.5753  0.4149 -0.0954
 8995TIP3    H148400   0.281   1.312   5.036  0.6299  2.0743 -0.4367
 8995TIP3    H248401   0.182   1.292   5.149  1.0811 -1.5958 -0.5702
 8996TIP3   OH248402   2.764   0.295  15.188  0.5731  0.1546 -0.3298
 8996TIP3    H148403   2.820   0.255  15.121 -0.2942 -0.8574 -0.4661
 8996TIP3    H248404   2.817   0.367  15.224  2.2484 -1.2181  0.0555
 8997TIP3   OH248405   6.529   1.556  16.264  0.0840 -0.0342 -0.1769
 8997TIP3    H148406   6.616   1.595  16.256  0.2711 -0.2345  0.7731
 8997TIP3    H248407   6.517   1.544  16.358 -0.1028 -1.9743 -0.4099
 8998TIP3   OH248408   1.352   4.675   5.835  0.4850  0.1320  0.0435
 8998TIP3    H148409   1.387   4.587   5.849  0.2480  0.0556  0.1666
 8998TIP3    H248410   1.306   4.695   5.916  0.1537  0.1857 -0.1519
 8999TIP3   OH248411   5.849   5.528  11.383 -0.8385  0.3513  0.2271
 8999TIP3    H148412   5.904   5.573  11.447  1.3003  0.2964 -1.4906
 8999TIP3    H248413   5.826   5.445  11.424  1.4190 -0.1642  0.5306
 9000TIP3   OH248414   1.704   1.591  13.337 -0.2074  0.2374  0.1530
 9000TIP3    H148415   1.659   1.663  13.292  1.6728  0.5864 -1.3302
 9000TIP3    H248416   1.645   1.516  13.327 -1.1393  1.0141 -0.3760
 9001TIP3   OH248417   0.977   0.221   2.920 -0.0005  0.2825  0.5207
 9001TIP3    H148418   1.032   0.206   2.843  0.9131 -0.7992  1.3501
 9001TIP3    H248419   1.039   0.235   2.992 -0.8317  2.1829  0.9344
 9002TIP3   OH248420   5.252   1.792  11.029  0.7988  0.0883 -0.4676
 9002TIP3    H148421   5.223   1.865  10.974 -1.8936 -0.5844 -0.0626
 9002TIP3    H248422   5.266   1.720  10.969  4.6422  1.0909 -1.0367
 9003TIP3   OH248423   0.799   1.672  13.803 -0.0996  0.2358 -0.0227
 9003TIP3    H148424   0.739   1.725  13.749  1.2801 -0.0263 -1.9423
 9003TIP3    H248425   0.758   1.586  13.807 -0.3497  0.3298 -0.4619
 9004TIP3   OH248426   3.511   3.540  13.575 -0.2490 -0.2736  0.3271
 9004TIP3    H148427   3.564   3.610  13.613 -0.6309 -0.1694  0.6816
 9004TIP3    H248428   3.571   3.466  13.568  0.0836  0.0014  0.2181
 9005TIP3   OH248429   2.659   3.980  12.316 -0.4986 -0.4377  0.6114
 9005TIP3    H148430   2.686   3.915  12.250 -0.1703 -0.6106  0.9120
 9005TIP3    H248431   2.741   4.006  12.358 -0.6282  0.1865  0.4805
 9006TIP3   OH248432   6.005   0.445   0.310 -0.1454 -0.6250  0.3388
 9006TIP3    H148433   6.045   0.358   0.303 -1.6101 -1.3017  0.0204
 9006TIP3    H248434   5.996   0.474   0.219 -1.0364 -0.8066  0.3633
 9007TIP3   OH248435   6.237   6.435  11.205 -0.4748  0.1954 -0.0070
 9007TIP3    H148436   6.160   6.408  11.156 -0.3125  0.5049 -0.4436
 9007TIP3    H248437   6.300   6.462  11.138 -0.4947  1.2802  0.4018
 9008TIP3   OH248438   0.121   1.189  12.064 -0.3320 -0.2258 -0.2231
 9008TIP3    H148439   0.080   1.242  12.132  1.1328  0.5228  0.1195
 9008TIP3    H248440   0.164   1.118  12.111  0.6218  0.2514 -0.3615
 9009TIP3   OH248441   4.853   4.804   4.435  0.3290  0.3618 -0.0017
 9009TIP3    H148442   4.818   4.716   4.454  0.0181  0.5681  0.3936
 9009TIP3    H248443   4.852   4.810   4.340  0.3449 -0.0621 -0.0320
 9010TIP3   OH248444   0.592   3.067   4.347  0.2567  0.0026  0.7277
 9010TIP3    H148445   0.564   3.019   4.425  0.5322 -0.6965  0.4036
 9010TIP3    H248446   0.513   3.074   4.294  0.5009 -1.2853  0.1675
 9011TIP3   OH248447   5.324   3.618   3.713 -0.7485 -0.0850  0.3954
 9011TIP3    H148448   5.331   3.632   3.807  0.9350 -1.1811  0.4835
 9011TIP3    H248449   5.250   3.673   3.685  0.5106  2.5339  1.8686
 9012TIP3   OH248450   0.929   3.425  14.475 -0.6275 -0.2235 -0.0750
 9012TIP3    H148451   0.934   3.353  14.538 -0.8636 -0.2586 -0.0976
 9012TIP3    H248452   0.966   3.500  14.521 -1.2050 -0.1382  0.2592
 9013TIP3   OH248453   0.357   5.459   2.422  0.2566  0.3888  0.6595
 9013TIP3    H148454   0.276   5.506   2.404 -0.5367 -1.6421 -1.7313
 9013TIP3    H248455   0.363   5.457   2.517 -3.3601 -0.6141  1.0315
 9014TIP3   OH248456   0.126   0.164   0.799 -0.6068  0.0323  0.0201
 9014TIP3    H148457   0.133   0.068   0.802  1.0909  0.1210 -0.1369
 9014TIP3    H248458   0.216   0.195   0.805 -0.9810  1.5879 -1.5159
 9015TIP3   OH248459   3.634   4.748  16.781  0.5551  0.2937  0.0316
 9015TIP3    H148460   3.685   4.675  16.815  0.8156  0.6538  0.4257
 9015TIP3    H248461   3.696   4.821  16.778  0.8438  0.0272 -2.2193
 9016TIP3   OH248462   5.112   5.184  12.294 -0.5617  0.2237  0.4586
 9016TIP3    H148463   5.069   5.151  12.373 -2.0193  0.0148 -0.3725
 9016TIP3    H248464   5.117   5.278  12.307 -0.1855  0.1255  1.0713
 9017TIP3   OH248465   2.869   2.295  11.631  0.4099  0.2455  0.0017
 9017TIP3    H148466   2.810   2.317  11.702 -0.5323  0.3749 -0.8040
 9017TIP3    H248467   2.933   2.366  11.629  0.7194  0.0180  0.9824
 9018TIP3   OH248468   3.343   4.819   6.369 -0.0340 -0.7685 -0.0298
 9018TIP3    H148469   3.308   4.890   6.316 -0.2728 -0.3545  0.6623
 9018TIP3    H248470   3.417   4.859   6.416  0.1291 -1.1075  0.0059
 9019TIP3   OH248471   2.654   2.866   0.591  0.2126 -0.2190  0.2163
 9019TIP3    H148472   2.608   2.821   0.520  0.0980  1.1682 -0.6299
 9019TIP3    H248473   2.590   2.928   0.626 -0.4547 -2.3455  3.0385
 9020TIP3   OH248474   2.880   1.285   2.955 -0.2241 -0.2944 -0.2407
 9020TIP3    H148475   2.808   1.321   3.007 -0.0177 -0.7100  0.3429
 9020TIP3    H248476   2.840   1.215   2.903 -0.2527 -0.4936  0.0480
 9021TIP3   OH248477   2.085   6.658  12.251 -0.0049  0.3080  0.2207
 9021TIP3    H148478   2.044   6.632  12.334  1.2165  1.6483  1.2827
 9021TIP3    H248479   2.011   6.679  12.194 -0.8915 -1.2236  0.7270
 9022TIP3   OH248480   4.536   0.025   4.224  0.0123  0.0765 -0.1681
 9022TIP3    H148481   4.519   0.072   4.305 -0.2723 -0.4427  0.0768
 9022TIP3    H248482   4.577   0.090   4.167 -2.1140  1.1760 -0.5455
 9023TIP3   OH248483   2.453   2.318  11.939  0.5493  0.1063  0.0091
 9023TIP3    H148484   2.457   2.394  11.997  0.1614  0.7627 -0.8009
 9023TIP3    H248485   2.361   2.309  11.917  0.2726 -1.8293  1.6346
 9024TIP3   OH248486   4.254   2.415  13.813  0.4323 -0.2882 -0.0778
 9024TIP3    H148487   4.320   2.484  13.822  2.1572 -1.7238 -0.9576
 9024TIP3    H248488   4.219   2.404  13.902  2.4092 -0.4021  0.7526
 9025TIP3   OH248489   3.194   1.076   0.640  0.1579 -0.0400  0.2063
 9025TIP3    H148490   3.143   1.136   0.586 -1.0410 -0.3797  0.9248
 9025TIP3    H248491   3.186   0.991   0.596  3.0054  0.4701 -1.6011
 9026TIP3   OH248492   4.484   6.204  13.883  0.3238  0.6829  0.5792
 9026TIP3    H148493   4.521   6.265  13.947 -0.3085  0.7649  0.8664
 9026TIP3    H248494   4.444   6.135  13.936  2.0041 -0.6013  0.2780
 9027TIP3   OH248495   1.357   3.786   0.560 -0.4515  0.0531  0.0189
 9027TIP3    H148496   1.398   3.807   0.476 -0.9025 -1.4945 -0.6190
 9027TIP3    H248497   1.374   3.863   0.614 -0.5090  1.2678 -1.6090
 9028TIP3   OH248498   3.864   0.427   5.174  0.2912  0.1284  0.4100
 9028TIP3    H148499   3.948   0.387   5.197  0.5463 -0.0276 -0.7201
 9028TIP3    H248500   3.808   0.353   5.151 -0.1527  0.2343  1.1343
 9029TIP3   OH248501   5.677   4.851  17.024 -0.3833  0.3238  0.1137
 9029TIP3    H148502   5.760   4.807  17.005 -0.1782  0.6578  0.2199
 9029TIP3    H248503   5.613   4.781  17.028 -0.2182  0.1268 -0.5887
 9030TIP3   OH248504   5.300   1.070   4.878  0.1234  0.6518  0.3819
 9030TIP3    H148505   5.378   1.076   4.823 -0.6071 -0.6303 -0.8537
 9030TIP3    H248506   5.329   1.023   4.956  0.7253  0.7305  0.2089
 9031TIP3   OH248507   1.027   1.395   2.457 -0.7336  0.5647  0.0809
 9031TIP3    H148508   0.955   1.333   2.464 -0.6356  0.4477  0.0555
 9031TIP3    H248509   1.018   1.433   2.369 -0.3763  0.0682 -0.1762
 9032TIP3   OH248510   0.051   0.963   1.124 -0.6922 -0.0529  0.4889
 9032TIP3    H148511   0.014   0.882   1.088 -0.5866  0.5232 -0.9937
 9032TIP3    H248512   0.056   0.947   1.218 -1.9337 -1.2603  0.3879
 9033TIP3   OH248513   2.203   6.452   5.684 -0.4834  0.1428  0.0411
 9033TIP3    H148514   2.127   6.479   5.734 -1.1525 -0.9796 -0.3401
 9033TIP3    H248515   2.211   6.358   5.699 -0.2413 -0.0855 -1.3144
 9034TIP3   OH248516   2.454   1.557   1.010  0.1422  0.9507  0.1557
 9034TIP3    H148517   2.548   1.546   0.995  0.6445  0.4197  3.0380
 9034TIP3    H248518   2.414   1.537   0.926  2.3882 -2.4719 -0.2829
 9035TIP3   OH248519   0.491   6.472  15.244 -0.7188 -0.1443  0.4293
 9035TIP3    H148520   0.494   6.487  15.338 -0.3401  0.1224  0.3798
 9035TIP3    H248521   0.438   6.394  15.233  0.6899 -1.2244  0.9908
 9036TIP3   OH248522   2.807   6.088   4.569 -0.2011 -0.7511  0.3938
 9036TIP3    H148523   2.877   6.025   4.579  0.2051 -0.1407  1.5917
 9036TIP3    H248524   2.728   6.035   4.560  0.4673 -1.4607 -1.7955
 9037TIP3   OH248525   4.293   4.039   4.243  0.8611  0.3047  0.2864
 9037TIP3    H148526   4.239   3.987   4.302  1.3560 -0.7709 -0.1922
 9037TIP3    H248527   4.232   4.099   4.201 -0.2891 -1.8790 -1.3624
 9038TIP3   OH248528   2.428   0.658   2.638 -0.1038  0.2816  0.2652
 9038TIP3    H148529   2.353   0.613   2.599  0.6529  0.0945 -1.0589
 9038TIP3    H248530   2.465   0.595   2.700  0.0615 -0.3621 -0.4712
 9039TIP3   OH248531   4.396   5.156  14.698 -0.6292  0.6011 -0.4567
 9039TIP3    H148532   4.405   5.068  14.733  1.1442  0.5195 -1.0493
 9039TIP3    H248533   4.451   5.157  14.620  1.4988  2.9226  0.9202
 9040TIP3   OH248534   3.253   0.110  14.968  0.4339 -0.5651  0.2620
 9040TIP3    H148535   3.176   0.061  14.939 -1.8105  3.0566 -0.5942
 9040TIP3    H248536   3.312   0.108  14.892 -0.1546 -0.9586 -0.1989
 9041TIP3   OH248537   5.360   3.741  16.234  1.1163  0.1956  0.5499
 9041TIP3    H148538   5.416   3.781  16.167 -0.1849  0.1695 -0.6120
 9041TIP3    H248539   5.381   3.648  16.230  2.6588  0.4584  1.7964
 9042TIP3   OH248540   1.452   2.848  16.500 -0.4868 -0.1569 -0.5132
 9042TIP3    H148541   1.457   2.937  16.465  0.2248 -0.1256 -0.3281
 9042TIP3    H248542   1.423   2.859  16.590 -1.7987 -0.2070 -0.9042
 9043TIP3   OH248543   5.359   1.445  15.916 -0.5218 -0.2210  0.5415
 9043TIP3    H148544   5.321   1.503  15.982 -1.5702 -0.3614  0.0926
 9043TIP3    H248545   5.357   1.496  15.835  0.6882 -0.0730  0.5848
 9044TIP3   OH248546   3.148   4.157  15.222  0.0336  0.4310 -0.4957
 9044TIP3    H148547   3.223   4.188  15.171  0.4362 -0.4487 -0.4503
 9044TIP3    H248548   3.094   4.110  15.159  0.3133 -0.2810 -0.2187
 9045TIP3   OH248549   1.114   5.910   3.916  0.1941 -0.0933 -0.1260
 9045TIP3    H148550   1.025   5.911   3.881 -0.1507 -0.1775  0.7392
 9045TIP3    H248551   1.111   5.966   3.993  1.5731  2.2468 -1.6749
 9046TIP3   OH248552   2.899   1.471  11.236  0.1818  0.2794 -0.1056
 9046TIP3    H148553   2.926   1.562  11.247 -0.1249  0.5295 -1.2888
 9046TIP3    H248554   2.828   1.475  11.172  0.3985 -0.8302 -0.4312
 9047TIP3   OH248555   2.959   3.587  13.056 -0.2368  0.3639 -0.3422
 9047TIP3    H148556   2.941   3.663  13.111 -0.7601 -0.2053  0.2964
 9047TIP3    H248557   2.968   3.515  13.118  0.8280  0.0056 -0.8970
 9048TIP3   OH248558   0.072   6.793   1.734 -0.3646 -0.1976 -0.0074
 9048TIP3    H148559  -0.020   6.819   1.733  0.4267  3.2562  1.2916
 9048TIP3    H248560   0.113   6.848   1.668  0.9905 -0.8090  0.2958
 9049TIP3   OH248561   1.000   4.633  13.641  0.2000  0.0347 -0.2834
 9049TIP3    H148562   0.979   4.727  13.634 -1.7849 -0.3575 -0.2863
 9049TIP3    H248563   1.021   4.621  13.733 -0.3464  0.3498 -0.1086
 9050TIP3   OH248564   0.666   5.668   5.153  0.1085 -0.4009 -0.2650
 9050TIP3    H148565   0.685   5.694   5.243  0.9126  1.8743 -1.0410
 9050TIP3    H248566   0.745   5.690   5.104 -0.2397 -1.7626 -1.5250
 9051TIP3   OH248567   2.659   3.230   4.864  0.4653  0.3165  0.4858
 9051TIP3    H148568   2.635   3.322   4.867  0.0744  0.2317  0.1015
 9051TIP3    H248569   2.715   3.217   4.940  0.5863  0.8877  0.5010
 9052TIP3   OH248570   3.759   2.495   0.250  0.0657  0.3411 -0.0415
 9052TIP3    H148571   3.711   2.537   0.178  0.6096  2.3242  0.7145
 9052TIP3    H248572   3.691   2.453   0.303 -0.3467 -1.2070 -1.6720
 9053TIP3   OH248573   6.534   5.223   3.485  0.3572  0.2837  0.0470
 9053TIP3    H148574   6.470   5.237   3.414  0.2878  0.9086  0.2322
 9053TIP3    H248575   6.615   5.201   3.440  0.1695  0.1070 -0.2101
 9054TIP3   OH248576   3.382   5.379   0.199 -0.2470 -0.2722  0.2223
 9054TIP3    H148577   3.411   5.414   0.283 -0.8143  0.0067  0.3075
 9054TIP3    H248578   3.368   5.286   0.214  0.7545 -0.4520  0.1337
 9055TIP3   OH248579   5.331   5.966  11.875 -0.5107 -0.1256 -0.2756
 9055TIP3    H148580   5.266   5.958  11.944 -1.4848  1.6071 -0.9287
 9055TIP3    H248581   5.365   5.877  11.862 -1.4701 -0.7406  1.2842
 9056TIP3   OH248582   1.145   6.607  16.109 -0.3656  0.7399  0.6867
 9056TIP3    H148583   1.227   6.565  16.082 -2.0777 -0.7998 -2.8595
 9056TIP3    H248584   1.124   6.567  16.193  1.6564 -0.0900  0.8648
 9057TIP3   OH248585   4.304   1.193   4.457 -0.1433  0.4515  0.1148
 9057TIP3    H148586   4.336   1.156   4.375 -0.1881 -0.0800  0.3299
 9057TIP3    H248587   4.383   1.205   4.510 -0.1696  0.2458  0.2053
 9058TIP3   OH248588   4.594   0.409  13.278 -0.1526  0.1138 -0.1383
 9058TIP3    H148589   4.536   0.376  13.209  0.1954 -0.1590 -0.3075
 9058TIP3    H248590   4.541   0.407  13.357 -0.0716 -1.1321 -0.0883
 9059TIP3   OH248591   6.536   2.131   4.651  0.0211 -0.3112  0.2872
 9059TIP3    H148592   6.497   2.217   4.630  0.9235  0.8776  2.9801
 9059TIP3    H248593   6.461   2.077   4.676 -0.4079  0.3176  0.4068
 9060TIP3   OH248594   6.582   5.719  12.970 -0.4008  0.1029 -0.8150
 9060TIP3    H148595   6.492   5.687  12.985  0.3042 -0.9821  1.5842
 9060TIP3    H248596   6.600   5.695  12.880 -1.4401 -2.6628 -0.4213
 9061TIP3   OH248597   4.780   0.403  10.859  0.0856 -0.3766 -0.2460
 9061TIP3    H148598   4.736   0.343  10.799  0.3447 -0.9761  0.1510
 9061TIP3    H248599   4.715   0.471  10.877 -0.0455 -0.2666 -1.0841
 9062TIP3   OH248600   5.107   4.245   5.915  0.3164 -0.3461 -0.1133
 9062TIP3    H148601   5.148   4.217   5.996  0.8162  0.6329 -0.0083
 9062TIP3    H248602   5.107   4.341   5.920  0.5239 -0.2596 -1.3367
 9063TIP3   OH248603   1.521   1.035  14.023  0.2441 -0.3450  0.0862
 9063TIP3    H148604   1.452   0.969  14.017  0.4645 -0.6704  0.9687
 9063TIP3    H248605   1.548   1.050  13.933 -0.3475 -0.8894 -0.1873
 9064TIP3   OH248606   3.585   5.797  14.804 -0.4293 -0.2350  0.3091
 9064TIP3    H148607   3.518   5.858  14.775  0.2902  0.3774 -0.0741
 9064TIP3    H248608   3.544   5.711  14.795 -1.4167  0.1655  0.7676
 9065TIP3   OH248609   6.251   5.578  11.906 -0.5677 -0.0517 -0.3867
 9065TIP3    H148610   6.257   5.668  11.873  0.9533  0.4728  1.1546
 9065TIP3    H248611   6.169   5.576  11.955 -0.5808  0.5262 -0.3717
 9066TIP3   OH248612   3.373   2.874   4.670 -0.4258  0.5717 -0.7559
 9066TIP3    H148613   3.312   2.882   4.743  1.6835 -0.2313  1.2109
 9066TIP3    H248614   3.336   2.803   4.617 -2.2146  1.4373 -0.7466
 9067TIP3   OH248615   3.622   4.812   1.413  0.6980  0.6075  0.4003
 9067TIP3    H148616   3.531   4.826   1.439 -0.3088 -0.0999 -2.4056
 9067TIP3    H248617   3.643   4.888   1.358 -0.1557 -1.6662 -3.4398
 9068TIP3   OH248618   6.275   2.910   0.917  0.3641  0.1345  0.3422
 9068TIP3    H148619   6.210   2.928   0.849  1.4503  1.3170 -0.4315
 9068TIP3    H248620   6.351   2.876   0.870  1.5288  1.9908  0.7945
 9069TIP3   OH248621   0.498   1.000   6.137  0.5834 -0.2486  0.3947
 9069TIP3    H148622   0.549   1.079   6.117  0.6189 -0.2443  0.4960
 9069TIP3    H248623   0.506   0.992   6.232  0.8534 -0.5583  0.3483
 9070TIP3   OH248624   1.398   4.204  12.219 -0.1205 -0.2472 -0.7629
 9070TIP3    H148625   1.375   4.235  12.307  2.0732  1.7338 -0.7744
 9070TIP3    H248626   1.409   4.110  12.229  0.7379  0.0090  1.2690
 9071TIP3   OH248627   6.271   5.653   1.348 -0.1372  0.2164 -0.1581
 9071TIP3    H148628   6.350   5.704   1.332  0.0013 -0.3640 -1.5300
 9071TIP3    H248629   6.206   5.690   1.288 -0.4956 -0.1771 -0.0175
 9072TIP3   OH248630   4.199   3.408   4.506  0.5346  0.1733 -0.3932
 9072TIP3    H148631   4.144   3.352   4.450  1.0681  1.6126 -2.4978
 9072TIP3    H248632   4.183   3.497   4.473  2.3264  0.8816  0.5301
 9073TIP3   OH248633   5.415   3.469   1.456 -0.2862  0.3785  0.6904
 9073TIP3    H148634   5.443   3.512   1.375  0.6867  0.3718  1.0092
 9073TIP3    H248635   5.485   3.406   1.474 -1.5196 -1.1280  0.4128
 9074TIP3   OH248636   2.517   1.041   5.371  0.1862 -0.2909 -0.4021
 9074TIP3    H148637   2.511   0.996   5.456  2.0052  1.0050  0.4855
 9074TIP3    H248638   2.595   1.096   5.379 -0.7401  1.4036 -2.1867
 9075TIP3   OH248639   2.189   3.796  14.123  0.2017 -0.0839  0.3263
 9075TIP3    H148640   2.093   3.801  14.126  0.1696 -0.1244 -0.4313
 9075TIP3    H248641   2.211   3.824  14.034  1.0078  1.7007  1.0310
 9076TIP3   OH248642   4.991   1.871   4.227 -0.0118  0.0169  0.2649
 9076TIP3    H148643   4.976   1.807   4.157  1.0345 -0.4745  0.4702
 9076TIP3    H248644   4.919   1.857   4.288  0.9415 -1.9922  1.0385
 9077TIP3   OH248645   3.873   6.473   1.009 -0.3532 -0.4238  0.2083
 9077TIP3    H148646   3.855   6.379   1.013  0.3887 -0.6049 -0.3689
 9077TIP3    H248647   3.868   6.494   0.916 -0.0445  0.0014  0.2861
 9078TIP3   OH248648   6.419   6.810   2.274 -0.0086  0.1567  0.2180
 9078TIP3    H148649   6.389   6.806   2.365  0.2518 -1.2118  0.2629
 9078TIP3    H248650   6.394   6.898   2.245 -0.7666  0.3529  1.3764
 9079TIP3   OH248651   5.145   0.688  12.287  0.2731 -0.2482  0.3560
 9079TIP3    H148652   5.217   0.652  12.236  0.1223  0.9287 -0.7231
 9079TIP3    H248653   5.188   0.732  12.361  0.4940 -1.8484  1.2438
 9080TIP3   OH248654   1.631   6.367  13.886  0.2481  0.4548  0.1010
 9080TIP3    H148655   1.666   6.391  13.971  0.1587  1.3563 -0.1029
 9080TIP3    H248656   1.539   6.345  13.902  0.0789  1.1811  0.1569
 9081TIP3   OH248657   4.772   0.976   3.950  0.1383  0.4947 -0.1330
 9081TIP3    H148658   4.822   1.051   3.918 -1.8408  1.9401 -0.0023
 9081TIP3    H248659   4.734   1.007   4.032 -0.0886 -0.9532  0.3264
 9082TIP3   OH248660   3.065   0.962  12.590 -0.8464  0.7138 -0.3945
 9082TIP3    H148661   2.987   0.932  12.543 -0.3735 -0.1153 -0.6761
 9082TIP3    H248662   3.086   0.889  12.649 -0.9668  1.4157  0.5390
 9083TIP3   OH248663   6.724   5.939   1.067 -0.1592  0.1914  0.1754
 9083TIP3    H148664   6.710   5.880   1.141 -0.2177 -0.7501 -0.5666
 9083TIP3    H248665   6.649   5.923   1.009 -0.9172  2.0178  0.6025
 9084TIP3   OH248666   1.027   1.877  15.320 -0.1037 -0.4527 -0.0084
 9084TIP3    H148667   1.096   1.812  15.308 -0.3449 -0.6834 -0.1310
 9084TIP3    H248668   0.948   1.827  15.340 -0.0977 -0.1615  0.8226
 9085TIP3   OH248669   4.231   3.238   1.693 -0.4958  0.3795  0.0340
 9085TIP3    H148670   4.172   3.220   1.766  0.1224 -1.5470  0.1121
 9085TIP3    H248671   4.187   3.201   1.616  0.7523 -1.5777  0.1779
 9086TIP3   OH248672   1.135   4.715   4.234 -0.1900  0.1825 -0.6857
 9086TIP3    H148673   1.218   4.760   4.246 -1.5323  3.3568 -2.2663
 9086TIP3    H248674   1.142   4.674   4.148 -0.5315  1.1262 -1.1671
 9087TIP3   OH248675   6.053   2.244   2.584 -0.0514 -0.4031 -0.6509
 9087TIP3    H148676   6.041   2.199   2.668  1.3213 -1.4103 -0.9557
 9087TIP3    H248677   6.064   2.336   2.608 -0.5075 -0.5616  0.1970
 9088TIP3   OH248678   2.438   3.672   0.958  0.5538  0.1003 -0.2674
 9088TIP3    H148679   2.388   3.625   1.025  0.4312  0.0162 -0.4146
 9088TIP3    H248680   2.530   3.657   0.980  0.5258 -0.8426 -0.7400
 9089TIP3   OH248681   5.288   0.078   4.514 -0.3015 -0.8845  0.3495
 9089TIP3    H148682   5.272   0.171   4.500 -0.2038 -0.7685  1.0104
 9089TIP3    H248683   5.382   0.071   4.528 -0.6133 -0.7057  3.0414
 9090TIP3   OH248684   0.756   3.679   2.166 -0.1668  0.9545 -0.6988
 9090TIP3    H148685   0.740   3.770   2.193 -3.6608  1.5682 -4.0061
 9090TIP3    H248686   0.697   3.627   2.221 -0.7401  1.1314 -1.1393
 9091TIP3   OH248687   0.066   2.452  16.602 -0.0193 -0.1562 -0.6924
 9091TIP3    H148688   0.157   2.424  16.616 -0.2390  0.0916  1.6230
 9091TIP3    H248689   0.019   2.419  16.679 -1.6240  0.8739 -1.1885
 9092TIP3   OH248690   6.295   1.742  11.442  0.0298  0.1559 -0.1748
 9092TIP3    H148691   6.312   1.789  11.360  0.7789  0.6264  0.2337
 9092TIP3    H248692   6.325   1.652  11.425  0.4949  0.3337 -0.3181
 9093TIP3   OH248693   2.947   4.797  15.529 -0.2036 -0.1150  0.0961
 9093TIP3    H148694   2.874   4.850  15.498 -0.7129 -1.8819 -1.8991
 9093TIP3    H248695   2.907   4.717  15.562  0.6787  0.0027  1.5818
 9094TIP3   OH248696   4.024   5.811  16.873 -0.5137 -0.1638  0.2389
 9094TIP3    H148697   4.011   5.845  16.962 -0.6654 -2.0557  1.0013
 9094TIP3    H248698   4.003   5.884  16.815 -0.5827  1.0633  1.7573
 9095TIP3   OH248699   0.530   5.473   6.100  0.6646  0.6232  0.8575
 9095TIP3    H148700   0.515   5.453   6.007  2.5199 -1.0518  0.8590
 9095TIP3    H248701   0.473   5.548   6.117 -1.4766 -0.4614 -1.0144
 9096TIP3   OH248702   3.090   4.387   1.590  0.4443  0.0063  0.2029
 9096TIP3    H148703   3.126   4.466   1.632 -2.4109  0.9087  1.2176
 9096TIP3    H248704   3.077   4.326   1.663 -0.9008  0.0947  0.0652
 9097TIP3   OH248705   3.069   0.221  16.683  0.4440  0.8656  0.4790
 9097TIP3    H148706   3.145   0.246  16.631 -1.0736  0.9080 -1.8724
 9097TIP3    H248707   3.086   0.131  16.708  0.6599  0.3619 -1.3054
 9098TIP3   OH248708   1.703   3.751   0.177 -0.2337 -0.1167  0.0402
 9098TIP3    H148709   1.743   3.737   0.262  0.2789 -0.7503 -0.2962
 9098TIP3    H248710   1.632   3.813   0.194  1.3048  1.6012  0.5198
 9099TIP3   OH248711   3.076   4.900   2.131 -0.2451 -0.4833 -0.2484
 9099TIP3    H148712   3.120   4.915   2.214  0.3806 -1.1334 -0.4546
 9099TIP3    H248713   3.027   4.819   2.143  1.9318 -2.0348 -1.3076
 9100TIP3   OH248714   0.019   6.618  13.599  0.3117 -0.1125 -0.5353
 9100TIP3    H148715   0.079   6.543  13.601 -1.6904 -1.8657 -1.2713
 9100TIP3    H248716   0.023   6.650  13.509  0.1824 -0.2171 -0.5796
 9101TIP3   OH248717   6.647   3.670   2.888  0.1692  0.3485 -0.5132
 9101TIP3    H148718   6.638   3.575   2.895  1.6803  0.2070 -0.0788
 9101TIP3    H248719   6.737   3.687   2.914  0.3064  1.7880 -1.8275
 9102TIP3   OH248720   1.039   1.348   1.462  0.3447 -0.3413  0.5136
 9102TIP3    H148721   1.089   1.271   1.434 -0.0612 -0.8233  1.0798
 9102TIP3    H248722   1.068   1.418   1.404  1.4708 -0.6761  0.6458
 9103TIP3   OH248723   6.472   0.518  11.485  0.0848 -0.3639 -0.6081
 9103TIP3    H148724   6.504   0.465  11.412  2.4246  1.1843 -0.8266
 9103TIP3    H248725   6.417   0.584  11.444  0.0936 -0.4590 -0.7755
 9104TIP3   OH248726   0.703   2.936  13.766  0.4405  0.0584 -0.2331
 9104TIP3    H148727   0.754   2.942  13.847  0.4372  1.0048 -0.2819
 9104TIP3    H248728   0.681   3.027  13.745 -0.8842 -0.2803 -0.4600
 9105TIP3   OH248729   6.384   6.628   3.674 -0.7099  0.2760 -0.2352
 9105TIP3    H148730   6.348   6.711   3.704 -0.2072  0.8748 -1.2022
 9105TIP3    H248731   6.308   6.577   3.645 -0.8572  1.5432 -2.3030
 9106TIP3   OH248732   6.220   5.108   2.058 -0.3527  0.0574 -0.2853
 9106TIP3    H148733   6.141   5.161   2.071 -1.2380 -1.6059  1.5772
 9106TIP3    H248734   6.220   5.046   2.130  3.3521  0.7259  0.4888
 9107TIP3   OH248735   1.343   1.491  11.216 -0.1274  0.4611  0.1448
 9107TIP3    H148736   1.430   1.457  11.196 -0.8417 -1.1583 -0.3562
 9107TIP3    H248737   1.298   1.495  11.131 -0.2652  2.1958  0.2525
 9108TIP3   OH248738   4.929   2.348  10.893  0.4623 -0.6473  0.1828
 9108TIP3    H148739   5.014   2.358  10.936  0.3777  0.0624  0.2081
 9108TIP3    H248740   4.881   2.288  10.949  0.1090  0.7810  1.4967
 9109TIP3   OH248741   4.774   0.943   2.874 -0.2998  0.2366 -0.0153
 9109TIP3    H148742   4.823   0.861   2.886  1.2101  0.8245 -1.6826
 9109TIP3    H248743   4.794   0.970   2.784 -0.0818  2.8670  0.7333
 9110TIP3   OH248744   3.711   0.558  14.899 -0.2026  0.1225  0.6802
 9110TIP3    H148745   3.688   0.467  14.880 -2.1035 -0.0395  3.2662
 9110TIP3    H248746   3.757   0.588  14.820  0.8512 -3.1583 -0.1051
 9111TIP3   OH248747   3.042   5.627   5.441 -0.3071 -0.6656 -0.3982
 9111TIP3    H148748   3.062   5.646   5.349  1.4015  0.7723  0.2101
 9111TIP3    H248749   3.127   5.614   5.482 -0.9806 -0.4060  1.1567
 9112TIP3   OH248750   1.262   6.545  11.999 -0.9028 -0.2219  0.2342
 9112TIP3    H148751   1.261   6.468  11.942  0.7249 -1.0209  1.2105
 9112TIP3    H248752   1.200   6.606  11.958  0.0630 -0.8160 -2.2778
 9113TIP3   OH248753   5.960   1.808   4.438  0.4099 -0.0441 -0.0500
 9113TIP3    H148754   5.880   1.804   4.492 -0.9722  0.9663 -1.8965
 9113TIP3    H248755   5.996   1.719   4.442 -0.2549 -0.2824  1.5856
 9114TIP3   OH248756   6.653   4.685  16.699  0.0013 -0.4601  0.2071
 9114TIP3    H148757   6.651   4.602  16.651 -1.0274 -0.8139  0.8375
 9114TIP3    H248758   6.736   4.683  16.746 -0.0123 -1.1406  0.2148
 9115TIP3   OH248759   5.190   1.577   1.258 -0.0782 -0.3088  0.4841
 9115TIP3    H148760   5.248   1.614   1.324  0.4725 -0.2033 -0.0543
 9115TIP3    H248761   5.104   1.576   1.300  0.2607 -0.2184  1.1898
 9116TIP3   OH248762   4.259   4.364   5.308  0.1098 -0.8297  0.4970
 9116TIP3    H148763   4.251   4.334   5.398  0.1832  0.4472  0.9468
 9116TIP3    H248764   4.319   4.438   5.312  0.7832 -1.2646 -0.7314
 9117TIP3   OH248765   6.203   6.274   0.264  0.2253  0.2483  0.4851
 9117TIP3    H148766   6.193   6.251   0.356 -1.0848  0.7777  0.5101
 9117TIP3    H248767   6.242   6.361   0.265 -1.0970  0.8657  0.6103
 9118TIP3   OH248768   1.161   6.365   3.632  0.3177 -0.3809  0.4138
 9118TIP3    H148769   1.136   6.348   3.723  1.2062 -3.6719  0.1800
 9118TIP3    H248770   1.256   6.354   3.632  0.5390  1.1739 -0.6985
 9119TIP3   OH248771   5.553   4.968  11.421 -0.2342 -0.4398  0.2165
 9119TIP3    H148772   5.496   4.908  11.470 -0.8374  0.9617  1.2875
 9119TIP3    H248773   5.493   5.021  11.369  0.3016 -0.7768 -0.7627
 9120TIP3   OH248774   0.315   0.772   3.196 -0.1544  0.0566  0.9575
 9120TIP3    H148775   0.346   0.688   3.229  2.4876 -0.6171 -2.6811
 9120TIP3    H248776   0.252   0.749   3.128 -1.8925  1.2349  2.0847
 9121TIP3   OH248777   1.670   6.724   0.769  0.0407  0.5959  0.2119
 9121TIP3    H148778   1.704   6.710   0.680 -0.8064 -1.8053  0.1977
 9121TIP3    H248779   1.745   6.709   0.826 -0.0091 -0.5109  0.0001
 9122TIP3   OH248780   6.242   2.152  16.195  0.4065  0.4107 -0.1938
 9122TIP3    H148781   6.149   2.171  16.185  0.3971 -0.0033 -1.0326
 9122TIP3    H248782   6.251   2.062  16.165  1.2736  0.8598 -1.3753
 9123TIP3   OH248783   3.407   5.289   4.558  0.0323  0.8997 -0.0439
 9123TIP3    H148784   3.414   5.357   4.624  0.8451 -1.2295  2.1948
 9123TIP3    H248785   3.497   5.260   4.543 -0.4546 -1.2555  0.8477
 9124TIP3   OH248786   1.323   1.841   0.002 -0.3492 -0.2244  0.1168
 9124TIP3    H148787   1.312   1.934   0.024  0.1533 -0.4608  1.4988
 9124TIP3    H248788   1.244   1.800   0.037  0.6392 -0.6650  1.9425
 9125TIP3   OH248789   2.789   0.533  10.651 -0.6700 -0.0044  0.0690
 9125TIP3    H148790   2.879   0.520  10.682 -1.0458  0.6428  1.5040
 9125TIP3    H248791   2.734   0.506  10.724 -1.8042 -3.1333 -1.7663
 9126TIP3   OH248792   5.241   2.623  12.262  1.0888 -0.4801  0.0825
 9126TIP3    H148793   5.169   2.647  12.204  2.7934  0.9191 -1.5836
 9126TIP3    H248794   5.211   2.543  12.306 -1.5603  0.2362 -0.2985
 9127TIP3   OH248795   5.858   0.507  13.530 -0.3978 -0.1213  0.2127
 9127TIP3    H148796   5.900   0.569  13.589 -0.8772 -0.8006  1.2988
 9127TIP3    H248797   5.850   0.555  13.447  3.4345 -0.2943 -0.4397
 9128TIP3   OH248798   3.314   3.518  15.927  0.2056 -0.4342 -0.3329
 9128TIP3    H148799   3.258   3.544  16.000  1.5844  4.5187 -0.6795
 9128TIP3    H248800   3.255   3.512  15.852 -0.3158  5.6485 -0.9201
 9129TIP3   OH248801   5.754   2.436  14.048  0.1038  0.3692 -0.3173
 9129TIP3    H148802   5.759   2.351  14.091 -0.9209  0.4551 -0.0123
 9129TIP3    H248803   5.836   2.480  14.073  0.2245 -0.1751  0.2710
 9130TIP3   OH248804   3.973   5.527  15.004  0.0322  0.1393 -0.0213
 9130TIP3    H148805   4.038   5.527  15.074  0.1540 -0.3304 -0.1270
 9130TIP3    H248806   3.948   5.435  14.994  1.6175 -0.1506 -2.0713
 9131TIP3   OH248807   4.518   3.848   3.793  0.4329  0.2254 -0.3479
 9131TIP3    H148808   4.434   3.827   3.752  0.4129 -1.1415  0.3521
 9131TIP3    H248809   4.505   3.831   3.886  1.0019  1.6186  0.0129
 9132TIP3   OH248810   6.774   1.369  14.106  0.1495 -0.3073  0.1415
 9132TIP3    H148811   6.817   1.287  14.081  1.1440  0.4587 -0.7402
 9132TIP3    H248812   6.766   1.363  14.201 -1.8769 -2.3954 -0.0599
 9133TIP3   OH248813   3.099   5.450  13.512 -0.2393  0.2004  0.2187
 9133TIP3    H148814   3.157   5.443  13.588  0.4552  0.0915 -0.3164
 9133TIP3    H248815   3.091   5.360  13.479 -0.6182  0.2328  0.2108
 9134TIP3   OH248816   2.282   1.427  12.429 -0.0855 -0.5047  0.4050
 9134TIP3    H148817   2.280   1.342  12.472  0.9233 -0.6996  0.0925
 9134TIP3    H248818   2.223   1.482  12.481 -0.9256 -1.4387  0.4775
 9135TIP3   OH248819   1.764   6.502  16.323  0.8427 -0.5064 -0.3107
 9135TIP3    H148820   1.817   6.558  16.380  0.8291  0.6092 -1.3606
 9135TIP3    H248821   1.824   6.475  16.253  0.7068 -1.4004 -0.1027
 9136TIP3   OH248822   6.596   1.017   0.890 -0.0866 -0.3257  0.3944
 9136TIP3    H148823   6.665   1.074   0.856 -1.0925  0.7799  0.0980
 9136TIP3    H248824   6.558   1.067   0.962  0.0844 -1.3678  1.2254
 9137TIP3   OH248825   2.603   3.774  11.779  0.4076  0.1324 -0.2047
 9137TIP3    H148826   2.678   3.828  11.803  2.1951 -1.2928 -2.2138
 9137TIP3    H248827   2.601   3.778  11.683  0.2797 -2.8652 -0.3991
 9138TIP3   OH248828   0.850   5.784  16.256  0.0170  0.0829 -0.2832
 9138TIP3    H148829   0.881   5.775  16.165  0.0205  0.9382 -0.3745
 9138TIP3    H248830   0.901   5.720  16.305  0.2954 -0.1185 -0.8238
 9139TIP3   OH248831   1.872   4.799   1.249  0.2515  0.7391 -0.3227
 9139TIP3    H148832   1.815   4.757   1.185 -1.4641  1.5535  0.5996
 9139TIP3    H248833   1.940   4.734   1.266 -1.0165 -0.7475 -0.6540
 9140TIP3   OH248834   6.231   4.260  14.616  0.4847  0.3991 -0.1306
 9140TIP3    H148835   6.269   4.211  14.544  0.2112  1.1418 -0.7979
 9140TIP3    H248836   6.296   4.255  14.686  2.2312  2.3041 -1.4967
 9141TIP3   OH248837   6.511   2.852  14.894 -0.1088 -1.1368 -0.5266
 9141TIP3    H148838   6.498   2.829  14.986 -1.1844  1.3415  0.0156
 9141TIP3    H248839   6.452   2.794  14.846 -0.7620 -1.3385  0.4988
 9142TIP3   OH248840   5.604   4.979  16.383 -0.1413  0.4134 -0.0870
 9142TIP3    H148841   5.688   5.021  16.398 -0.5721  1.0961  0.5380
 9142TIP3    H248842   5.558   5.037  16.322  0.0418 -0.2365 -0.8514
 9143TIP3   OH248843   1.488   0.496  10.712 -0.0059 -0.0666 -0.2351
 9143TIP3    H148844   1.395   0.519  10.709  0.4018  1.5573 -1.7499
 9143TIP3    H248845   1.518   0.530  10.797 -0.8650 -1.0291  0.4769
 9144TIP3   OH248846   5.753   1.047  12.815 -0.3819 -0.5887  0.4581
 9144TIP3    H148847   5.766   1.004  12.899 -2.2057 -1.8899  0.1253
 9144TIP3    H248848   5.799   0.991  12.752 -0.6272 -0.6840  0.3596
 9145TIP3   OH248849   1.427   4.577   1.317  0.2336 -0.2918  0.2596
 9145TIP3    H148850   1.376   4.617   1.246 -0.5668 -1.0402  0.3868
 9145TIP3    H248851   1.508   4.548   1.274  1.0278  1.7555  0.2468
 9146TIP3   OH248852   1.157   5.340  13.518 -0.1789 -0.0832 -0.2625
 9146TIP3    H148853   1.154   5.426  13.559 -0.6182 -0.3189  0.2161
 9146TIP3    H248854   1.106   5.284  13.576  0.2222 -0.7015 -0.4949
 9147TIP3   OH248855   0.018   5.232  16.257 -0.1927  0.4371  0.3949
 9147TIP3    H148856   0.088   5.285  16.295  0.1891 -0.2638  0.6891
 9147TIP3    H248857  -0.035   5.204  16.332  0.8288 -1.3317  0.5052
 9148TIP3   OH248858   4.685   0.146   4.723  0.2270  0.1599 -0.3075
 9148TIP3    H148859   4.697   0.240   4.728 -0.1093  0.1761  0.2900
 9148TIP3    H248860   4.644   0.131   4.637 -1.0422  0.7129  0.1737
 9149TIP3   OH248861   4.836   0.777   0.307  0.2419  0.2163  0.0821
 9149TIP3    H148862   4.765   0.832   0.339 -1.1379 -1.5411  0.2105
 9149TIP3    H248863   4.806   0.745   0.221  0.5514 -1.0458  0.4135
 9150TIP3   OH248864   2.788   4.060  11.326 -0.7965  0.2276 -0.2108
 9150TIP3    H148865   2.762   4.056  11.234 -1.1068 -1.4369 -0.0923
 9150TIP3    H248866   2.861   3.998  11.333  0.1162  1.3411  0.4078
 9151TIP3   OH248867   3.171   5.545   3.899  0.2455 -0.0453  0.1414
 9151TIP3    H148868   3.123   5.603   3.959 -1.3698  1.2968 -2.2919
 9151TIP3    H248869   3.137   5.457   3.919 -1.7142  0.6181 -0.0790
 9152TIP3   OH248870   3.142   3.900   5.503  0.4951 -0.4835  0.0558
 9152TIP3    H148871   3.231   3.910   5.536 -0.3078  0.6290  2.0447
 9152TIP3    H248872   3.093   3.973   5.541 -1.0076 -0.2860 -2.0433
 9153TIP3   OH248873   0.845   3.086   4.412 -0.1876 -0.0607 -0.2124
 9153TIP3    H148874   0.750   3.086   4.398 -0.1694  0.9080 -0.4480
 9153TIP3    H248875   0.856   3.124   4.499 -0.0674 -1.5207  0.4342
 9154TIP3   OH248876   6.745   0.294  11.586 -0.3737  0.5655 -0.0886
 9154TIP3    H148877   6.839   0.277  11.579 -0.0030  1.5061  2.0408
 9154TIP3    H248878   6.707   0.246  11.512  1.4249 -2.5103  0.8216
 9155TIP3   OH248879   5.222   3.957  16.320  0.7000  0.3124 -0.4675
 9155TIP3    H148880   5.264   3.899  16.257 -0.0116  1.6355 -2.2314
 9155TIP3    H248881   5.253   4.044  16.297  1.4155  0.7527  1.8540
 9156TIP3   OH248882   0.524   0.511  14.807 -0.4292 -0.2902  0.4598
 9156TIP3    H148883   0.431   0.503  14.785 -0.2932  0.6542 -0.5620
 9156TIP3    H248884   0.569   0.463  14.737 -0.0830  1.0269 -0.2734
 9157TIP3   OH248885   6.692   1.561   5.326 -0.1433 -0.7831 -0.1233
 9157TIP3    H148886   6.760   1.495   5.337  2.1762  0.7809 -3.4472
 9157TIP3    H248887   6.724   1.637   5.375  0.1302 -0.2951 -1.0490
 9158TIP3   OH248888   6.807   6.450   5.704 -0.6047 -0.3270 -0.5061
 9158TIP3    H148889   6.890   6.404   5.695 -0.0761  0.0142  1.9291
 9158TIP3    H248890   6.794   6.493   5.619  1.5428 -0.5978 -1.0252
 9159TIP3   OH248891   5.371   5.794  16.173 -0.0169 -0.3899  0.0235
 9159TIP3    H148892   5.450   5.812  16.224 -1.2290  2.3480  1.1358
 9159TIP3    H248893   5.403   5.781  16.084  1.7766 -0.4407  0.6278
 9160TIP3   OH248894   0.335   2.223  16.319  0.2718 -0.1060 -0.0499
 9160TIP3    H148895   0.372   2.186  16.400 -1.1924 -0.6687  0.3988
 9160TIP3    H248896   0.259   2.273  16.348 -0.7275 -0.9396 -1.1253
 9161TIP3   OH248897   3.486   4.516  12.534 -0.7331  0.2038 -0.0847
 9161TIP3    H148898   3.508   4.563  12.454 -1.2612 -0.5760 -0.7076
 9161TIP3    H248899   3.465   4.585  12.597  0.9651  0.8678 -0.2032
 9162TIP3   OH248900   1.113   4.791   1.846  0.6535 -0.4382 -0.4270
 9162TIP3    H148901   1.098   4.885   1.834  0.7200 -0.3701 -0.0107
 9162TIP3    H248902   1.189   4.772   1.790  0.3485 -0.3418 -0.8748
 9163TIP3   OH248903   3.684   4.326  14.930  0.1656 -0.3150 -0.8443
 9163TIP3    H148904   3.750   4.268  14.969  0.7344  0.4909 -0.5950
 9163TIP3    H248905   3.641   4.368  15.005  0.0804 -0.0577 -1.0357
 9164TIP3   OH248906   6.544   1.069  16.558 -0.1639 -0.1177 -0.0572
 9164TIP3    H148907   6.473   1.079  16.495 -0.4840 -1.1435  0.1187
 9164TIP3    H248908   6.569   1.158  16.581 -1.1241  0.2568 -0.4313
 9165TIP3   OH248909   3.734   4.401  14.358  0.2259 -0.3676  0.3448
 9165TIP3    H148910   3.766   4.491  14.368 -1.0309  0.0822  0.5605
 9165TIP3    H248911   3.690   4.382  14.441  0.2925 -1.1143  0.2197
 9166TIP3   OH248912   3.836   2.170   5.774 -0.0463  0.0222 -0.3799
 9166TIP3    H148913   3.854   2.227   5.848  3.9027  0.1080 -1.2087
 9166TIP3    H248914   3.884   2.090   5.793 -1.3832 -1.1110 -1.5424
 9167TIP3   OH248915   5.225   3.823  12.367  0.0384 -0.4188 -0.1682
 9167TIP3    H148916   5.243   3.734  12.337  0.7841 -0.8217  1.3371
 9167TIP3    H248917   5.175   3.811  12.448  0.3993  0.5022  0.2130
 9168TIP3   OH248918   4.009   6.126  13.422  0.4980 -0.2781  0.4534
 9168TIP3    H148919   4.094   6.086  13.442  0.5963 -0.5800 -0.5538
 9168TIP3    H248920   3.946   6.074  13.473  1.0455  0.9948  2.5745
 9169TIP3   OH248921   5.255   2.636  11.492 -0.2729 -0.5134  0.3126
 9169TIP3    H148922   5.270   2.542  11.507 -0.0807 -0.4103  0.7808
 9169TIP3    H248923   5.337   2.667  11.454 -0.4468 -0.5952 -0.1369
 9170TIP3   OH248924   5.481   4.212  16.737  0.2447  0.0612 -0.2878
 9170TIP3    H148925   5.536   4.251  16.669 -0.0920 -0.3770 -0.8114
 9170TIP3    H248926   5.529   4.230  16.818  0.1502  1.4805 -0.5127
 9171TIP3   OH248927   0.431   5.303   3.417 -0.3590  0.1317  0.1464
 9171TIP3    H148928   0.372   5.352   3.361 -0.1080  2.3011  1.6488
 9171TIP3    H248929   0.389   5.304   3.503  0.6600 -0.4952  0.6747
 9172TIP3   OH248930   1.490   3.835   1.564 -0.0588 -0.5562  0.0848
 9172TIP3    H148931   1.516   3.750   1.529 -0.4227 -1.2486  1.4159
 9172TIP3    H248932   1.535   3.841   1.648 -0.9991  0.0331  0.5577
 9173TIP3   OH248933   5.609   4.641  11.617  0.2027 -0.8747  0.3502
 9173TIP3    H148934   5.535   4.622  11.559 -0.8453  0.4912  1.1661
 9173TIP3    H248935   5.584   4.723  11.661  1.4955 -1.2214  1.8205
 9174TIP3   OH248936   2.483   1.123  16.382 -0.2896  0.2240  0.0365
 9174TIP3    H148937   2.547   1.110  16.312 -0.1692 -0.1172  0.2065
 9174TIP3    H248938   2.486   1.042  16.432  1.6814  1.4527  2.1236
 9175TIP3   OH248939   1.222   2.326  14.871 -0.0413 -0.0331  0.1557
 9175TIP3    H148940   1.242   2.419  14.880  0.0681  0.2773 -2.5881
 9175TIP3    H248941   1.307   2.284  14.859 -0.1710 -0.3879  0.4348
 9176TIP3   OH248942   1.992   0.172   1.848 -0.0399 -0.0079  0.3200
 9176TIP3    H148943   1.936   0.136   1.916 -0.4257 -0.4712 -0.2297
 9176TIP3    H248944   1.951   0.144   1.766  0.3936  0.5693 -0.1022
 9177TIP3   OH248945   2.598   6.180  12.368 -0.1193 -0.1864 -0.2188
 9177TIP3    H148946   2.518   6.230  12.352  0.3494  0.1437 -1.7199
 9177TIP3    H248947   2.669   6.241  12.349  0.4722 -0.9326 -0.4676
 9178TIP3   OH248948   3.314   0.935  10.622 -0.1494 -0.3006 -0.3011
 9178TIP3    H148949   3.368   0.862  10.654 -1.2157 -1.7661 -1.6693
 9178TIP3    H248950   3.240   0.893  10.579 -1.3395  1.6382 -0.2711
 9179TIP3   OH248951   2.085   5.619  10.892  0.2618 -0.2524 -0.1838
 9179TIP3    H148952   2.077   5.524  10.888  0.6201 -0.3259  0.5848
 9179TIP3    H248953   2.177   5.637  10.869  0.1443 -0.0698 -0.5305
 9180TIP3   OH248954   2.951   4.947   4.783 -0.4990  0.2686 -0.0471
 9180TIP3    H148955   2.999   5.011   4.836 -0.7669  1.6498 -1.4080
 9180TIP3    H248956   2.869   4.933   4.831 -0.6401  1.3288  0.0335
 9181TIP3   OH248957   4.108   3.105  11.453 -0.2245 -0.2041 -0.3131
 9181TIP3    H148958   4.161   3.157  11.513  0.6716 -2.4971  1.0269
 9181TIP3    H248959   4.163   3.030  11.430 -0.6186  0.4259 -3.9104
 9182TIP3   OH248960   3.218   2.843  10.993 -0.2455  0.3038  0.1617
 9182TIP3    H148961   3.132   2.816  10.961 -0.3774  1.4986 -0.5727
 9182TIP3    H248962   3.204   2.930  11.030  0.3736 -0.1087  1.3918
 9183TIP3   OH248963   3.985   5.008   5.331 -0.4931 -0.5988 -0.2816
 9183TIP3    H148964   4.034   5.058   5.267 -1.3625 -1.9181 -2.0672
 9183TIP3    H248965   3.895   5.009   5.298 -0.6539 -2.7181 -0.0323
 9184TIP3   OH248966   5.560   4.190  12.913  0.3345 -0.2907  0.6752
 9184TIP3    H148967   5.593   4.280  12.903 -0.1130 -0.3322 -1.5795
 9184TIP3    H248968   5.481   4.200  12.966 -0.8754  0.9777 -1.2436
 9185TIP3   OH248969   5.985   1.486  13.055  0.2316 -0.3603  0.0045
 9185TIP3    H148970   5.983   1.460  13.147 -0.7958 -0.8726 -0.1439
 9185TIP3    H248971   5.903   1.452  13.019  0.3897  0.2675 -0.9841
 9186TIP3   OH248972   6.492   6.595   6.036  0.0297  0.3881  0.1140
 9186TIP3    H148973   6.455   6.600   6.124  0.5765 -0.2115  0.3890
 9186TIP3    H248974   6.558   6.526   6.042 -0.9362 -0.6987 -1.1309
 9187TIP3   OH248975   5.366   1.023  13.473 -0.2790  0.2597 -0.2452
 9187TIP3    H148976   5.383   0.933  13.445 -1.6299 -0.3553  0.7886
 9187TIP3    H248977   5.422   1.076  13.417  0.2089 -1.1860 -1.1982
 9188TIP3   OH248978   0.680   3.760  14.300  0.3168 -0.3920 -0.8377
 9188TIP3    H148979   0.674   3.787  14.208 -1.4133  1.6604 -0.1930
 9188TIP3    H248980   0.643   3.833  14.349  1.7914 -1.1636  1.5800
 9189TIP3   OH248981   1.539   5.786   1.480 -0.1485 -0.2256 -0.1940
 9189TIP3    H148982   1.624   5.745   1.499 -0.5911 -0.2355  2.0472
 9189TIP3    H248983   1.483   5.713   1.454  0.7644 -0.0723 -2.8722
 9190TIP3   OH248984   5.758   0.948  13.554  0.5432 -0.2915 -0.4019
 9190TIP3    H148985   5.789   1.017  13.495  1.2059  0.1630  0.4433
 9190TIP3    H248986   5.665   0.938  13.532  0.1509  1.6192  0.1101
 9191TIP3   OH248987   4.523   5.328   4.446 -0.7514  0.2287  0.6745
 9191TIP3    H148988   4.568   5.411   4.461 -1.4619  0.7650 -0.0878
 9191TIP3    H248989   4.435   5.353   4.419 -1.0730 -0.7853  0.7421
 9192TIP3   OH248990   0.451   1.100   4.173  0.0330 -0.6806 -0.7391
 9192TIP3    H148991   0.405   1.116   4.091 -0.0606  0.8425 -0.4140
 9192TIP3    H248992   0.455   1.185   4.216  2.9883 -0.7213 -0.6773
 9193TIP3   OH248993   3.434   1.369  14.065 -0.0120 -0.2086  0.4244
 9193TIP3    H148994   3.501   1.420  14.110  0.5214  0.0288 -0.5966
 9193TIP3    H248995   3.406   1.426  13.993 -0.6522 -0.6736  0.3000
 9194TIP3   OH248996   6.365   1.127   4.995  0.3933 -0.7094  0.0278
 9194TIP3    H148997   6.343   1.201   5.052 -1.8408  0.4498 -2.1223
 9194TIP3    H248998   6.386   1.056   5.055  2.1490  1.4687  2.1991
 9195TIP3   OH248999   5.300   2.442  15.543 -0.3642 -0.1574  0.1580
 9195TIP3    H149000   5.369   2.394  15.496 -0.4455  0.0694 -0.1967
 9195TIP3    H249001   5.304   2.530  15.507  0.3989  0.3559  1.4665
 9196TIP3   OH249002   4.454   4.710   0.072 -0.1405  0.5218 -0.1354
 9196TIP3    H149003   4.513   4.748   0.007 -0.0390  1.1288  0.3066
 9196TIP3    H249004   4.503   4.636   0.108  0.4309  1.1226  0.3496
 9197TIP3   OH249005   2.173   1.743  13.425  1.0684 -0.6941  0.2705
 9197TIP3    H149006   2.245   1.729  13.486  0.1173 -0.5441  1.4678
 9197TIP3    H249007   2.096   1.754  13.481  0.5516  1.9841 -0.8270
 9198TIP3   OH249008   3.103   1.325  11.360  0.1519  0.1054  0.1604
 9198TIP3    H149009   3.101   1.235  11.329  0.9982  0.3936 -0.7731
 9198TIP3    H249010   3.030   1.368  11.316 -0.3632 -0.1485  0.7433
 9199TIP3   OH249011   6.255   0.799  14.626 -0.0601  0.7225  0.4608
 9199TIP3    H149012   6.174   0.830  14.666 -1.6596 -1.3741 -0.9409
 9199TIP3    H249013   6.246   0.704  14.624  2.5002  0.4153  0.3292
 9200TIP3   OH249014   2.152   0.523   4.982 -0.6746 -0.4297 -0.5497
 9200TIP3    H149015   2.241   0.545   5.008  0.2096 -2.2990 -1.7678
 9200TIP3    H249016   2.136   0.576   4.904  0.2371 -1.6906 -1.6229
 9201TIP3   OH249017   0.230   1.965   6.029 -0.6695 -0.0514  0.1071
 9201TIP3    H149018   0.199   1.986   6.117 -2.1143  0.1782 -0.4327
 9201TIP3    H249019   0.235   1.870   6.027  1.6519 -0.0178  1.1564
 9202TIP3   OH249020   5.723   1.226  14.251  0.0037  0.2005  0.0200
 9202TIP3    H149021   5.705   1.149  14.197  2.6592 -0.4618 -0.0859
 9202TIP3    H249022   5.639   1.248  14.291 -1.7359 -0.2600 -3.0692
 9203TIP3   OH249023   6.305   0.168   1.903 -0.3848  0.1061  0.2415
 9203TIP3    H149024   6.241   0.235   1.879 -0.6578  0.0017  0.6730
 9203TIP3    H249025   6.310   0.110   1.827 -1.6260 -0.5242  0.6254
 9204TIP3   OH249026   0.546   0.076   4.337  0.3149  0.0129 -0.4739
 9204TIP3    H149027   0.607   0.139   4.377  0.4751 -1.0354  1.0291
 9204TIP3    H249028   0.599   0.030   4.273  0.2342  1.2660 -1.4925
 9205TIP3   OH249029   1.515   5.093   0.440 -0.3374 -0.2556 -0.5946
 9205TIP3    H149030   1.434   5.074   0.392 -0.1091  0.2812 -1.2187
 9205TIP3    H249031   1.573   5.131   0.374  0.0750  0.2825  0.0660
 9206TIP3   OH249032   0.882   6.370   4.385  0.7539 -0.0770 -0.1041
 9206TIP3    H149033   0.853   6.279   4.382 -0.3039  0.2813 -2.4335
 9206TIP3    H249034   0.967   6.367   4.429 -0.1327 -1.8944  1.6745
 9207TIP3   OH249035   3.555   1.986   3.576  0.3438 -0.3266  0.0207
 9207TIP3    H149036   3.566   1.981   3.481  0.3965  0.4567 -0.0185
 9207TIP3    H249037   3.460   1.990   3.588  0.3835  2.0035 -0.1476
 9208TIP3   OH249038   4.221   2.391   3.670  0.8005 -0.3558 -0.0197
 9208TIP3    H149039   4.162   2.414   3.599  0.6413 -0.2636  0.1435
 9208TIP3    H249040   4.205   2.456   3.737  1.7965  0.2724 -0.3641
 9209TIP3   OH249041   2.069   5.278   1.092 -0.0909  0.4076 -0.4830
 9209TIP3    H149042   1.991   5.317   1.131  0.3752  0.9959 -0.1272
 9209TIP3    H249043   2.099   5.213   1.156  0.0931  0.6544 -0.3184
 9210TIP3   OH249044   2.922   4.014  10.118  0.1696  0.2020  0.0755
 9210TIP3    H149045   2.929   3.929  10.161  1.3766  1.0025  1.5993
 9210TIP3    H249046   2.892   4.073  10.187 -1.0198  0.9559 -1.0461
 9211TIP3   OH249047   4.375   0.521   2.314 -0.2180 -0.9313 -0.4791
 9211TIP3    H149048   4.369   0.535   2.219 -1.4070 -0.2719 -0.3295
 9211TIP3    H249049   4.425   0.596   2.346 -0.8557 -0.5153 -0.4500
 9212TIP3   OH249050   4.628   3.130  11.289  0.2964 -0.1995  0.8334
 9212TIP3    H149051   4.679   3.208  11.311  2.8099 -0.2961 -3.5514
 9212TIP3    H249052   4.688   3.057  11.305 -0.4600 -0.8445  0.7803
 9213TIP3   OH249053   5.617   3.362   2.591  0.1505 -0.2122 -0.1214
 9213TIP3    H149054   5.530   3.393   2.565  0.3825  1.1895  0.6680
 9213TIP3    H249055   5.642   3.419   2.663  0.3184 -2.7692  1.9675
 9214TIP3   OH249056   2.417   1.772  11.195  0.3602  0.0273 -0.0271
 9214TIP3    H149057   2.401   1.734  11.109  1.4695  0.8458 -0.6240
 9214TIP3    H249058   2.352   1.842  11.203  0.8540  0.5726 -0.6268
 9215TIP3   OH249059   3.606   0.994   1.487  0.0222 -0.1919  0.5380
 9215TIP3    H149060   3.521   0.960   1.513  0.0646 -0.4303  0.3696
 9215TIP3    H249061   3.665   0.967   1.557 -0.3352  1.3666  1.4728
 9216TIP3   OH249062   0.872   0.231  15.051 -0.4277 -0.6553  0.2003
 9216TIP3    H149063   0.793   0.179  15.034 -0.5208  0.0656 -1.8176
 9216TIP3    H249064   0.944   0.169  15.044 -0.7790 -1.3740  2.3188
 9217TIP3   OH249065   1.300   2.340   0.151  0.5019  0.1576  0.8648
 9217TIP3    H149066   1.327   2.347   0.242  0.7024  2.6499  0.6845
 9217TIP3    H249067   1.363   2.394   0.103  0.1067 -0.7130 -0.6855
 9218TIP3   OH249068   6.198   0.470  11.897 -0.3102  0.3201  0.1831
 9218TIP3    H149069   6.228   0.460  11.988  1.1975 -0.4748 -0.3593
 9218TIP3    H249070   6.222   0.560  11.875  0.7001  0.0578  0.1323
 9219TIP3   OH249071   4.809   3.184   2.786  0.6885 -0.1126 -0.2452
 9219TIP3    H149072   4.777   3.257   2.734 -0.8085 -0.0682  0.6782
 9219TIP3    H249073   4.731   3.133   2.807  1.4925 -1.1066  0.4608
 9220TIP3   OH249074   0.572   0.786  15.474 -0.4052 -0.1982 -0.1776
 9220TIP3    H149075   0.546   0.768  15.564 -0.2256 -1.0914 -0.2894
 9220TIP3    H249076   0.647   0.844  15.481 -1.3593  1.0210  0.1965
 9221TIP3   OH249077   3.132   3.001   0.655 -0.1667 -0.1813 -0.1576
 9221TIP3    H149078   3.053   2.986   0.602 -0.2511 -0.3403  0.0119
 9221TIP3    H249079   3.159   3.090   0.633 -1.2112  0.4107  0.8224
 9222TIP3   OH249080   6.723   0.649   4.253  0.1361  0.1766  0.4995
 9222TIP3    H149081   6.712   0.642   4.158 -3.0985 -0.0476  0.8008
 9222TIP3    H249082   6.745   0.560   4.281  1.7101  0.3638 -0.0504
 9223TIP3   OH249083   0.040   3.495  17.024  0.3710  0.8213  0.0694
 9223TIP3    H149084   0.133   3.517  17.023  0.3764  0.7899 -1.3737
 9223TIP3    H249085   0.000   3.565  17.077  0.9458  2.0498 -1.0428
 9224TIP3   OH249086   1.945   2.030   0.270 -0.2361  0.2187  0.1969
 9224TIP3    H149087   1.961   2.120   0.242 -0.9362 -0.1253 -1.4154
 9224TIP3    H249088   1.950   2.033   0.366  1.7400  1.5695  0.1189
 9225TIP3   OH249089   5.875   4.009   2.090  0.6641 -0.4070  0.2090
 9225TIP3    H149090   5.935   3.941   2.058  0.9973  0.0957 -0.2441
 9225TIP3    H249091   5.799   3.960   2.122  0.1224 -0.9407 -1.7459
 9226TIP3   OH249092   1.939   6.326   6.800  0.0387  0.4221 -0.2461
 9226TIP3    H149093   1.980   6.393   6.746 -0.6068  1.4280  0.4674
 9226TIP3    H249094   1.872   6.373   6.849  0.7826 -0.3786  1.6380
 9227TIP3   OH249095   4.389   3.131   0.160 -0.0496 -0.0338  0.1253
 9227TIP3    H149096   4.294   3.145   0.163 -0.0482  0.2398 -0.7481
 9227TIP3    H249097   4.426   3.219   0.173  0.1044 -0.2228  1.0339
 9228TIP3   OH249098   2.783   3.537   4.001  0.4112 -0.3010 -0.2797
 9228TIP3    H149099   2.768   3.627   3.973  0.0119 -1.2052 -3.4033
 9228TIP3    H249100   2.872   3.518   3.973  0.6194 -0.7899  0.6799
 9229TIP3   OH249101   1.384   3.417   4.820  0.4003  0.0496 -0.4034
 9229TIP3    H149102   1.317   3.460   4.872  0.0312  0.9511 -1.5915
 9229TIP3    H249103   1.361   3.436   4.729  0.4855 -2.2814 -0.9711
 9230TIP3   OH249104   6.204   2.706   3.073 -0.3264  0.0055 -0.2647
 9230TIP3    H149105   6.285   2.671   3.112 -1.4429  0.9611  3.2500
 9230TIP3    H249106   6.138   2.639   3.092 -1.0504  0.8251  0.1430
 9231TIP3   OH249107   4.135   4.591  12.778  0.1136  0.0708  0.0695
 9231TIP3    H149108   4.105   4.548  12.858  1.0331 -0.6155  0.0543
 9231TIP3    H249109   4.056   4.630  12.741 -0.7205 -1.4874  0.1571
 9232TIP3   OH249110   4.497   2.798   2.404 -0.4342 -0.0082  0.1869
 9232TIP3    H149111   4.539   2.826   2.322 -2.0548  0.4823 -0.5044
 9232TIP3    H249112   4.482   2.880   2.452  0.4609 -0.2906  0.9697
 9233TIP3   OH249113   5.870   6.306   2.990  0.2348  0.1342  0.3029
 9233TIP3    H149114   5.835   6.268   2.909  0.9908  0.2595 -0.0934
 9233TIP3    H249115   5.804   6.369   3.017 -0.6568 -0.8683  0.5200
 9234TIP3   OH249116   2.275   0.441   5.295 -0.0631 -0.0066  0.3921
 9234TIP3    H149117   2.349   0.476   5.246  0.4246  0.6806  1.5751
 9234TIP3    H249118   2.307   0.360   5.334 -0.9539 -1.4592 -1.6975
 9235TIP3   OH249119   1.820   2.596  15.620 -0.8028 -0.5049  0.0079
 9235TIP3    H149120   1.834   2.602  15.525 -0.6332  1.7355  0.1250
 9235TIP3    H249121   1.730   2.627  15.633 -0.9455 -1.1465  0.5472
 9236TIP3   OH249122   2.082   5.083  14.506 -0.1517  0.3480 -0.0467
 9236TIP3    H149123   2.133   5.005  14.485  0.3698  0.8648 -0.7476
 9236TIP3    H249124   2.108   5.148  14.440 -0.4599  1.1697  0.6148
 9237TIP3   OH249125   1.939   1.472  13.858 -0.2899 -0.0004  0.3587
 9237TIP3    H149126   1.984   1.387  13.860  0.1693  0.2490  0.8170
 9237TIP3    H249127   1.851   1.453  13.891 -0.3055 -0.3679  0.1079
 9238TIP3   OH249128   6.161   6.523  16.934 -0.2666 -0.2721 -0.2702
 9238TIP3    H149129   6.251   6.526  16.967 -0.1046  0.1733 -0.7497
 9238TIP3    H249130   6.118   6.457  16.989  0.8251 -1.8312 -1.1880
 9239TIP3   OH249131   4.275   0.296  12.518 -0.8656 -0.5244 -0.4260
 9239TIP3    H149132   4.354   0.259  12.481 -0.7694 -1.3458  0.5513
 9239TIP3    H249133   4.246   0.231  12.583 -0.9172  0.8956  1.0490
 9240TIP3   OH249134   0.702   6.475  12.854  0.4518 -0.1472 -0.0701
 9240TIP3    H149135   0.613   6.511  12.846  0.5202 -0.1126 -0.7238
 9240TIP3    H249136   0.694   6.404  12.917 -0.0870 -0.2874 -0.2942
 9241TIP3   OH249137   5.696   3.915  14.286 -0.3121  0.3993 -0.8247
 9241TIP3    H149138   5.709   3.982  14.354 -0.0421 -0.1997 -0.2833
 9241TIP3    H249139   5.735   3.836  14.322  0.5010  0.2496 -1.9943
 9242TIP3   OH249140   3.364   5.668  14.281  0.7322  0.3627 -0.1864
 9242TIP3    H149141   3.417   5.595  14.251  0.8440 -0.0467  0.9667
 9242TIP3    H249142   3.279   5.655  14.238  1.1388  0.2751 -0.9817
 9243TIP3   OH249143   3.624   2.687   0.107 -0.4100 -0.7099 -0.5636
 9243TIP3    H149144   3.564   2.755   0.140  0.3957 -0.3826  0.2821
 9243TIP3    H249145   3.689   2.735   0.057 -0.0590 -0.8982 -0.2927
 9244TIP3   OH249146   0.777   4.441  14.218 -0.1751 -0.4207  0.6792
 9244TIP3    H149147   0.709   4.509  14.223  0.2554 -0.0498  1.7775
 9244TIP3    H249148   0.806   4.442  14.127 -1.4612 -0.4089  0.2523
 9245TIP3   OH249149   4.051   3.351  12.416 -0.3755 -0.2743  0.1000
 9245TIP3    H149150   4.071   3.315  12.502 -0.7178 -0.2324  0.1979
 9245TIP3    H249151   4.135   3.381  12.383 -0.2130 -0.4589  0.3427
 9246TIP3   OH249152   0.493   5.728  15.609  0.3195  0.2742  0.1610
 9246TIP3    H149153   0.401   5.753  15.619  0.4471  0.8959 -0.2324
 9246TIP3    H249154   0.541   5.809  15.617  0.6027  0.5827 -3.2337
 9247TIP3   OH249155   4.821   6.477  15.900  0.2377  0.5609 -0.1452
 9247TIP3    H149156   4.736   6.494  15.861 -0.2362  0.2529  0.7172
 9247TIP3    H249157   4.809   6.497  15.993  1.5885  2.2105 -0.2759
 9248TIP3   OH249158   1.302   5.315  14.524  0.4316  0.0435  0.4368
 9248TIP3    H149159   1.352   5.257  14.581  0.6049  0.0944  0.3346
 9248TIP3    H249160   1.211   5.301  14.551  0.2908 -1.5801 -0.7159
 9249TIP3   OH249161   5.444   3.627   1.227 -0.6670 -0.0016 -0.0815
 9249TIP3    H149162   5.477   3.639   1.138  0.6120  0.2963  0.4175
 9249TIP3    H249163   5.352   3.652   1.222  0.0470  2.8667 -0.7123
 9250TIP3   OH249164   6.205   2.483   2.603 -0.2987  0.6659  0.3301
 9250TIP3    H149165   6.161   2.491   2.519  0.4265 -0.7296 -0.2324
 9250TIP3    H249166   6.258   2.562   2.611 -0.9041  1.1305 -0.1939
 9251TIP3   OH249167   6.505   3.887  12.478 -0.4348 -0.7633  0.8220
 9251TIP3    H149168   6.448   3.960  12.453 -0.4762 -0.6963  1.1085
 9251TIP3    H249169   6.562   3.875  12.402  1.4714  1.4171  1.7538
 9252TIP3   OH249170   4.386   5.279   5.120 -0.2699 -0.1458  0.1796
 9252TIP3    H149171   4.336   5.361   5.119 -1.0878 -0.6280  0.3077
 9252TIP3    H249172   4.389   5.253   5.028  0.4019  0.2655  0.0812
 9253TIP3   OH249173   5.833   4.955   0.389 -0.2846 -0.3423 -0.4005
 9253TIP3    H149174   5.760   5.015   0.405 -0.2033  0.0805 -1.5387
 9253TIP3    H249175   5.905   5.012   0.361 -0.1058 -0.9347 -1.1694
 9254TIP3   OH249176   2.262   2.279   3.809  0.0564 -0.5768 -0.0993
 9254TIP3    H149177   2.298   2.250   3.725  2.4834  0.4409  0.5152
 9254TIP3    H249178   2.169   2.258   3.803  0.5163 -2.4480 -2.2013
 9255TIP3   OH249179   0.496   5.212  12.718  0.1704  0.2439 -0.8946
 9255TIP3    H149180   0.480   5.127  12.679 -0.9472  0.3140 -0.6220
 9255TIP3    H249181   0.409   5.251  12.728  0.2911 -0.0366  2.2431
 9256TIP3   OH249182   3.971   0.583  16.246 -0.5714  0.0869  0.6330
 9256TIP3    H149183   4.046   0.585  16.307 -0.0259  1.0750 -0.0466
 9256TIP3    H249184   3.903   0.537  16.295  0.4292 -0.7442  1.3222
 9257TIP3   OH249185   3.048   5.891  16.153 -0.5382 -0.0141  0.0999
 9257TIP3    H149186   3.058   5.966  16.212 -4.0829  0.2551  0.5785
 9257TIP3    H249187   3.079   5.816  16.204  0.6996  0.7726  0.5539
 9258TIP3   OH249188   5.578   3.441  10.454 -0.2189 -0.2935  0.2596
 9258TIP3    H149189   5.495   3.400  10.431  0.2934 -1.4220  0.3532
 9258TIP3    H249190   5.610   3.389  10.528  1.6689 -1.3914 -1.2161
 9259TIP3   OH249191   0.480   1.928   5.881  0.3817  0.2626 -0.2996
 9259TIP3    H149192   0.385   1.924   5.887  0.4267  0.1981  0.3810
 9259TIP3    H249193   0.511   1.851   5.928  0.8115  1.1437  0.9249
 9260TIP3   OH249194   2.202   6.301  15.358 -0.6593 -0.5891 -0.0901
 9260TIP3    H149195   2.295   6.292  15.381 -0.6956  0.7000  0.7044
 9260TIP3    H249196   2.189   6.243  15.284  0.7419 -0.9455 -0.0750
 9261TIP3   OH249197   6.490   6.518   6.430 -0.0491 -0.1131 -0.0381
 9261TIP3    H149198   6.429   6.532   6.358  0.3295  4.0152  0.1982
 9261TIP3    H249199   6.574   6.548   6.395  1.0675 -1.9624  0.9046
 9262TIP3   OH249200   0.715   2.573  16.985  0.5560 -0.2677  0.1445
 9262TIP3    H149201   0.652   2.502  16.974 -0.5164  0.6564  0.1395
 9262TIP3    H249202   0.687   2.640  16.923  0.3266  0.9805  1.5279
 9263TIP3   OH249203   2.317   3.849   4.894 -0.3032 -0.6684  0.4015
 9263TIP3    H149204   2.290   3.782   4.832  0.2278 -0.1057 -0.4597
 9263TIP3    H249205   2.362   3.801   4.963 -1.1357 -1.3299  0.5051
 9264TIP3   OH249206   1.596   3.336  12.405  0.5622 -0.4275  0.2169
 9264TIP3    H149207   1.514   3.344  12.357  0.3365 -0.9310  0.5118
 9264TIP3    H249208   1.653   3.285  12.346  0.9479  0.6178 -0.3352
 9265TIP3   OH249209   2.605   6.785   0.508  0.1676  0.3241 -0.1323
 9265TIP3    H149210   2.572   6.736   0.432  0.8335  0.4256 -0.4999
 9265TIP3    H249211   2.530   6.794   0.566 -0.3159  0.1120 -0.7172
 9266TIP3   OH249212   3.136   3.811  15.221 -0.5248  0.4354 -0.0443
 9266TIP3    H149213   3.159   3.896  15.257  0.3777  0.1314  0.1357
 9266TIP3    H249214   3.211   3.755  15.242 -0.6180 -0.1208 -1.1216
 9267TIP3   OH249215   1.927   1.559   4.142 -0.1882  0.0938  0.1185
 9267TIP3    H149216   1.870   1.619   4.094  2.3532 -0.7150 -4.3836
 9267TIP3    H249217   2.005   1.611   4.162  0.7209 -0.8401 -0.9426
 9268TIP3   OH249218   4.029   0.648  15.772  0.0732  0.7900 -0.1754
 9268TIP3    H149219   4.104   0.635  15.713  0.1499  2.0546 -0.3901
 9268TIP3    H249220   3.968   0.701  15.721 -1.5566 -1.2403 -0.4459
 9269TIP3   OH249221   0.252   0.815   3.506 -0.7621  0.6418  0.2355
 9269TIP3    H149222   0.325   0.866   3.541 -0.3800  1.7463 -1.9753
 9269TIP3    H249223   0.290   0.767   3.433 -2.0479  0.5356 -0.3844
 9270TIP3   OH249224   3.457   1.723  16.583 -0.1448  0.3467  0.0893
 9270TIP3    H149225   3.448   1.651  16.520  3.1807 -1.3237  1.2527
 9270TIP3    H249226   3.452   1.802  16.530 -0.8125 -0.8330 -1.7204
 9271TIP3   OH249227   3.672   1.645  11.804  0.1490 -0.4153 -0.4058
 9271TIP3    H149228   3.673   1.704  11.729 -0.1488 -0.6584 -0.5988
 9271TIP3    H249229   3.720   1.692  11.872 -0.5271  0.2688 -0.3938
 9272TIP3   OH249230   1.070   2.725  16.410 -0.6092 -0.9148  0.2594
 9272TIP3    H149231   1.014   2.649  16.427 -0.8539 -0.3979  1.9814
 9272TIP3    H249232   1.014   2.787  16.365 -0.6745 -1.3790 -0.3137
 9273TIP3   OH249233   3.308   0.937   0.297  0.5244  0.0461  0.5291
 9273TIP3    H149234   3.242   0.986   0.249  1.5160  0.0050 -0.9384
 9273TIP3    H249235   3.258   0.879   0.354 -0.6978  0.3009 -0.2375
 9274TIP3   OH249236   4.979   2.973   0.024  0.1605 -0.1252 -0.2915
 9274TIP3    H149237   5.063   3.017   0.038  1.5395 -2.4980 -0.6751
 9274TIP3    H249238   4.943   2.964   0.112  1.7998 -1.7746  0.2795
 9275TIP3   OH249239   6.144   2.445  15.553  0.2883 -0.8804  0.3813
 9275TIP3    H149240   6.077   2.472  15.491  1.5014 -0.4772 -0.7870
 9275TIP3    H249241   6.166   2.525  15.601 -0.3658 -1.1086  1.0863
 9276TIP3   OH249242   6.610   1.151   3.603  0.6669  0.3216  0.3067
 9276TIP3    H149243   6.532   1.180   3.651  1.4195  1.1121  1.1036
 9276TIP3    H249244   6.644   1.078   3.655 -0.6483 -1.4159 -1.1446
 9277TIP3   OH249245   3.002   5.807   5.225  0.0014  0.2681  0.3689
 9277TIP3    H149246   2.972   5.738   5.167 -0.3186  0.0182  0.8265
 9277TIP3    H249247   2.929   5.822   5.285 -0.4614  1.9395 -0.5543
 9278TIP3   OH249248   4.058   0.360   6.268 -0.3398 -0.2196 -0.4873
 9278TIP3    H149249   4.027   0.271   6.254  1.1835 -0.6678 -1.1349
 9278TIP3    H249250   4.141   0.350   6.313 -0.4670  0.9082  0.0280
 9279TIP3   OH249251   5.289   5.564   1.687 -0.0891 -0.0913 -0.1279
 9279TIP3    H149252   5.267   5.591   1.597 -2.0630  1.5222  0.7527
 9279TIP3    H249253   5.209   5.522   1.719  0.5076 -0.4063  0.9801
 9280TIP3   OH249254   1.562   5.562   4.272 -0.3953  0.0405 -0.1572
 9280TIP3    H149255   1.594   5.648   4.300 -0.8004  0.0935  0.1629
 9280TIP3    H249256   1.559   5.567   4.177  1.4219 -0.2870 -0.2656
 9281TIP3   OH249257   5.270   6.775   4.974  0.0264 -0.3588  0.1140
 9281TIP3    H149258   5.174   6.768   4.975  0.0120 -0.2132 -0.1440
 9281TIP3    H249259   5.288   6.858   4.930  0.2943 -1.0807 -1.2091
 9282TIP3   OH249260   5.492   5.421  13.513 -0.1319 -0.0820  0.0753
 9282TIP3    H149261   5.518   5.486  13.579 -0.8758  0.1884  0.1123
 9282TIP3    H249262   5.567   5.362  13.506 -0.2054 -0.3767  1.4833
 9283TIP3   OH249263   1.758   5.875  11.515  0.3501  0.0532  0.1147
 9283TIP3    H149264   1.707   5.843  11.589  0.2982 -0.8130 -0.2790
 9283TIP3    H249265   1.696   5.880  11.442  0.2361  1.5844  0.2799
 9284TIP3   OH249266   2.101   0.819   4.976 -1.0919  0.3584  0.7797
 9284TIP3    H149267   2.125   0.856   5.061 -0.5024  0.1488  0.7094
 9284TIP3    H249268   2.020   0.771   4.993 -0.2978 -0.7700  1.5281
 9285TIP3   OH249269   2.527   3.898  13.917  0.3153  0.7359 -0.2828
 9285TIP3    H149270   2.574   3.823  13.952 -0.4004 -0.0968 -1.0572
 9285TIP3    H249271   2.529   3.963  13.987  2.1803  0.5545 -0.1127
 9286TIP3   OH249272   3.940   1.797   5.157  0.2866 -0.5650  0.9517
 9286TIP3    H149273   3.991   1.873   5.183  0.5676 -0.9879  1.6696
 9286TIP3    H249274   4.004   1.726   5.149  0.1783 -0.5333 -0.6445
 9287TIP3   OH249275   1.081   2.304  16.901  0.3815  0.0353 -0.1235
 9287TIP3    H149276   1.169   2.267  16.897  0.7648  0.9918 -1.1800
 9287TIP3    H249277   1.024   2.233  16.872  1.0412  0.0240 -1.5011
 9288TIP3   OH249278   3.950   0.176  12.018 -0.1325 -0.2971  0.0285
 9288TIP3    H149279   3.986   0.246  11.964 -1.2513 -0.1357 -0.5248
 9288TIP3    H249280   3.855   0.186  12.012 -0.2961 -0.7164  1.4487
 9289TIP3   OH249281   5.941   1.516  17.058 -0.0802 -0.1498  0.6306
 9289TIP3    H149282   5.847   1.519  17.079 -0.4274 -0.3014 -0.8100
 9289TIP3    H249283   5.984   1.522  17.143 -1.3871  0.5513  1.2820
 9290TIP3   OH249284   4.656   3.289  12.058 -0.1232 -0.4568  0.1905
 9290TIP3    H149285   4.652   3.336  11.975 -0.4728  0.0410  0.4821
 9290TIP3    H249286   4.717   3.217  12.042  0.4793  0.1371 -0.2406
 9291TIP3   OH249287   2.843   4.941  14.714  0.5694 -0.0867 -0.2058
 9291TIP3    H149288   2.830   4.848  14.695  2.4692 -0.1438 -1.5479
 9291TIP3    H249289   2.885   4.975  14.635  0.4759  1.7896  0.5152
 9292TIP3   OH249290   0.830   4.116  11.933  0.6876  0.3270 -0.3311
 9292TIP3    H149291   0.809   4.111  12.027  1.5566 -0.2602 -0.1598
 9292TIP3    H249292   0.894   4.047  11.919 -0.5294 -0.5922 -1.6788
 9293TIP3   OH249293   4.103   5.080  14.706 -0.0440  0.3344 -0.1300
 9293TIP3    H149294   4.026   5.026  14.684 -1.9239  2.3960  1.0612
 9293TIP3    H249295   4.086   5.111  14.795  1.6829  1.7063 -0.2343
 9294TIP3   OH249296   1.866   2.823  13.977  0.0363  0.1547  0.0766
 9294TIP3    H149297   1.810   2.900  13.982 -1.5171 -0.7858 -1.5026
 9294TIP3    H249298   1.913   2.834  13.894 -1.4721 -1.3298 -1.0463
 9295TIP3   OH249299   3.556   4.290   1.512  0.0335  0.4202 -0.1346
 9295TIP3    H149300   3.638   4.252   1.481 -0.0904 -0.5706  0.6678
 9295TIP3    H249301   3.548   4.373   1.466  1.4767  0.5253 -0.2395
 9296TIP3   OH249302   6.258   4.747   1.582 -0.3837 -0.1435  0.0104
 9296TIP3    H149303   6.341   4.717   1.618 -0.8293 -2.7714 -0.9467
 9296TIP3    H249304   6.274   4.838   1.558  2.0402 -0.4182  0.3599
 9297TIP3   OH249305   0.210   5.297  11.389  0.0789 -0.3075  0.3626
 9297TIP3    H149306   0.176   5.307  11.300  0.8249  1.6461  0.2485
 9297TIP3    H249307   0.134   5.311  11.446 -0.3147 -1.1484  0.0586
 9298TIP3   OH249308   5.660   5.856   1.947  0.0547  0.2272 -0.1574
 9298TIP3    H149309   5.710   5.884   1.871  1.6777  1.7520  1.3846
 9298TIP3    H249310   5.571   5.888   1.931  0.6075  1.4169 -0.9590
 9299TIP3   OH249311   2.813   0.218  14.201  0.0037 -0.2844 -0.0507
 9299TIP3    H149312   2.844   0.129  14.214  1.3339 -0.0953 -1.5935
 9299TIP3    H249313   2.765   0.215  14.118 -0.8629  0.2240  0.4178
 9300TIP3   OH249314   4.692   5.953   2.094 -0.0070 -0.7804  0.1736
 9300TIP3    H149315   4.692   5.933   2.188  3.6719  0.8616  0.6844
 9300TIP3    H249316   4.689   6.049   2.091 -2.3372 -0.8289 -1.5733
 9301TIP3   OH249317   5.405   6.600  14.275 -0.2763 -0.8738 -0.0912
 9301TIP3    H149318   5.311   6.582  14.280 -0.5356  0.2721 -0.6221
 9301TIP3    H249319   5.437   6.542  14.206 -0.3765 -2.0284  0.7949
 9302TIP3   OH249320   6.331   1.264   5.764  0.4696  0.1311 -0.0515
 9302TIP3    H149321   6.409   1.282   5.712 -0.1990  1.1239 -0.7473
 9302TIP3    H249322   6.360   1.276   5.855  1.0091  0.9957 -0.3246
 9303TIP3   OH249323   1.911   2.454  16.137  0.2888 -0.3610  0.1894
 9303TIP3    H149324   1.893   2.427  16.227  1.2959 -0.0509  0.4987
 9303TIP3    H249325   2.003   2.432  16.123  0.3249  0.2024 -0.5388
 9304TIP3   OH249326   3.710   2.023  15.192 -0.6214  0.1554  0.3329
 9304TIP3    H149327   3.670   1.960  15.133  1.0871  0.8288 -1.6716
 9304TIP3    H249328   3.677   1.999  15.279  0.1474 -3.6474 -0.2611
 9305TIP3   OH249329   2.910   6.661  17.089  0.0518 -0.1825 -0.4043
 9305TIP3    H149330   2.869   6.695  17.009  0.4928  0.0181 -0.5498
 9305TIP3    H249331   2.917   6.738  17.146 -1.7334 -0.6248  0.4775
 9306TIP3   OH249332   1.475   4.257   1.142 -0.0150  0.1179 -0.5544
 9306TIP3    H149333   1.508   4.347   1.143 -0.6419  0.3478  1.0011
 9306TIP3    H249334   1.477   4.229   1.233 -0.5952 -1.1722 -0.9108
 9307TIP3   OH249335   5.148   3.959   2.766  0.2403  0.0173 -0.0407
 9307TIP3    H149336   5.126   3.889   2.704 -0.1418 -0.0768  0.1974
 9307TIP3    H249337   5.072   3.964   2.824 -0.2413  1.3919 -0.7401
 9308TIP3   OH249338   1.031   4.766   3.860  0.2182 -0.2503  0.2209
 9308TIP3    H149339   0.963   4.699   3.870  3.0041 -3.2876  0.4272
 9308TIP3    H249340   1.010   4.830   3.928 -2.8315 -0.5941 -0.2310
 9309TIP3   OH249341   0.504   4.563  14.743 -0.6511  0.0323 -0.4158
 9309TIP3    H149342   0.470   4.648  14.772 -0.6712 -0.5502  1.3716
 9309TIP3    H249343   0.472   4.501  14.807  0.7117 -1.0953 -0.7763
 9310TIP3   OH249344   4.381   6.119  14.983 -0.5115 -0.3014 -0.1217
 9310TIP3    H149345   4.302   6.102  15.034  0.1189 -2.5709  0.2427
 9310TIP3    H249346   4.391   6.040  14.928  1.4297 -0.0335 -0.2132
 9311TIP3   OH249347   2.159   5.460   5.312 -0.1311  0.0232  0.0470
 9311TIP3    H149348   2.160   5.541   5.362  1.6612 -1.1918  2.1929
 9311TIP3    H249349   2.097   5.403   5.358 -1.3881  0.1178 -1.4460
 9312TIP3   OH249350   3.996   3.438   4.069 -0.0888  0.1462 -0.6671
 9312TIP3    H149351   3.945   3.392   4.136  0.3031 -0.8513 -1.0315
 9312TIP3    H249352   3.970   3.530   4.078 -1.2680 -0.2128 -0.2531
 9313TIP3   OH249353   1.434   1.576   3.887 -0.6155  0.7480 -0.2024
 9313TIP3    H149354   1.416   1.500   3.833 -0.6007  0.6501 -0.0685
 9313TIP3    H249355   1.462   1.643   3.825 -0.4356  0.5843 -0.2974
 9314TIP3   OH249356   0.077   5.947   5.984  0.4129 -0.1331  0.9814
 9314TIP3    H149357   0.146   6.006   5.955  1.0655 -1.0460  0.6135
 9314TIP3    H249358   0.003   5.966   5.927  1.2203 -0.9229 -0.3710
 9315TIP3   OH249359   0.177   0.680  12.940  0.1677 -0.2485  0.1178
 9315TIP3    H149360   0.154   0.596  12.980 -0.2640  0.5828  1.6556
 9315TIP3    H249361   0.095   0.729  12.938  0.8444  0.9882  1.3620
 9316TIP3   OH249362   2.787   6.409  16.870 -0.3765 -0.0040  0.2134
 9316TIP3    H149363   2.850   6.375  16.933  0.0938  0.5114  0.0307
 9316TIP3    H249364   2.762   6.333  16.818  0.4408 -0.1396 -0.0045
 9317TIP3   OH249365   0.526   1.190  15.342 -0.0843 -0.2866  0.6632
 9317TIP3    H149366   0.516   1.170  15.435 -1.8471 -2.0758  0.1700
 9317TIP3    H249367   0.523   1.104  15.298 -0.5718  0.5832 -1.1237
 9318TIP3   OH249368   5.217   0.893   2.129 -0.0246  0.6396 -0.1105
 9318TIP3    H149369   5.210   0.968   2.071 -0.7993 -0.5911 -1.6990
 9318TIP3    H249370   5.265   0.827   2.078  1.9967  0.5196  1.7851
 9319TIP3   OH249371   4.114   6.032   3.377  0.4149 -0.1268  0.1168
 9319TIP3    H149372   4.124   5.938   3.391  0.3724  0.0382  1.4540
 9319TIP3    H249373   4.031   6.054   3.421  0.1370  0.4435 -0.6732
 9320TIP3   OH249374   2.871   5.646   1.261 -0.0161  0.2133  0.0083
 9320TIP3    H149375   2.955   5.656   1.217  0.4747 -0.2782  0.8203
 9320TIP3    H249376   2.870   5.555   1.291 -1.2311 -0.0631 -0.7911
 9321TIP3   OH249377   1.955   6.021   0.976  1.4617  0.7154 -0.1861
 9321TIP3    H149378   1.912   6.064   1.050  2.3076  0.3895  0.5081
 9321TIP3    H249379   1.933   6.076   0.901 -0.7931  0.1314 -0.0048
 9322TIP3   OH249380   3.583   3.363   0.327 -0.4424 -0.5162 -0.1689
 9322TIP3    H149381   3.636   3.337   0.403 -0.8888  0.1353  0.3855
 9322TIP3    H249382   3.647   3.386   0.260 -0.0174  0.1055  0.4361
 9323TIP3   OH249383   0.329   1.041  12.167 -0.2168 -0.2310 -0.0975
 9323TIP3    H149384   0.295   1.064  12.253 -1.2592 -1.3960 -0.1758
 9323TIP3    H249385   0.401   0.980  12.185  0.4552  0.5553 -0.0253
 9324TIP3   OH249386   4.803   1.075   3.219 -0.1914 -0.6599  0.6954
 9324TIP3    H149387   4.868   1.084   3.289 -0.3468  1.0869  0.6434
 9324TIP3    H249388   4.758   1.159   3.217  0.2891 -0.3946 -1.9926
 9325TIP3   OH249389   3.223   4.472  16.595 -0.0400  0.3832 -0.3991
 9325TIP3    H149390   3.260   4.539  16.651  0.3067  1.9138 -2.3402
 9325TIP3    H249391   3.297   4.415  16.573 -0.0181  0.2317  0.0554
 9326TIP3   OH249392   5.326   4.004  15.163  0.4616  0.0504  0.0617
 9326TIP3    H149393   5.411   3.978  15.199  0.1447 -1.5439 -0.2656
 9326TIP3    H249394   5.334   3.986  15.069  0.0080  0.6113 -0.0874
 9327TIP3   OH249395   1.990   4.063  16.651 -0.1033 -0.5546 -0.1722
 9327TIP3    H149396   1.901   4.046  16.683  0.7603 -1.4216  1.9636
 9327TIP3    H249397   2.012   3.984  16.600 -0.2181 -0.7706  0.1092
 9328TIP3   OH249398   1.835   0.392   4.534  0.0814 -0.2323  0.1148
 9328TIP3    H149399   1.878   0.401   4.619  0.5535 -3.2766  0.2992
 9328TIP3    H249400   1.765   0.328   4.549 -0.2188 -0.3665 -1.6544
 9329TIP3   OH249401   2.809   1.715  12.197  0.1617  0.3694 -0.0004
 9329TIP3    H149402   2.876   1.756  12.251 -0.3124  0.9513  0.1648
 9329TIP3    H249403   2.850   1.701  12.112  0.8627 -0.3967  0.4552
 9330TIP3   OH249404   2.621   5.295   4.987  0.1038 -0.3377  0.2582
 9330TIP3    H149405   2.635   5.341   5.070 -0.6464 -2.6971  1.8197
 9330TIP3    H249406   2.542   5.243   5.002 -1.1032  0.4683 -2.6074
 9331TIP3   OH249407   2.235   1.252   1.041  0.4525 -0.0684 -0.1771
 9331TIP3    H149408   2.231   1.165   1.001  2.4322 -1.0307  1.5756
 9331TIP3    H249409   2.307   1.248   1.103  0.2288  2.6724  0.4179
 9332TIP3   OH249410   1.914   6.417  12.461 -0.4288  0.1678 -0.2114
 9332TIP3    H149411   1.843   6.460  12.414 -1.5148 -0.6343  0.6504
 9332TIP3    H249412   1.911   6.326  12.431  0.1898  0.1138 -0.1226
 9333TIP3   OH249413   3.623   0.681  17.030 -0.2567 -0.0575  0.0443
 9333TIP3    H149414   3.546   0.716  17.076 -1.5764 -1.9331 -0.5782
 9333TIP3    H249415   3.623   0.725  16.946 -0.3317  0.3612  0.2630
 9334TIP3   OH249416   3.422   1.655   0.319  0.5068  0.1784  0.6008
 9334TIP3    H149417   3.445   1.562   0.322 -0.3352 -0.0118  1.8114
 9334TIP3    H249418   3.366   1.669   0.396  0.7219  1.7156  0.5178
 9335TIP3   OH249419   2.197   0.231  14.880 -0.0732  0.0270 -0.1254
 9335TIP3    H149420   2.116   0.186  14.856 -1.6351  2.1115  0.9255
 9335TIP3    H249421   2.181   0.262  14.969  1.0636  2.2533 -0.6432
 9336TIP3   OH249422   6.350   3.339   3.494  0.3384  0.1435 -0.1078
 9336TIP3    H149423   6.425   3.280   3.499 -0.7825 -1.3686 -0.4381
 9336TIP3    H249424   6.307   3.331   3.579 -1.1087 -1.3775 -0.9076
 9337TIP3   OH249425   2.466   4.283   4.354 -0.0585  0.6266 -0.3622
 9337TIP3    H149426   2.422   4.322   4.278  2.0972  3.4602 -0.3301
 9337TIP3    H249427   2.496   4.197   4.324 -0.9269  0.8801 -2.0589
 9338TIP3   OH249428   6.126   5.478   3.190  0.1493  0.1589 -0.8586
 9338TIP3    H149429   6.168   5.422   3.126  2.1787  2.7546 -2.0103
 9338TIP3    H249430   6.166   5.564   3.176 -3.2827  2.1231  0.2372
 9339TIP3   OH249431   6.385   6.608   4.688  0.1085  0.0233 -0.7364
 9339TIP3    H149432   6.471   6.576   4.659  0.3708 -0.9506  0.9705
 9339TIP3    H249433   6.331   6.530   4.696 -0.3894  0.4253 -0.0795
 9340TIP3   OH249434   5.594   2.284  16.045  0.4149 -0.2763  0.3997
 9340TIP3    H149435   5.538   2.325  16.111  0.7170  0.2394  0.3386
 9340TIP3    H249436   5.665   2.346  16.031  0.4185 -0.4308 -0.3232
 9341TIP3   OH249437   0.090   0.083  11.926 -0.0762 -0.0801 -0.6296
 9341TIP3    H149438  -0.003   0.107  11.927  0.0208  0.4052  1.1752
 9341TIP3    H249439   0.128   0.137  11.857 -1.0381  0.1689 -0.9818
 9342TIP3   OH249440   0.964   2.760   3.075  0.2462  0.2656 -0.1805
 9342TIP3    H149441   1.056   2.783   3.087 -0.2592  2.1489  0.3619
 9342TIP3    H249442   0.918   2.809   3.143 -1.5503  2.4070 -2.7278
 9343TIP3   OH249443   3.221   4.923  14.091 -0.2642 -0.8752  0.2572
 9343TIP3    H149444   3.301   4.881  14.122  0.3762  0.3192  0.3017
 9343TIP3    H249445   3.215   5.004  14.142 -0.9688 -0.4795 -0.4229
 9344TIP3   OH249446   6.692   4.386   3.837  0.0132  0.5567 -0.9056
 9344TIP3    H149447   6.725   4.300   3.863  0.6995  0.8442 -0.8170
 9344TIP3    H249448   6.597   4.376   3.840  0.0683  0.2284  0.5747
 9345TIP3   OH249449   4.633   4.681  15.864 -0.4922  0.5328 -0.6016
 9345TIP3    H149450   4.612   4.774  15.876 -2.4051 -0.1135  1.7496
 9345TIP3    H249451   4.557   4.645  15.820 -0.2251 -0.1470 -0.5089
 9346TIP3   OH249452   4.143   6.512   2.020 -0.3645  0.1484 -0.0507
 9346TIP3    H149453   4.138   6.417   2.005 -0.1094  0.1467 -0.1399
 9346TIP3    H249454   4.085   6.550   1.954 -2.0981 -0.0468  1.2985
 9347TIP3   OH249455   3.475   4.144  15.591 -0.1580  0.2495 -0.4227
 9347TIP3    H149456   3.380   4.132  15.603 -0.1716  0.7631 -0.0066
 9347TIP3    H249457   3.482   4.222  15.536 -0.0144 -0.6350 -1.7049
 9348TIP3   OH249458   6.548   5.468   0.837  0.2875  0.1000 -0.1040
 9348TIP3    H149459   6.545   5.496   0.928 -0.4396  1.3768 -0.5052
 9348TIP3    H249460   6.463   5.493   0.800  0.8689  0.3724 -1.3412
 9349TIP3   OH249461   3.794   1.445   3.708 -0.7723  0.4295  0.0061
 9349TIP3    H149462   3.869   1.432   3.650  1.2565 -1.3926  2.7964
 9349TIP3    H249463   3.765   1.534   3.690  0.3430  0.3145 -3.0015
 9350TIP3   OH249464   5.629   1.183   4.844  0.3190  0.1470 -0.0727
 9350TIP3    H149465   5.603   1.161   4.933 -0.0370  1.9872  0.3029
 9350TIP3    H249466   5.672   1.268   4.851  0.1812  0.3857 -1.6773
 9351TIP3   OH249467   0.441   0.374  13.282  0.1817 -0.0846  0.0259
 9351TIP3    H149468   0.461   0.374  13.188 -2.0656 -0.1203 -0.5120
 9351TIP3    H249469   0.411   0.285  13.300 -1.5584  0.4863  0.2047
 9352TIP3   OH249470   3.658   6.554   0.504 -0.1038  0.1572  0.2135
 9352TIP3    H149471   3.664   6.459   0.493 -0.1074  0.2826 -1.0421
 9352TIP3    H249472   3.576   6.568   0.551  0.1025 -0.4747  0.7831
 9353TIP3   OH249473   2.437   0.057   6.255  0.8557 -0.4311  0.3191
 9353TIP3    H149474   2.430  -0.007   6.325  0.5305  0.4924  1.1630
 9353TIP3    H249475   2.485   0.013   6.186  0.7431 -1.5300  0.9271
 9354TIP3   OH249476   0.426   3.454   5.082 -0.2225 -0.3219 -0.1987
 9354TIP3    H149477   0.489   3.515   5.045 -0.4957  0.6023  0.8117
 9354TIP3    H249478   0.409   3.392   5.012 -2.2069  2.4351 -2.3720
 9355TIP3   OH249479   3.827   5.821  10.670  0.1408 -0.0642  0.2308
 9355TIP3    H149480   3.873   5.901  10.642 -0.2533  0.6813  1.6028
 9355TIP3    H249481   3.737   5.833  10.641  0.5612 -1.1193 -1.6600
 9356TIP3   OH249482   3.288   5.298   0.635 -0.0546  0.4767 -0.0270
 9356TIP3    H149483   3.277   5.203   0.639  0.6029  0.4161  1.2521
 9356TIP3    H249484   3.358   5.311   0.571 -0.6469  0.1552 -0.7446
 9357TIP3   OH249485   5.837   4.955   4.733  0.0584  0.2699  0.0324
 9357TIP3    H149486   5.918   4.937   4.685 -0.8529 -1.8266 -0.8276
 9357TIP3    H249487   5.863   4.957   4.825  1.3577  1.4665 -0.3198
 9358TIP3   OH249488   5.673   1.099   1.320 -0.5055  0.3776 -0.3492
 9358TIP3    H149489   5.615   1.032   1.357 -0.2949 -1.2302 -2.7094
 9358TIP3    H249490   5.614   1.161   1.277 -0.6865  1.6954  1.6536
 9359TIP3   OH249491   1.861   5.028  14.947  0.0457 -0.6283  0.8671
 9359TIP3    H149492   1.946   5.048  14.987 -0.2494 -1.5478  2.0095
 9359TIP3    H249493   1.832   4.948  14.991 -0.1915 -1.8645 -1.4001
 9360TIP3   OH249494   1.602   0.972  13.154  0.4210 -0.0064 -0.3576
 9360TIP3    H149495   1.650   1.048  13.120 -0.7022  0.8251 -0.1659
 9360TIP3    H249496   1.651   0.946  13.232  0.5349  0.8621 -0.1250
 9361TIP3   OH249497   0.837   6.311  14.660  0.5524 -0.1116 -0.8712
 9361TIP3    H149498   0.828   6.368  14.737  0.3916 -0.8766 -0.3132
 9361TIP3    H249499   0.925   6.275  14.667 -0.0960 -1.6121 -0.0228
 9362TIP3   OH249500   0.242   5.485   3.927 -0.1974  0.5114 -0.7124
 9362TIP3    H149501   0.307   5.519   3.989 -2.4334  0.6386  1.7309
 9362TIP3    H249502   0.258   5.391   3.925  0.9567  0.6937 -1.3165
 9363TIP3   OH249503   4.316   2.348  15.764 -0.3186 -0.2597  0.1296
 9363TIP3    H149504   4.336   2.345  15.671 -3.3155  1.9733 -0.7557
 9363TIP3    H249505   4.386   2.401  15.802 -1.9351  3.9351 -2.0580
 9364TIP3   OH249506   0.658   2.130   5.615 -0.3708 -0.5821  0.0339
 9364TIP3    H149507   0.750   2.104   5.618  0.5876  2.1175 -1.8096
 9364TIP3    H249508   0.624   2.089   5.535 -0.2565 -0.1790 -0.2241
 9365TIP3   OH249509   1.316   5.850  14.406 -0.3210  0.4845 -0.1614
 9365TIP3    H149510   1.409   5.831  14.414 -0.1865  0.6639 -1.2125
 9365TIP3    H249511   1.278   5.771  14.369 -0.7638  0.0514  1.1493
 9366TIP3   OH249512   0.973   4.984   5.034  0.2625  0.1407 -0.9429
 9366TIP3    H149513   1.008   4.925   4.968 -0.8231  0.1181 -1.5154
 9366TIP3    H249514   0.978   4.934   5.116 -1.4650 -1.1020 -1.5597
 9367TIP3   OH249515   3.738   4.873   3.754  0.4788  0.2679  0.0385
 9367TIP3    H149516   3.713   4.835   3.839 -1.6431  0.9030 -0.2485
 9367TIP3    H249517   3.689   4.822   3.690  1.8834 -0.0466 -0.8367
 9368TIP3   OH249518   1.435   3.209  16.821 -0.0248 -0.8688  0.1299
 9368TIP3    H149519   1.469   3.285  16.868  0.3909 -1.0356  0.1073
 9368TIP3    H249520   1.514   3.162  16.792 -0.2775 -0.8430 -0.6097
 9369TIP3   OH249521   3.682   6.624   0.223  0.4943 -0.3591  0.0439
 9369TIP3    H149522   3.634   6.629   0.140  0.0525  1.7763  0.3507
 9369TIP3    H249523   3.620   6.585   0.284  0.7053 -1.6353 -0.5175
 9370TIP3   OH249524   1.588   6.763  11.437 -0.1643  0.1519  0.1960
 9370TIP3    H149525   1.673   6.756  11.394  0.0154  2.4652  0.0572
 9370TIP3    H249526   1.609   6.781  11.529 -0.4963  0.0648  0.2910
 9371TIP3   OH249527   4.372   0.051  14.155 -0.4904 -0.1637  0.2150
 9371TIP3    H149528   4.441  -0.015  14.165 -0.0975  0.0144 -1.1189
 9371TIP3    H249529   4.394   0.096  14.073 -1.0321  1.2913  0.8431
 9372TIP3   OH249530   0.351   1.985  14.786 -0.1849 -0.0535 -0.1543
 9372TIP3    H149531   0.370   1.902  14.741  2.8483  0.2768  0.3298
 9372TIP3    H249532   0.374   2.052  14.722  1.0441  0.4024  0.7431
 9373TIP3   OH249533   2.251   6.370   0.044  0.3606  0.3536  0.1919
 9373TIP3    H149534   2.331   6.321   0.023  1.3422  1.6292  0.8072
 9373TIP3    H249535   2.276   6.426   0.117 -1.2242  0.5085  0.6486
 9374TIP3   OH249536   4.432   4.414   1.584  0.1091 -0.1392  0.1507
 9374TIP3    H149537   4.458   4.499   1.619  1.0767  0.8479 -2.6649
 9374TIP3    H249538   4.382   4.373   1.654  3.1891  0.8943  3.2584
 9375TIP3   OH249539   2.210   4.360   0.020  0.3925  0.6228  0.4206
 9375TIP3    H149540   2.190   4.362  -0.074  0.4562 -0.6454  0.3687
 9375TIP3    H249541   2.271   4.287   0.030  1.0274  1.2620  1.3390
 9376TIP3   OH249542   1.358   2.702   3.703 -0.2502  0.0747 -0.0583
 9376TIP3    H149543   1.388   2.752   3.778 -0.8536  0.6988 -0.2175
 9376TIP3    H249544   1.379   2.611   3.724  1.5150  0.4508 -0.0703
 9377TIP3   OH249545   6.663   0.189  11.817 -0.1405 -0.7092 -0.2649
 9377TIP3    H149546   6.587   0.150  11.775 -1.2421  0.5742  0.4154
 9377TIP3    H249547   6.710   0.234  11.746 -0.8764 -0.2396 -0.4719
 9378TIP3   OH249548   0.056   0.683  16.903  0.4461 -0.1285 -0.2270
 9378TIP3    H149549   0.060   0.775  16.926 -0.5467  0.2103 -1.3294
 9378TIP3    H249550  -0.029   0.672  16.860  0.7567 -1.4484 -0.5664
 9379TIP3   OH249551   3.115   1.713   2.080  0.3577  0.5248  0.2161
 9379TIP3    H149552   3.196   1.662   2.080  0.9295  1.3984  0.8391
 9379TIP3    H249553   3.130   1.780   2.147 -0.6208  1.1093 -0.1400
 9380TIP3   OH249554   4.997   5.449  11.398 -0.2252 -0.1487  0.0664
 9380TIP3    H149555   4.996   5.411  11.486  0.7115  0.2418  0.2597
 9380TIP3    H249556   5.070   5.511  11.400 -1.5923  1.5538 -0.2910
 9381TIP3   OH249557   3.204   0.084  13.848  0.2221  0.3660 -0.2010
 9381TIP3    H149558   3.240   0.164  13.887 -3.4880  2.7434 -1.0793
 9381TIP3    H249559   3.203   0.101  13.754  1.1693 -1.6157 -0.6082
 9382TIP3   OH249560   1.325   2.678  13.111  0.0980  0.3785 -0.3400
 9382TIP3    H149561   1.369   2.737  13.050 -0.2802  1.9163  0.8030
 9382TIP3    H249562   1.288   2.736  13.177 -0.2044 -1.1719  0.9068
 9383TIP3   OH249563   6.254   1.128  15.123  0.8273  0.6123 -0.1684
 9383TIP3    H149564   6.164   1.099  15.116  0.8956  0.0020  1.2004
 9383TIP3    H249565   6.274   1.166  15.037 -0.6319  0.5244 -0.5703
 9384TIP3   OH249566   1.299   4.808  14.374  0.1052  0.3385  0.0201
 9384TIP3    H149567   1.316   4.830  14.465  1.7619  1.3430 -0.4851
 9384TIP3    H249568   1.235   4.873  14.345 -0.0735  0.3074  0.3438
 9385TIP3   OH249569   3.689   2.877  15.876 -0.1255 -0.8947  0.1687
 9385TIP3    H149570   3.705   2.927  15.796  1.4647  0.0247  0.9909
 9385TIP3    H249571   3.651   2.941  15.936  2.3947 -0.4168  1.3984
 9386TIP3   OH249572   1.905   5.678  12.881  0.0493  0.2340 -0.1237
 9386TIP3    H149573   1.908   5.636  12.966 -0.3419 -0.7327 -0.5723
 9386TIP3    H249574   1.813   5.697  12.866 -0.1453 -1.2532 -1.0854
 9387TIP3   OH249575   0.077   3.752   1.581  0.3198 -0.4841  0.4657
 9387TIP3    H149576   0.079   3.844   1.609 -1.0252 -0.3505  0.1722
 9387TIP3    H249577  -0.004   3.718   1.618  0.8318 -1.5745  0.6038
 9388TIP3   OH249578   5.889   6.508  15.951  0.3507 -0.3909  0.2368
 9388TIP3    H149579   5.887   6.431  16.007 -0.3779 -1.3453 -1.0385
 9388TIP3    H249580   5.807   6.554  15.971 -0.6529 -1.5250 -1.0501
 9389TIP3   OH249581   5.474   6.702   4.795  0.3882 -0.0833 -0.1813
 9389TIP3    H149582   5.394   6.692   4.846 -1.4326  0.8704 -2.6433
 9389TIP3    H249583   5.485   6.797   4.787  1.8972 -0.1959  0.2523
 9390TIP3   OH249584   6.268   4.254  15.148 -0.7820 -0.3294 -0.0185
 9390TIP3    H149585   6.206   4.249  15.220 -0.5353  0.9590  0.3192
 9390TIP3    H249586   6.334   4.189  15.168 -0.3216  0.5139  1.3350
 9391TIP3   OH249587   6.512   4.481   0.081 -0.0035 -0.2048 -0.7826
 9391TIP3    H149588   6.561   4.562   0.064  1.1636 -0.3579  1.4432
 9391TIP3    H249589   6.565   4.412   0.042 -0.4543 -0.0194 -1.7484
 9392TIP3   OH249590   3.771   3.735  14.475  0.3978  0.3552  0.5496
 9392TIP3    H149591   3.813   3.718  14.391 -0.6231 -1.0882  0.2973
 9392TIP3    H249592   3.730   3.821  14.465 -1.0914 -0.4841 -1.0355
 9393TIP3   OH249593   6.118   1.642  15.822 -0.3319  0.0056  0.4623
 9393TIP3    H149594   6.206   1.681  15.818 -0.3956  0.0594 -0.5496
 9393TIP3    H249595   6.086   1.646  15.732 -0.6111 -1.7575  0.4533
 9394TIP3   OH249596   3.469   4.576  14.588 -0.3820  0.0200  0.2364
 9394TIP3    H149597   3.412   4.559  14.513  1.9252 -0.5183 -1.5260
 9394TIP3    H249598   3.508   4.662  14.569  1.1143 -0.6417  0.1646
 9395TIP3   OH249599   1.501   4.027  15.914  0.0316 -0.2065  0.6334
 9395TIP3    H149600   1.442   3.958  15.883 -1.1544  1.5147 -1.2858
 9395TIP3    H249601   1.571   4.030  15.848  0.0766  0.3599  0.6960
 9396TIP3   OH249602   3.339   0.793  14.208  0.1359  0.8554 -0.1668
 9396TIP3    H149603   3.385   0.803  14.124 -0.5785  3.3581 -0.3362
 9396TIP3    H249604   3.272   0.861  14.207 -1.5808 -0.6960  1.4034
 9397TIP3   OH249605   6.517   4.941  11.336 -0.1119 -0.0151  0.3261
 9397TIP3    H149606   6.489   4.874  11.273  1.5763  0.6040 -1.1769
 9397TIP3    H249607   6.436   4.970  11.378 -1.2533 -0.8188 -1.2106
 9398TIP3   OH249608   3.461   6.049  13.006  0.1859 -0.0659 -0.1336
 9398TIP3    H149609   3.526   6.064  13.075  1.8414 -0.5083 -1.5177
 9398TIP3    H249610   3.513   6.034  12.927 -1.6241 -0.5070 -1.3081
 9399TIP3   OH249611   2.688   5.962   1.813 -0.0401  0.0297  0.6392
 9399TIP3    H149612   2.661   6.053   1.820 -0.8209 -0.1456  0.0573
 9399TIP3    H249613   2.662   5.936   1.725 -0.2572 -0.8856  0.9546
 9400TIP3   OH249614   0.235   2.144  11.129  0.1187  0.5361 -0.0698
 9400TIP3    H149615   0.305   2.098  11.082  1.1824 -0.7920  2.5800
 9400TIP3    H249616   0.154   2.110  11.091  0.8945 -2.1292  0.4562
 9401TIP3   OH249617   5.156   2.259   6.256  0.5137  0.5032 -0.3115
 9401TIP3    H149618   5.146   2.347   6.293  0.2623 -0.3628  1.7978
 9401TIP3    H249619   5.126   2.200   6.325 -0.6972 -1.2160 -2.1973
 9402TIP3   OH249620   2.198   2.346   4.155  0.4103 -0.1054  0.5576
 9402TIP3    H149621   2.131   2.291   4.195  0.3648 -0.8505 -0.4923
 9402TIP3    H249622   2.258   2.285   4.113  0.6773  0.6127 -0.1536
 9403TIP3   OH249623   5.752   1.665  14.205  0.1172 -0.4458 -0.2344
 9403TIP3    H149624   5.843   1.671  14.174  0.1340 -1.5434 -0.4425
 9403TIP3    H249625   5.702   1.712  14.139  0.3237 -1.5602 -1.2412
 9404TIP3   OH249626   1.748   5.977   5.254  0.2140  0.3866  0.2632
 9404TIP3    H149627   1.662   5.994   5.215  0.3963  1.6287  0.3855
 9404TIP3    H249628   1.807   5.971   5.180  0.3927  1.7704  0.2768
 9405TIP3   OH249629   1.798   2.559   3.866 -0.5454  0.0545  0.1568
 9405TIP3    H149630   1.878   2.533   3.912 -0.0330  0.0828 -0.6994
 9405TIP3    H249631   1.765   2.633   3.916  0.7075  0.9155 -0.2318
 9406TIP3   OH249632   3.460   5.888  12.490 -0.1837  0.5734  0.3446
 9406TIP3    H149633   3.416   5.970  12.466 -0.7288  0.7531  1.8835
 9406TIP3    H249634   3.543   5.916  12.530 -0.8910  0.4582  1.9587
 9407TIP3   OH249635   5.671   4.707   3.875  0.0062 -0.3796  0.3322
 9407TIP3    H149636   5.650   4.776   3.811 -3.0108 -1.3086  0.1653
 9407TIP3    H249637   5.664   4.750   3.960 -0.0721 -0.0939  0.1827
 9408TIP3   OH249638   1.651   1.732  12.110  0.1330  0.4551 -0.1504
 9408TIP3    H149639   1.589   1.794  12.149  1.1439  1.4855 -0.1335
 9408TIP3    H249640   1.716   1.718  12.178  0.1382 -0.3097 -0.3106
 9409TIP3   OH249641   2.027   6.661   2.201 -0.1967 -0.4287  0.2547
 9409TIP3    H149642   2.021   6.675   2.296  1.0450 -1.0163  0.4341
 9409TIP3    H249643   2.008   6.568   2.189  0.2995 -0.5035  0.0081
 9410TIP3   OH249644   4.806   2.161   3.490 -0.0712  0.5921 -0.5871
 9410TIP3    H149645   4.846   2.247   3.504 -2.7882  1.9789 -0.5522
 9410TIP3    H249646   4.779   2.133   3.578 -0.9549  0.6661 -0.8257
 9411TIP3   OH249647   2.644   4.512  14.186  0.0582  0.1701 -0.0281
 9411TIP3    H149648   2.560   4.478  14.156  0.5520  0.6904 -2.1777
 9411TIP3    H249649   2.699   4.435  14.197 -0.2940 -0.0725  0.0508
 9412TIP3   OH249650   3.403   6.724   0.323  0.3764  0.1589  0.2430
 9412TIP3    H149651   3.357   6.767   0.251  1.5550  0.6587 -0.2254
 9412TIP3    H249652   3.415   6.634   0.294 -1.4836 -0.3806  0.9427
 9413TIP3   OH249653   4.139   2.815   0.822 -0.0026 -0.4843  0.3385
 9413TIP3    H149654   4.101   2.747   0.766 -3.1638  2.2411 -1.2240
 9413TIP3    H249655   4.076   2.824   0.894 -0.1107  1.2920  0.0604
 9414TIP3   OH249656   4.169   5.958   6.721 -0.3609  0.0625 -0.1261
 9414TIP3    H149657   4.095   5.939   6.664  0.0123  0.3733 -0.7196
 9414TIP3    H249658   4.140   6.034   6.773 -0.2218  0.5916 -0.8109
 9415TIP3   OH249659   4.230   4.562   1.752  0.0472 -0.3867 -0.1202
 9415TIP3    H149660   4.282   4.494   1.797 -0.2447 -1.1116 -0.8549
 9415TIP3    H249661   4.142   4.551   1.786 -0.1208 -0.7663 -0.6681
 9416TIP3   OH249662   1.074   6.500  15.230  0.6237  0.5746  0.0565
 9416TIP3    H149663   1.075   6.572  15.293 -0.0244  0.9131 -0.3098
 9416TIP3    H249664   0.986   6.463  15.238  0.3788  0.9152 -0.9762
 9417TIP3   OH249665   0.672   3.781   0.441  0.5571 -0.0334 -0.0425
 9417TIP3    H149666   0.638   3.701   0.401 -0.6812 -1.2485  3.1397
 9417TIP3    H249667   0.595   3.836   0.453  1.1586  0.9874 -0.6865
 9418TIP3   OH249668   1.171   2.005   2.187 -0.0126 -0.4924 -0.1762
 9418TIP3    H149669   1.155   1.911   2.194  2.4228 -0.8313  2.7810
 9418TIP3    H249670   1.103   2.045   2.242 -1.1175 -0.4608 -1.5236
 9419TIP3   OH249671   5.532   2.160   4.725  0.6285  0.3859  0.1784
 9419TIP3    H149672   5.584   2.185   4.801  0.0598  1.6518  0.1928
 9419TIP3    H249673   5.456   2.219   4.728 -0.8470 -1.4146  0.1939
 9420TIP3   OH249674   4.865   4.005   4.731 -0.0761 -0.3948 -0.4610
 9420TIP3    H149675   4.837   4.094   4.755  0.4770  0.0245 -1.3211
 9420TIP3    H249676   4.856   4.002   4.636  0.0487 -1.2135 -0.4507
 9421TIP3   OH249677   2.863   0.920   4.550  0.0731  0.0203 -0.6066
 9421TIP3    H149678   2.905   0.835   4.538 -0.3036 -0.5647  1.7943
 9421TIP3    H249679   2.935   0.982   4.561  0.3690 -0.5813  1.0577
 9422TIP3   OH249680   0.104   5.570   1.664  0.3669 -0.3236 -0.0741
 9422TIP3    H149681   0.111   5.493   1.720  0.2876 -0.7353 -0.6261
 9422TIP3    H249682   0.045   5.543   1.594 -0.1564  0.4363  0.0588
 9423TIP3   OH249683   2.039   5.794   2.450  0.2533 -0.3475  0.0938
 9423TIP3    H149684   1.993   5.716   2.480  1.3736 -1.8690 -1.8861
 9423TIP3    H249685   2.104   5.810   2.519  1.1761 -2.2778 -0.2414
 9424TIP3   OH249686   5.383   1.915   1.629 -0.2577 -0.2812 -0.3851
 9424TIP3    H149687   5.372   2.003   1.595  1.5089 -0.0694 -0.4960
 9424TIP3    H249688   5.399   1.861   1.551  1.7260 -0.1446 -0.1221
 9425TIP3   OH249689   5.412   2.518   5.405 -0.8451  0.6529 -0.1818
 9425TIP3    H149690   5.405   2.437   5.354  0.4788 -0.3950  1.1921
 9425TIP3    H249691   5.435   2.584   5.340 -1.3727 -0.1753 -1.2610
 9426TIP3   OH249692   0.767   1.890   3.900 -0.2249  0.3932  0.0380
 9426TIP3    H149693   0.802   1.868   3.814  1.4745 -0.6465  0.9456
 9426TIP3    H249694   0.811   1.972   3.923  0.2633  0.0381  0.4034
 9427TIP3   OH249695   4.862   4.499  11.163 -0.7311  0.4316  0.2777
 9427TIP3    H149696   4.912   4.508  11.082 -1.3212 -0.6529 -0.2258
 9427TIP3    H249697   4.781   4.455  11.136 -1.5200  1.2541  1.2416
 9428TIP3   OH249698   3.055   1.509   3.097  0.0779 -0.8877  0.1272
 9428TIP3    H149699   2.971   1.482   3.058 -0.4634  1.0155 -0.1262
 9428TIP3    H249700   3.092   1.570   3.033 -0.4307  1.6781  2.1024
 9429TIP3   OH249701   5.107   5.407   0.438  0.0012 -0.3237  0.2876
 9429TIP3    H149702   5.198   5.433   0.449  0.2753 -1.0380 -0.2034
 9429TIP3    H249703   5.081   5.444   0.354 -0.2842  0.1909  0.5947
 9430TIP3   OH249704   5.361   5.731   4.431 -0.3272 -0.1963  0.0762
 9430TIP3    H149705   5.453   5.726   4.457 -0.0026  0.7474 -0.8360
 9430TIP3    H249706   5.313   5.697   4.507  0.6412  1.5688  1.5675
 9431TIP3   OH249707   4.363   4.271  11.349 -0.2132 -0.5323  0.0696
 9431TIP3    H149708   4.399   4.316  11.273  0.6067 -0.4852  0.4752
 9431TIP3    H249709   4.417   4.301  11.422  0.9425 -2.8135  0.2369
 9432TIP3   OH249710   1.676   5.269   1.748  0.0019  0.2162 -0.5261
 9432TIP3    H149711   1.763   5.278   1.786  0.0206  1.3549 -0.8194
 9432TIP3    H249712   1.682   5.191   1.694  0.4520 -0.4711  0.4732
 9433TIP3   OH249713   0.839   6.562   1.353 -0.1606 -0.5663 -0.7601
 9433TIP3    H149714   0.860   6.584   1.263  1.3930 -0.4028 -0.3875
 9433TIP3    H249715   0.803   6.643   1.390  0.2198 -0.3163 -0.9336
 9434TIP3   OH249716   4.221   6.495   4.122 -0.1797  1.0213 -0.4830
 9434TIP3    H149717   4.156   6.552   4.163 -0.9974  0.7205 -1.3259
 9434TIP3    H249718   4.218   6.415   4.175 -0.4417  1.0431 -0.4598
 9435TIP3   OH249719   0.322   4.020   5.925 -0.1942  0.1519 -0.3439
 9435TIP3    H149720   0.318   3.927   5.946  2.3584  0.0028 -0.2312
 9435TIP3    H249721   0.269   4.029   5.845  1.6893 -1.9408 -1.9522
 9436TIP3   OH249722   0.761   3.008  14.640 -0.1017  0.6525  0.0465
 9436TIP3    H149723   0.716   2.933  14.678  0.9052 -0.6023 -1.1481
 9436TIP3    H249724   0.713   3.027  14.559  1.1234 -0.3299 -0.9402
 9437TIP3   OH249725   0.080   3.250  14.932 -0.0457  0.1828 -0.0274
 9437TIP3    H149726   0.028   3.310  14.985 -0.2631  0.3985 -0.4746
 9437TIP3    H249727   0.163   3.295  14.917  0.7227 -0.6141  1.6053
 9438TIP3   OH249728   4.875   1.296   5.018 -0.0675  0.0375 -0.5717
 9438TIP3    H149729   4.878   1.299   5.113 -0.5044  0.8383 -0.5778
 9438TIP3    H249730   4.899   1.384   4.989 -1.8269  0.3810 -1.1324
 9439TIP3   OH249731   0.991   4.834   5.236 -0.0383 -0.6523 -0.4443
 9439TIP3    H149732   0.979   4.886   5.316  0.9664 -1.1157  0.0240
 9439TIP3    H249733   1.017   4.748   5.268 -0.0127 -0.9490 -1.2666
 9440TIP3   OH249734   1.178   6.698   1.774 -0.3424  0.1553 -0.0567
 9440TIP3    H149735   1.104   6.646   1.740 -0.2296  0.5220 -0.8816
 9440TIP3    H249736   1.250   6.635   1.780 -0.2986  0.1328 -0.7383
 9441TIP3   OH249737   1.333   0.064   5.859 -0.7172 -0.4416  0.2868
 9441TIP3    H149738   1.289   0.130   5.912 -1.0208 -0.0742 -0.4074
 9441TIP3    H249739   1.360  -0.004   5.921 -1.2631 -0.1282  0.8683
 9442TIP3   OH249740   5.767   6.083  10.487  0.4772 -0.1182  0.0768
 9442TIP3    H149741   5.785   6.169  10.448 -2.0637  0.8812  0.8805
 9442TIP3    H249742   5.760   6.024  10.412  0.4567  0.7726 -0.6393
 9443TIP3   OH249743   3.894   5.360   5.546 -0.0747 -0.0584  0.0111
 9443TIP3    H149744   3.970   5.404   5.507  0.6598  0.2184  1.6594
 9443TIP3    H249745   3.920   5.267   5.550 -0.6893 -0.3113 -1.3269
 9444TIP3   OH249746   4.496   2.555  15.854  0.2594  0.1170  0.1408
 9444TIP3    H149747   4.524   2.642  15.825  0.7652  0.4919  1.6528
 9444TIP3    H249748   4.440   2.572  15.930  0.0049 -0.8680  0.1887
 9445TIP3   OH249749   4.238   5.517  12.659  0.2122 -0.1147  0.5354
 9445TIP3    H149750   4.241   5.509  12.754 -2.9073 -0.2081  0.7200
 9445TIP3    H249751   4.230   5.427  12.627  0.6813 -0.0429  0.1907
 9446TIP3   OH249752   2.622   4.212  15.166  0.0553 -0.3651  0.0814
 9446TIP3    H149753   2.606   4.284  15.228  0.1484  0.4678 -0.8363
 9446TIP3    H249754   2.660   4.255  15.089 -0.1206 -1.3752 -0.5854
 9447TIP3   OH249755   1.155   3.617   0.506  0.0938 -0.3947 -0.1424
 9447TIP3    H149756   1.097   3.659   0.443  0.1354 -1.7252 -1.0927
 9447TIP3    H249757   1.234   3.672   0.506 -0.3059  0.1885 -0.4674
 9448TIP3   OH249758   0.829   4.366  13.903  0.2200 -0.4743  0.0020
 9448TIP3    H149759   0.923   4.365  13.885  0.3051  2.5655 -0.2070
 9448TIP3    H249760   0.788   4.347  13.818  0.6896  1.5912 -0.7426
 9449TIP3   OH249761   4.562   1.560   2.265  0.0551  0.4264 -0.1679
 9449TIP3    H149762   4.631   1.612   2.306  1.3009  0.4217 -2.1004
 9449TIP3    H249763   4.531   1.501   2.334  1.3473  1.0645  0.9967
 9450TIP3   OH249764   4.874   3.637   2.236  0.6542 -0.0152  0.0138
 9450TIP3    H149765   4.894   3.650   2.143  2.2434  1.5261  0.5149
 9450TIP3    H249766   4.836   3.549   2.240  1.5070 -0.5399 -1.9527
 9451TIP3   OH249767   3.172   1.024  13.413 -0.5458  0.1726  0.3610
 9451TIP3    H149768   3.201   1.112  13.437 -0.8514  0.2607  0.4134
 9451TIP3    H249769   3.232   0.966  13.459 -1.1786  0.3360  1.4380
 9452TIP3   OH249770   4.858   2.233  11.579  0.8253 -0.4639 -0.4730
 9452TIP3    H149771   4.888   2.161  11.525  0.4957 -0.4433 -0.6900
 9452TIP3    H249772   4.856   2.309  11.521  2.2422 -0.0076  0.0205
 9453TIP3   OH249773   4.654   4.251  11.173  0.3201 -0.3145  0.4407
 9453TIP3    H149774   4.669   4.226  11.081  0.4581 -1.2264  0.7012
 9453TIP3    H249775   4.560   4.266  11.179  0.3300 -0.1095  0.1205
 9454TIP3   OH249776   2.902   2.512   0.586  0.6794 -0.1172 -0.4738
 9454TIP3    H149777   2.855   2.431   0.566 -0.7768  0.3268  0.9787
 9454TIP3    H249778   2.988   2.501   0.544  0.8254 -2.7318  0.3274
 9455TIP3   OH249779   3.882   4.045  16.101 -0.1713  0.4087 -0.6969
 9455TIP3    H149780   3.968   4.086  16.093 -0.6085  1.1487 -1.8238
 9455TIP3    H249781   3.873   4.028  16.195  1.5094 -0.4090 -0.6459
 9456TIP3   OH249782   4.741   4.729  13.564  0.0492 -0.1619 -0.6432
 9456TIP3    H149783   4.751   4.819  13.534  5.3136 -0.3065 -0.1418
 9456TIP3    H249784   4.730   4.678  13.484 -2.2882  0.7217 -0.9681
 9457TIP3   OH249785   6.773   5.988  14.488 -0.1407  0.2244 -0.2534
 9457TIP3    H149786   6.740   5.920  14.546  0.0247  0.9090  0.6584
 9457TIP3    H249787   6.815   6.051  14.546  0.2813  0.7820 -1.1426
 9458TIP3   OH249788   4.258   0.141   4.120  0.4315  0.6221 -0.2963
 9458TIP3    H149789   4.180   0.088   4.104  1.4116 -0.2231 -2.6900
 9458TIP3    H249790   4.224   0.227   4.144 -1.1962 -0.6411  2.4289
 9459TIP3   OH249791   1.109   0.764   5.600  0.4954  0.0124  0.2758
 9459TIP3    H149792   1.160   0.791   5.523 -0.7563 -1.0656 -0.9757
 9459TIP3    H249793   1.138   0.675   5.618 -0.4573 -0.3822 -0.0659
 9460TIP3   OH249794   0.459   5.583   5.396  0.1018 -0.5312  0.1503
 9460TIP3    H149795   0.516   5.637   5.451 -0.4827 -0.6643  0.9137
 9460TIP3    H249796   0.407   5.645   5.345  0.4265 -0.3990 -0.0172
 9461TIP3   OH249797   4.101   0.508  12.419  0.1771 -0.2678  0.3721
 9461TIP3    H149798   4.143   0.436  12.466  0.1785 -1.5346 -1.4567
 9461TIP3    H249799   4.017   0.472  12.391 -0.0993  0.6613 -0.0166
 9462TIP3   OH249800   6.124   1.534   5.762  0.0420  0.1257  0.1766
 9462TIP3    H149801   6.037   1.550   5.798  0.0980 -0.3667  0.5381
 9462TIP3    H249802   6.135   1.439   5.767  0.7807  0.2219  0.5680
 9463TIP3   OH249803   0.539   2.729   0.038 -0.3643  0.0976 -0.3285
 9463TIP3    H149804   0.628   2.693   0.040 -1.0432 -2.1227 -3.6271
 9463TIP3    H249805   0.485   2.660   0.075 -0.7706  2.0278  3.1581
 9464TIP3   OH249806   4.474   6.759  16.479  0.3043 -0.0250 -0.2023
 9464TIP3    H149807   4.453   6.839  16.430 -1.6039 -0.4323 -0.1147
 9464TIP3    H249808   4.395   6.705  16.471  1.2825 -1.5938  0.3722
 9465TIP3   OH249809   3.297   0.616   0.697  0.6419  0.0689  0.0907
 9465TIP3    H149810   3.263   0.636   0.610 -1.1706 -0.1539  0.7201
 9465TIP3    H249811   3.328   0.526   0.691 -0.5807 -0.3544 -0.0142
 9466TIP3   OH249812   1.592   3.081   3.527 -0.0907 -0.1206  0.2302
 9466TIP3    H149813   1.677   3.070   3.569 -0.0122 -1.7187 -0.2610
 9466TIP3    H249814   1.609   3.136   3.451  1.1081 -2.5798 -1.4110
 9467TIP3   OH249815   5.776   2.054  11.571 -0.8170 -0.2135  0.2864
 9467TIP3    H149816   5.788   1.959  11.584 -2.9673 -0.4450  0.8806
 9467TIP3    H249817   5.790   2.091  11.658 -0.9870 -0.1076  0.2682
 9468TIP3   OH249818   5.204   2.135   0.927 -0.5329  0.2403 -0.1654
 9468TIP3    H149819   5.250   2.063   0.884 -0.8069  0.5659 -1.0323
 9468TIP3    H249820   5.122   2.144   0.878 -0.8539  0.6307  0.4248
 9469TIP3   OH249821   3.952   0.056   4.711 -0.4215  0.0802 -0.5919
 9469TIP3    H149822   3.908   0.121   4.766  1.9835  0.8197  0.6033
 9469TIP3    H249823   3.888   0.033   4.644 -2.9593  0.2956  1.5950
 9470TIP3   OH249824   4.081   5.915  12.295 -0.1307  0.1300 -0.4146
 9470TIP3    H149825   4.048   5.903  12.206 -2.6430 -0.4076  0.5125
 9470TIP3    H249826   4.030   5.853  12.348  2.0629 -0.3426  1.2598
 9471TIP3   OH249827   1.809   6.812   2.706  0.0218  0.7256 -0.6048
 9471TIP3    H149828   1.784   6.720   2.719  1.7278  0.4597  1.3775
 9471TIP3    H249829   1.743   6.862   2.755  0.1909  0.4011 -0.0292
 9472TIP3   OH249830   4.652   0.542   3.171 -0.3989  0.2767  0.2172
 9472TIP3    H149831   4.713   0.611   3.196 -0.7592  0.6535  0.0800
 9472TIP3    H249832   4.681   0.465   3.220  1.1244  0.0202 -1.0180
 9473TIP3   OH249833   3.779   5.106  13.129 -0.4154  0.1504 -0.1328
 9473TIP3    H149834   3.813   5.096  13.217 -1.3706  0.4755  0.2863
 9473TIP3    H249835   3.771   5.200  13.117 -0.4257  0.1024 -0.5134
 9474TIP3   OH249836   3.487   1.968   1.987 -0.1554 -0.1690 -0.5773
 9474TIP3    H149837   3.581   1.958   1.971 -0.1383  0.1275 -0.6723
 9474TIP3    H249838   3.455   2.017   1.912 -0.0865  1.1407  0.2113
 9475TIP3   OH249839   4.342   6.413  16.163  0.6212  0.3047 -0.2898
 9475TIP3    H149840   4.354   6.389  16.071  1.2221  1.8839 -0.6477
 9475TIP3    H249841   4.373   6.336  16.212  0.4684 -0.4789 -1.3975
 9476TIP3   OH249842   4.478   2.841  16.134 -0.1584 -0.4975 -0.7309
 9476TIP3    H149843   4.405   2.858  16.075  0.9511 -0.1175 -2.0568
 9476TIP3    H249844   4.535   2.917  16.124  0.9581 -1.2809 -0.5861
 9477TIP3   OH249845   0.082   2.979  14.857 -0.4034  0.2326  0.4534
 9477TIP3    H149846   0.083   3.075  14.863  0.3136  0.2057  0.9047
 9477TIP3    H249847  -0.005   2.955  14.886 -0.0526  0.6694  1.9620
 9478TIP3   OH249848   5.654   3.455   4.620  0.1399 -0.2149  0.6604
 9478TIP3    H149849   5.593   3.508   4.671  0.5781  1.0105 -0.0643
 9478TIP3    H249850   5.628   3.469   4.529  0.8455 -0.5230  0.4064
 9479TIP3   OH249851   5.465   0.968   1.455  0.1249 -0.5773  0.3641
 9479TIP3    H149852   5.371   0.964   1.473 -0.0493  1.3532  0.0830
 9479TIP3    H249853   5.499   1.029   1.520  0.7238  0.7704 -1.1573
 9480TIP3   OH249854   1.485   0.734   0.214 -0.3487 -0.1704 -0.5615
 9480TIP3    H149855   1.455   0.808   0.266  0.3714  0.9765 -1.7383
 9480TIP3    H249856   1.434   0.660   0.247 -0.7503  0.7402  0.9503
 9481TIP3   OH249857   0.003   2.867   3.860  0.2784  0.1304  0.5259
 9481TIP3    H149858  -0.010   2.779   3.896  0.0972 -0.2492 -0.4431
 9481TIP3    H249859   0.086   2.896   3.899 -0.5850  0.3191  2.3485
 9482TIP3   OH249860   4.002   0.126  16.003 -0.5586 -0.1997 -0.3433
 9482TIP3    H149861   4.004   0.122  15.908 -0.4961  0.1428 -0.3551
 9482TIP3    H249862   4.024   0.037  16.031 -1.4279 -0.5285 -0.6542
 9483TIP3   OH249863   0.322   4.872  12.180  0.3768 -0.0439  0.1743
 9483TIP3    H149864   0.247   4.815  12.166  0.3795  0.4762 -2.4197
 9483TIP3    H249865   0.397   4.821  12.152  1.1483 -0.7190  3.1608
 9484TIP3   OH249866   0.246   6.154   5.945  0.1535  0.5907 -0.2936
 9484TIP3    H149867   0.333   6.183   5.916  0.5602  2.3471  2.3907
 9484TIP3    H249868   0.248   6.164   6.040 -1.8353 -2.7186  0.2308
 9485TIP3   OH249869   6.562   5.612  12.157 -0.5170  0.0939 -0.2721
 9485TIP3    H149870   6.639   5.597  12.103 -0.6892  0.5755 -0.6627
 9485TIP3    H249871   6.579   5.564  12.238  0.6064  0.9554  0.0269
 9486TIP3   OH249872   4.996   3.217  10.617 -0.1024  0.1298 -0.3643
 9486TIP3    H149873   5.006   3.311  10.634 -1.2203  0.5894 -2.0241
 9486TIP3    H249874   5.084   3.181  10.631  0.7626  1.7259 -1.3922
 9487TIP3   OH249875   1.705   5.312   3.460  0.4079 -0.3020  0.6501
 9487TIP3    H149876   1.743   5.378   3.518  0.1972 -0.6450  1.1858
 9487TIP3    H249877   1.769   5.301   3.390  1.0708 -0.5138  1.2843
 9488TIP3   OH249878   0.304   2.398  14.722  0.6807 -0.2084 -0.2077
 9488TIP3    H149879   0.387   2.376  14.763  0.9484  0.1477 -0.5526
 9488TIP3    H249880   0.281   2.320  14.671  0.3577 -0.6465  0.5758
 9489TIP3   OH249881   6.529   0.632   0.837 -0.3224  0.2593 -0.1758
 9489TIP3    H149882   6.454   0.573   0.840 -0.9255  1.0385  1.8440
 9489TIP3    H249883   6.503   0.699   0.773 -1.5132  0.6894  0.7175
 9490TIP3   OH249884   2.460   4.680  16.757 -0.2257  0.1703  0.1372
 9490TIP3    H149885   2.476   4.589  16.781 -1.5636 -0.1331 -0.0992
 9490TIP3    H249886   2.502   4.690  16.671  1.4589  0.2945  0.9184
 9491TIP3   OH249887   1.293   6.488   2.006  0.1823  0.1862  0.7504
 9491TIP3    H149888   1.359   6.516   1.942 -2.5515  2.6086 -1.2737
 9491TIP3    H249889   1.280   6.395   1.989 -0.6633  0.8103 -2.5710
 9492TIP3   OH249890   0.607   5.661   1.012 -0.2930 -0.3354  0.0201
 9492TIP3    H149891   0.659   5.605   1.070 -1.5689 -0.6192  0.9070
 9492TIP3    H249892   0.520   5.663   1.051 -1.2735 -0.7251 -2.0091
 9493TIP3   OH249893   3.403   5.755  13.697  0.3177  0.3234 -0.5507
 9493TIP3    H149894   3.416   5.662  13.712  0.6241  0.4822  0.2680
 9493TIP3    H249895   3.461   5.797  13.761 -0.7335  1.0676 -0.0572
 9494TIP3   OH249896   5.203   1.942   4.432 -0.2678 -0.4948 -0.2053
 9494TIP3    H149897   5.145   1.910   4.501 -0.8625  3.4188  1.3862
 9494TIP3    H249898   5.153   1.928   4.351 -1.7223 -0.7562  0.6957
 9495TIP3   OH249899   1.835   1.714   1.653 -0.1515  0.0472 -0.9117
 9495TIP3    H149900   1.890   1.751   1.721 -1.0326 -0.3600  0.0624
 9495TIP3    H249901   1.891   1.709   1.575  1.1137 -0.1943 -0.0122
 9496TIP3   OH249902   2.362   3.124   5.064 -0.4228  0.2090 -0.5951
 9496TIP3    H149903   2.323   3.047   5.107  1.7463 -0.5491  0.1280
 9496TIP3    H249904   2.400   3.089   4.984 -0.1233  0.6759 -0.6558
 9497TIP3   OH249905   4.090   4.868   2.094  0.4486  0.1034  0.7878
 9497TIP3    H149906   4.054   4.912   2.017  0.1922 -1.0436  0.2224
 9497TIP3    H249907   4.139   4.936   2.140  0.0193  0.9820 -0.0113
 9498TIP3   OH249908   3.449   2.597   5.890  0.6294 -0.3536 -0.5533
 9498TIP3    H149909   3.433   2.676   5.940 -0.8487  0.7328 -2.5850
 9498TIP3    H249910   3.379   2.537   5.915  1.6735 -1.0289  0.8871
 9499TIP3   OH249911   2.010   3.461   5.046 -0.0384  0.3887  0.3225
 9499TIP3    H149912   2.091   3.483   5.092 -0.1357  1.0500  0.1907
 9499TIP3    H249913   1.979   3.381   5.089  1.3272 -0.5943 -0.4650
 9500TIP3   OH249914   1.537   2.590  14.260 -0.1886  0.5033  0.4767
 9500TIP3    H149915   1.496   2.609  14.344 -0.3748 -1.3387  0.8577
 9500TIP3    H249916   1.478   2.527  14.218  0.5900  0.3372 -0.4168
 9501TIP3   OH249917   6.007   5.071   3.162  0.7742 -0.2953  0.2315
 9501TIP3    H149918   5.992   4.997   3.104 -2.1376  0.0554  0.4112
 9501TIP3    H249919   5.999   5.034   3.251  0.9511 -0.0539  0.3491
 9502TIP3   OH249920   5.973   0.615  11.185 -0.7281  0.5025  0.0849
 9502TIP3    H149921   5.934   0.703  11.181 -0.6715  0.5381  0.2831
 9502TIP3    H249922   5.930   0.566  11.115 -1.3137  0.4731  0.4561
 9503TIP3   OH249923   5.060   2.826   2.335  0.2400  0.2013  0.3550
 9503TIP3    H149924   5.004   2.784   2.401  3.4866 -2.4310  1.7105
 9503TIP3    H249925   5.107   2.893   2.383  0.3075  0.4715 -0.0871
 9504TIP3   OH249926   1.609   5.896   5.462  0.4608 -0.3524 -0.6458
 9504TIP3    H149927   1.578   5.819   5.414 -0.4411 -0.8950  0.7489
 9504TIP3    H249928   1.664   5.943   5.399  0.4151 -1.7348 -1.7671
 9505TIP3   OH249929   2.115   6.729   4.526  0.3070  0.7358 -0.5793
 9505TIP3    H149930   2.065   6.795   4.476  0.0782  2.1681  1.4401
 9505TIP3    H249931   2.134   6.771   4.609  1.2625 -1.3429  0.3193
 9506TIP3   OH249932   4.751   3.700   4.542 -0.3841 -0.5173  0.0187
 9506TIP3    H149933   4.715   3.788   4.544  2.1155  0.5654  1.5650
 9506TIP3    H249934   4.709   3.655   4.615 -1.4678 -0.5713 -0.6140
 9507TIP3   OH249935   6.660   1.496   0.686 -0.5771  0.2466 -0.0218
 9507TIP3    H149936   6.723   1.428   0.711 -2.0760 -1.5736 -0.8786
 9507TIP3    H249937   6.659   1.493   0.590 -2.0588  0.0913 -0.0252
 9508TIP3   OH249938   1.939   0.695   3.881  0.1690  0.3797  0.1752
 9508TIP3    H149939   1.897   0.615   3.851 -0.2755  0.9823 -0.8825
 9508TIP3    H249940   1.912   0.704   3.973 -0.0343 -0.4939  0.2104
 9509TIP3   OH249941   4.119   2.182   6.379 -0.2105  0.2973  0.1838
 9509TIP3    H149942   4.076   2.135   6.307  1.2370 -1.8988  0.6369
 9509TIP3    H249943   4.068   2.157   6.457 -0.6594  1.1725  0.1803
 9510TIP3   OH249944   0.911   3.227  14.652  0.4622  0.0988  0.2282
 9510TIP3    H149945   0.872   3.140  14.642  2.0347 -0.4720 -1.6957
 9510TIP3    H249946   0.971   3.218  14.726 -0.9732  0.2284  1.4630
 9511TIP3   OH249947   3.309   2.035   5.528 -0.1740  0.4715  0.8671
 9511TIP3    H149948   3.266   1.961   5.486  0.5609  0.7032 -0.3441
 9511TIP3    H249949   3.237   2.091   5.557 -0.7430 -0.7393  1.9063
 9512TIP3   OH249950   3.884   6.404  15.435  0.5234 -0.3312  0.1640
 9512TIP3    H149951   3.825   6.354  15.492  1.6415 -0.1324  1.5755
 9512TIP3    H249952   3.868   6.495  15.460  1.4271 -0.2816  0.5915
 9513TIP3   OH249953   0.820   1.412   1.118  0.2507  0.3550 -0.2015
 9513TIP3    H149954   0.811   1.366   1.034  0.7849  0.9648 -0.6054
 9513TIP3    H249955   0.896   1.470   1.106  1.1673 -0.5042  1.1430
 9514TIP3   OH249956   1.681   0.106  15.262 -1.0536  0.3571  0.4017
 9514TIP3    H149957   1.707   0.058  15.341  0.4573 -1.2869 -1.0016
 9514TIP3    H249958   1.742   0.180  15.259 -1.6763  0.9262  1.1840
 9515TIP3   OH249959   6.633   2.453  13.845 -0.3738  0.6679 -0.2879
 9515TIP3    H149960   6.675   2.410  13.920 -1.5386  0.0600  0.0316
 9515TIP3    H249961   6.634   2.387  13.776 -3.2178 -0.4113  0.5563
 9516TIP3   OH249962   4.770   5.222   3.236  0.4480 -0.1723  0.1560
 9516TIP3    H149963   4.696   5.279   3.252 -0.2108 -1.0235  0.2249
 9516TIP3    H249964   4.731   5.137   3.216  1.3713 -0.3671 -0.9398
 9517TIP3   OH249965   1.466   4.146   1.394 -0.0421  0.3604  0.0457
 9517TIP3    H149966   1.529   4.148   1.466  0.4400 -0.1998 -0.3405
 9517TIP3    H249967   1.451   4.052   1.379 -3.1506  0.4046  1.9734
 9518TIP3   OH249968   5.071   4.679   3.104 -0.2062 -0.3130 -0.3815
 9518TIP3    H149969   5.156   4.643   3.080  0.3166  0.4945  0.1698
 9518TIP3    H249970   5.091   4.766   3.139 -1.1733 -0.4322  0.5336
 9519TIP3   OH249971   4.526   2.980  17.055  0.1371 -0.6318 -0.1636
 9519TIP3    H149972   4.484   3.015  17.135 -0.1021  1.8752 -1.2774
 9519TIP3    H249973   4.500   3.041  16.986  1.0916 -2.2070 -2.0174
 9520TIP3   OH249974   5.722   5.184   3.199  0.6232 -0.1793 -0.1166
 9520TIP3    H149975   5.756   5.266   3.234  0.4877 -0.6136  1.0699
 9520TIP3    H249976   5.800   5.129   3.187  0.5405 -0.5297  0.8735
 9521TIP3   OH249977   6.797   0.531  15.350 -0.0667  0.3784  0.6057
 9521TIP3    H149978   6.870   0.569  15.400 -1.2576  1.4984  1.5618
 9521TIP3    H249979   6.753   0.607  15.312 -0.7260 -0.2933  0.0256
 9522TIP3   OH249980   1.875   2.877   3.237 -0.1826 -0.0446 -0.3882
 9522TIP3    H149981   1.834   2.922   3.163 -2.8485 -1.8900 -0.1809
 9522TIP3    H249982   1.939   2.819   3.197 -0.4085  0.2019 -1.1246
 9523TIP3   OH249983   4.390   0.883   3.828  0.8675  0.0312  0.3854
 9523TIP3    H149984   4.361   0.881   3.737  0.0021 -0.5409  0.6574
 9523TIP3    H249985   4.390   0.975   3.852  0.6833  0.1495 -0.0698
 9524TIP3   OH249986   0.027   5.262  14.744  0.0242 -0.0437 -0.1344
 9524TIP3    H149987   0.054   5.188  14.798 -1.4768 -0.9536 -0.5486
 9524TIP3    H249988   0.041   5.233  14.654 -1.9207 -0.4644 -0.3602
 9525TIP3   OH249989   3.950   0.674   5.060 -0.4980  0.0783 -0.0794
 9525TIP3    H149990   3.938   0.733   5.134 -0.6467 -0.1880  0.1104
 9525TIP3    H249991   3.917   0.589   5.091  1.7254 -0.6645  0.4004
 9526TIP3   OH249992   4.951   3.177   0.352 -0.2207 -0.3811  0.1195
 9526TIP3    H149993   4.956   3.159   0.446 -0.3379 -0.5952  0.0843
 9526TIP3    H249994   5.015   3.118   0.312 -0.3258 -0.4437  0.0429
 9527TIP3   OH249995   3.341   6.602  13.622 -0.2024  0.1944 -0.3651
 9527TIP3    H149996   3.377   6.678  13.578  2.0337 -0.6478 -0.1455
 9527TIP3    H249997   3.347   6.623  13.715 -0.8869  0.2729 -0.3309
 9528TIP3   OH249998   2.956   3.914   0.282 -0.5031  0.8974 -0.0343
 9528TIP3    H149999   3.021   3.845   0.295 -0.8199  0.4202 -0.9008
 9528TIP3    H250000   2.952   3.959   0.366 -0.8880 -0.6493  0.8161
 9529TIP3   OH250001   1.677   1.390   0.534  0.1651  0.3109  0.3429
 9529TIP3    H150002   1.599   1.441   0.513 -0.4767 -0.5356  0.6049
 9529TIP3    H250003   1.667   1.309   0.483 -0.1824 -0.7001  1.9350
 9530TIP3   OH250004   0.797   4.145   5.163  0.2281 -0.3968 -0.5133
 9530TIP3    H150005   0.760   4.066   5.122  0.7635 -0.2892 -1.2180
 9530TIP3    H250006   0.722   4.187   5.206 -0.1410 -1.0633 -0.4994
 9531TIP3   OH250007   6.142   5.526  16.349  0.8572  0.5456 -0.6323
 9531TIP3    H150008   6.231   5.537  16.382  0.8520 -0.0207 -0.4220
 9531TIP3    H250009   6.152   5.520  16.254  1.3052 -1.8428 -0.4734
 9532TIP3   OH250010   4.811   5.743  12.095  0.2948 -0.1024 -0.1508
 9532TIP3    H150011   4.896   5.737  12.050  1.9090 -0.0807  2.6656
 9532TIP3    H250012   4.807   5.664  12.149 -2.8472 -1.5453 -2.1692
 9533TIP3   OH250013   0.581   1.712   2.861 -0.3349  0.0728  0.3309
 9533TIP3    H150014   0.563   1.631   2.909 -1.1660  0.2192  0.2792
 9533TIP3    H250015   0.613   1.683   2.776  0.4746 -0.1885  0.7086
 9534TIP3   OH250016   1.988   5.226   4.238  0.2876 -0.5546  0.0136
 9534TIP3    H150017   1.933   5.208   4.162  0.5590  0.1687 -0.3658
 9534TIP3    H250018   1.928   5.224   4.312 -0.1191 -0.5103 -0.3071
 9535TIP3   OH250019   4.827   5.804   0.504 -0.4138 -0.7135  0.4946
 9535TIP3    H150020   4.919   5.789   0.522 -0.9891 -3.7720  1.4699
 9535TIP3    H250021   4.819   5.795   0.409  0.1771 -1.3006  0.4993
 9536TIP3   OH250022   0.849   3.157  11.173  0.4695 -0.2539  0.0470
 9536TIP3    H150023   0.812   3.076  11.207  0.0154 -0.6207 -1.2764
 9536TIP3    H250024   0.941   3.155  11.199  0.2351 -0.7204  0.8536
 9537TIP3   OH250025   4.140   3.325   0.283 -0.3847 -0.4666 -0.0945
 9537TIP3    H150026   4.197   3.355   0.354  0.8309 -0.9766 -0.8304
 9537TIP3    H250027   4.052   3.325   0.322  0.1484 -0.0343  1.1790
 9538TIP3   OH250028   5.867   0.681   5.034  0.6733  0.1646 -0.2417
 9538TIP3    H150029   5.873   0.716   5.123 -2.2746  2.1733 -0.6879
 9538TIP3    H250030   5.953   0.701   4.995  1.6119  0.3146  1.7670
 9539TIP3   OH250031   2.082   2.356   4.725  0.1688  0.5614 -0.0976
 9539TIP3    H150032   2.042   2.284   4.675 -0.2114  0.9636 -0.3789
 9539TIP3    H250033   2.007   2.408   4.756  0.3998  0.3580  0.8360
 9540TIP3   OH250034   0.560   0.671   5.149  0.0442  0.1815  0.0681
 9540TIP3    H150035   0.613   0.746   5.176 -0.4661  1.0484 -1.2471
 9540TIP3    H250036   0.624   0.608   5.115  0.4989 -0.1145  1.4286
 9541TIP3   OH250037   1.053   6.611  13.016  0.0831  0.3879  0.4296
 9541TIP3    H150038   1.064   6.516  13.027 -0.1731  0.4050  0.8756
 9541TIP3    H250039   0.999   6.620  12.937 -0.1635  0.1455  0.5657
 9542TIP3   OH250040   2.746   3.625  16.071  0.7170  0.2761 -0.4678
 9542TIP3    H150041   2.661   3.604  16.030  0.2753  0.5389  0.2930
 9542TIP3    H250042   2.724   3.648  16.161  1.6159  0.2810 -0.2425
 9543TIP3   OH250043   6.778   4.601   4.898  0.2131 -0.0288  1.2150
 9543TIP3    H150044   6.706   4.540   4.879  0.6452 -0.3931  0.7499
 9543TIP3    H250045   6.736   4.671   4.949 -0.3414 -0.5717  1.5244
 9544TIP3   OH250046   2.376   6.358  15.695  0.3791  0.1206 -0.4175
 9544TIP3    H150047   2.360   6.449  15.722  2.0330  0.3503 -0.0894
 9544TIP3    H250048   2.290   6.317  15.697 -0.7291  2.1084 -2.2876
 9545TIP3   OH250049   0.761   2.644  10.708 -0.1007  0.4013  0.2365
 9545TIP3    H150050   0.667   2.657  10.694  0.0330 -0.2884 -1.5025
 9545TIP3    H250051   0.782   2.700  10.783 -2.0500 -0.0775  1.2177
 9546TIP3   OH250052   1.286   1.027   2.262 -0.1864 -0.4179  0.2828
 9546TIP3    H150053   1.367   1.027   2.210  0.4044  1.6662  1.0731
 9546TIP3    H250054   1.220   1.062   2.202 -0.1359 -0.6452  0.0945
 9547TIP3   OH250055   3.118   3.665   5.044  0.2366 -0.3726  0.1623
 9547TIP3    H150056   3.176   3.738   5.068  2.3860 -0.8541 -3.0121
 9547TIP3    H250057   3.032   3.706   5.031  0.6804  1.0233  1.3635
 9548TIP3   OH250058   5.142   3.634   0.010 -0.4666 -0.1556  0.6784
 9548TIP3    H150059   5.116   3.566   0.071 -1.1562  0.8439  1.5339
 9548TIP3    H250060   5.185   3.700   0.064  0.2771  0.0673 -0.1481
 9549TIP3   OH250061   5.380   1.692   4.069  0.3550 -0.2049 -0.1782
 9549TIP3    H150062   5.453   1.647   4.025  0.8172 -0.2712  0.6345
 9549TIP3    H250063   5.331   1.621   4.111  1.2181  0.0334  1.3046
 9550TIP3   OH250064   3.147   6.475   0.563  0.4472  0.2206 -0.0406
 9550TIP3    H150065   3.059   6.486   0.526 -0.6907 -1.1195  1.9970
 9550TIP3    H250066   3.191   6.415   0.504  0.2351  1.3577 -1.4038
 9551TIP3   OH250067   0.731   0.420  13.287 -0.0216 -0.1984  0.3470
 9551TIP3    H150068   0.641   0.399  13.313  0.3899 -0.0104  2.0810
 9551TIP3    H250069   0.768   0.336  13.260 -0.0928 -0.7198  1.7446
 9552TIP3   OH250070   5.306   6.559   0.867 -0.0175 -0.6440  0.3750
 9552TIP3    H150071   5.287   6.570   0.774 -0.6734 -0.2952  0.5421
 9552TIP3    H250072   5.401   6.563   0.873 -0.0307  2.4677  0.1020
 9553TIP3   OH250073   3.872   1.746   4.428  0.2272 -0.0263 -0.8688
 9553TIP3    H150074   3.869   1.716   4.338  0.6635 -2.4293 -0.1428
 9553TIP3    H250075   3.926   1.682   4.474 -0.9745  0.4298  1.3581
 9554TIP3   OH250076   5.198   6.013  12.354  1.1027  0.9341  0.3200
 9554TIP3    H150077   5.269   6.039  12.413  2.1327  1.8264 -1.2470
 9554TIP3    H250078   5.165   5.931  12.390  1.2065  1.7947  2.5216
 9555TIP3   OH250079   4.903   1.108  14.751 -0.0890 -0.1186  0.2201
 9555TIP3    H150080   4.980   1.108  14.694 -0.4442 -1.3061 -0.2934
 9555TIP3    H250081   4.928   1.163  14.825  0.5498  1.0840 -0.8515
 9556TIP3   OH250082   1.356   3.116  13.595  0.0958  0.8984 -0.5348
 9556TIP3    H150083   1.448   3.118  13.566 -0.4523  1.0481 -2.4078
 9556TIP3    H250084   1.351   3.040  13.652  1.3040  0.6496 -0.7243
 9557TIP3   OH250085   2.079   6.303   2.840  0.3515  0.0411  0.3987
 9557TIP3    H150086   1.988   6.332   2.841  0.6689  1.2605 -1.2727
 9557TIP3    H250087   2.102   6.300   2.747  1.6888 -1.4028  0.7317
 9558TIP3   OH250088   5.714   6.254  16.871  0.4251  0.2466  0.4193
 9558TIP3    H150089   5.703   6.253  16.966 -0.8450 -1.6425  0.3010
 9558TIP3    H250090   5.634   6.215  16.837 -0.0843  2.7599 -1.5967
 9559TIP3   OH250091   0.995   0.784   3.267  0.1814 -0.8184  0.0514
 9559TIP3    H150092   1.006   0.700   3.223  3.4913 -0.3710 -0.2446
 9559TIP3    H250093   1.031   0.848   3.206 -2.3200  0.9392  0.2337
 9560TIP3   OH250094   5.483   0.243  16.607  0.1845 -0.1170 -0.5800
 9560TIP3    H150095   5.516   0.202  16.687  0.3142  1.0954  0.0105
 9560TIP3    H250096   5.502   0.180  16.538 -0.5797 -1.5000  0.4380
 9561TIP3   OH250097   5.187   1.680   4.784  0.4438 -0.6374  0.3321
 9561TIP3    H150098   5.252   1.640   4.842 -1.2704 -1.2546  1.9043
 9561TIP3    H250099   5.195   1.774   4.802  1.5468 -0.6152 -0.2098
 9562TIP3   OH250100   0.618   3.005  15.469 -0.1985 -0.2502 -0.4294
 9562TIP3    H150101   0.544   3.041  15.420  1.1915  1.6337 -1.2210
 9562TIP3    H250102   0.672   3.081  15.492 -1.0580 -0.7883  4.7275
 9563TIP3   OH250103   2.068   0.339  11.483 -0.1651 -0.7247 -0.4233
 9563TIP3    H150104   1.986   0.329  11.434 -0.6186  1.2407 -0.1740
 9563TIP3    H250105   2.045   0.398  11.555  1.5723  0.3468 -0.6793
 9564TIP3   OH250106   3.498   5.632  14.541 -0.2905 -0.5616  0.0252
 9564TIP3    H150107   3.472   5.658  14.452  0.3091 -1.1131 -0.3209
 9564TIP3    H250108   3.455   5.696  14.598  0.6409  0.8118 -0.7549
 9565TIP3   OH250109   5.328   5.613   2.184 -0.3787 -0.2276  0.1351
 9565TIP3    H150110   5.407   5.663   2.206 -0.3629 -0.0413 -0.3465
 9565TIP3    H250111   5.266   5.635   2.254  0.2866 -1.0770  1.0290
 9566TIP3   OH250112   1.931   2.811   5.380  0.2770  0.5516 -0.3382
 9566TIP3    H150113   1.857   2.810   5.441 -0.2331 -0.1146 -0.9543
 9566TIP3    H250114   1.957   2.903   5.376 -0.0251  0.6868  0.4645
 9567TIP3   OH250115   4.196   4.851   4.782 -0.6379 -0.3011 -0.2041
 9567TIP3    H150116   4.137   4.801   4.725 -1.1096  0.8208 -0.7324
 9567TIP3    H250117   4.283   4.840   4.743 -0.6919 -0.9012 -0.1666
 9568TIP3   OH250118   1.607   1.701   4.281 -0.0789 -0.6068  0.1366
 9568TIP3    H150119   1.606   1.696   4.186 -0.6277  1.5518 -0.0195
 9568TIP3    H250120   1.546   1.633   4.310  0.0341 -1.2309 -1.0191
 9569TIP3   OH250121   3.969   2.345  12.809  0.1471  0.1696 -0.4700
 9569TIP3    H150122   3.985   2.424  12.756 -1.1526  1.9593  1.6087
 9569TIP3    H250123   3.878   2.323  12.792 -0.7055  1.5542  1.8248
 9570TIP3   OH250124   2.336   5.927  13.687 -0.1620  0.2847 -0.0898
 9570TIP3    H150125   2.305   5.882  13.609 -0.1795  0.7163 -0.3328
 9570TIP3    H250126   2.257   5.955  13.733 -0.1696 -0.6097  0.4685
 9571TIP3   OH250127   6.033   5.101  15.692  0.1134  0.1825  0.3680
 9571TIP3    H150128   6.040   5.055  15.776  0.3050 -0.4749  0.0015
 9571TIP3    H250129   6.108   5.070  15.641 -0.4831 -0.1023 -0.3633
 9572TIP3   OH250130   1.696   6.742   0.360 -0.3893  0.0832  0.1671
 9572TIP3    H150131   1.765   6.764   0.422  3.2063 -0.7892 -3.1006
 9572TIP3    H250132   1.671   6.827   0.322 -1.6810  0.4656  1.7397
 9573TIP3   OH250133   0.422   0.510  14.195 -0.5562 -0.2878  0.2020
 9573TIP3    H150134   0.375   0.584  14.234  0.1198 -0.0104  0.5040
 9573TIP3    H250135   0.489   0.487  14.260  0.9141  0.4775 -0.9760
 9574TIP3   OH250136   3.301   5.735   5.396  0.3019 -0.8734  0.1809
 9574TIP3    H150137   3.353   5.816   5.401  0.2144 -0.8069  0.0171
 9574TIP3    H250138   3.361   5.667   5.426 -0.1276 -0.5292  1.9065
 9575TIP3   OH250139   3.454   6.250   3.572 -0.3002  0.5534 -0.4787
 9575TIP3    H150140   3.463   6.305   3.494  1.8842 -0.3040 -0.8996
 9575TIP3    H250141   3.445   6.161   3.538 -0.6513  0.3121  0.2315
 9576TIP3   OH250142   6.716   1.249   4.981 -0.1218 -0.2135 -0.5461
 9576TIP3    H150143   6.719   1.175   4.921  0.5070  0.3662 -1.2541
 9576TIP3    H250144   6.796   1.298   4.963  0.3222 -0.2715  1.0983
 9577TIP3   OH250145   5.816   4.424   4.827 -0.0039  0.2328 -0.5596
 9577TIP3    H150146   5.869   4.399   4.751  0.2645  0.9989 -0.6362
 9577TIP3    H250147   5.815   4.520   4.825  2.7550  0.5122  2.2025
 9578TIP3   OH250148   2.280   4.451  11.200  0.2552  0.2735 -0.2118
 9578TIP3    H150149   2.236   4.412  11.275  1.8203 -0.7855  0.1897
 9578TIP3    H250150   2.218   4.441  11.128  0.9503 -4.0995 -0.4519
 9579TIP3   OH250151   2.406   5.743   2.381  0.1371 -0.2779  0.7874
 9579TIP3    H150152   2.497   5.715   2.389  0.7737  0.9207 -1.3603
 9579TIP3    H250153   2.357   5.662   2.365  1.1678 -0.7364 -0.2081
 9580TIP3   OH250154   5.428   4.298   5.758 -0.2214 -0.2669  0.0612
 9580TIP3    H150155   5.427   4.205   5.780  0.2234  0.1276  1.9268
 9580TIP3    H250156   5.400   4.342   5.839  0.0966  1.2510 -0.6179
 9581TIP3   OH250157   6.437   4.384  12.426  0.5194  0.2900  0.1960
 9581TIP3    H150158   6.390   4.435  12.492 -1.2557 -2.3093  1.0932
 9581TIP3    H250159   6.382   4.393  12.347  0.8423  0.6777  0.0101
 9582TIP3   OH250160   1.538   4.578  14.505  0.4583  0.1754  0.2712
 9582TIP3    H150161   1.487   4.498  14.493  0.3488  0.3304 -0.3518
 9582TIP3    H250162   1.548   4.587  14.600 -0.5782  0.0801  0.3984
 9583TIP3   OH250163   5.818   4.650  15.567  0.1079 -0.3090 -0.1042
 9583TIP3    H150164   5.729   4.636  15.533 -0.3372 -0.8804  1.2394
 9583TIP3    H250165   5.819   4.743  15.592  0.6180  0.2696 -2.0810
 9584TIP3   OH250166   5.047   5.111   2.044 -0.3656 -0.2557 -0.2818
 9584TIP3    H150167   5.029   5.204   2.040  1.7816  0.3317  1.2742
 9584TIP3    H250168   5.140   5.106   2.070 -0.2715 -2.8135 -0.8269
 9585TIP3   OH250169   0.092   0.057  12.475  0.3548 -0.2381  0.1792
 9585TIP3    H150170   0.088   0.035  12.382 -2.4237  1.7734 -0.3066
 9585TIP3    H250171   0.017   0.013  12.513 -0.5182  1.6594  0.7488
 9586TIP3   OH250172   1.936   6.373   2.108 -0.1940  0.0536 -0.1988
 9586TIP3    H150173   1.957   6.309   2.176 -0.2505  1.1154  0.8536
 9586TIP3    H250174   2.009   6.368   2.046 -0.9959 -2.1919 -1.0764
 9587TIP3   OH250175   6.581   5.713   2.102  0.4925 -0.6742 -0.3757
 9587TIP3    H150176   6.520   5.786   2.095 -0.5286 -1.5226 -0.6224
 9587TIP3    H250177   6.645   5.742   2.167 -0.2569  0.1870  0.0102
 9588TIP3   OH250178   0.819   5.378  16.444 -0.0823  0.1968 -0.0330
 9588TIP3    H150179   0.772   5.346  16.521  0.9827  1.4045  1.1704
 9588TIP3    H250180   0.751   5.414  16.388 -0.8664 -0.6174  0.3686
 9589TIP3   OH250181   0.373   4.150   4.911  0.6757  0.7836 -0.1074
 9589TIP3    H150182   0.332   4.088   4.971 -0.1702 -0.6389 -2.0617
 9589TIP3    H250183   0.315   4.227   4.913 -1.7500 -0.8244 -2.1114
 9590TIP3   OH250184   3.752   4.765   0.415 -0.0830 -0.0925 -0.2782
 9590TIP3    H150185   3.699   4.816   0.354 -0.5455 -1.0523 -0.6953
 9590TIP3    H250186   3.816   4.719   0.360 -0.2246 -0.6337 -0.0063
 9591TIP3   OH250187   3.007   0.028   5.488 -0.3265  0.1208  0.7758
 9591TIP3    H150188   3.016  -0.030   5.413 -1.5569  2.4216 -1.2806
 9591TIP3    H250189   3.071   0.097   5.473  0.4139 -0.0811  2.6524
 9592TIP3   OH250190   4.979   5.623  13.182  0.0273  0.0244 -0.0856
 9592TIP3    H150191   4.945   5.635  13.271 -2.6326  0.9953 -1.1686
 9592TIP3    H250192   5.018   5.535  13.184  1.6456  0.6681  2.4494
 9593TIP3   OH250193   5.600   3.576   2.130  0.0835 -0.3123 -0.4522
 9593TIP3    H150194   5.594   3.494   2.082 -0.4294 -0.1140 -0.7415
 9593TIP3    H250195   5.682   3.615   2.100  0.7785 -1.1271  0.3584
 9594TIP3   OH250196   3.649   0.195  15.344  0.4892  0.1449  0.0893
 9594TIP3    H150197   3.560   0.208  15.312  0.4071 -0.8897 -0.1451
 9594TIP3    H250198   3.638   0.145  15.425  0.8764 -0.4386 -0.2120
 9595TIP3   OH250199   1.770   0.332  15.518  0.3337  0.1710  0.2209
 9595TIP3    H150200   1.715   0.293  15.587  0.4256  0.4195  0.4368
 9595TIP3    H250201   1.850   0.278  15.519  0.3869  0.2496  0.3982
 9596TIP3   OH250202   0.899   5.865  15.069  0.0847 -0.1648  0.2748
 9596TIP3    H150203   0.939   5.949  15.044  0.0489  0.5704  2.4840
 9596TIP3    H250204   0.811   5.870  15.033 -0.1398  1.0640  0.9254
 9597TIP3   OH250205   3.846   0.386  12.336 -0.0543  0.6274 -0.5510
 9597TIP3    H150206   3.830   0.464  12.282 -1.4495  0.9037  0.1933
 9597TIP3    H250207   3.802   0.315  12.289 -1.8319  0.9870  0.4559
 9598TIP3   OH250208   3.129   2.631  14.875 -0.1520 -0.0451 -0.5136
 9598TIP3    H150209   3.157   2.666  14.960 -3.0972  3.5512 -0.7827
 9598TIP3    H250210   3.085   2.549  14.897  1.2084 -0.4106  1.0819
 9599TIP3   OH250211   5.068   3.523  13.351  0.5112 -0.0274 -0.2766
 9599TIP3    H150212   5.080   3.446  13.295  0.8021  1.0135 -1.7137
 9599TIP3    H250213   5.123   3.590  13.311  1.3441  0.5518  1.7530
 9600TIP3   OH250214   0.988   0.585   4.805 -0.3301  0.0672 -0.0771
 9600TIP3    H150215   0.991   0.645   4.731  0.8433  0.5563  0.3542
 9600TIP3    H250216   1.079   0.574   4.831 -0.7138 -0.2138  1.2022
 9601TIP3   OH250217   0.774   6.281  13.047 -0.0300  0.5301  0.2308
 9601TIP3    H150218   0.727   6.200  13.026 -0.9577  0.8144  1.1231
 9601TIP3    H250219   0.745   6.303  13.136 -3.0523  4.0380 -1.3452
 9602TIP3   OH250220   4.178   4.165  14.571 -0.3603  0.3267  0.6046
 9602TIP3    H150221   4.167   4.085  14.518 -0.6836 -0.0216  1.1873
 9602TIP3    H250222   4.241   4.218  14.521 -1.5757  0.5608 -0.7626
 9603TIP3   OH250223   5.115   5.203   3.741  0.1902  0.3704  0.5288
 9603TIP3    H150224   5.086   5.153   3.817 -0.3342 -2.0973 -1.1770
 9603TIP3    H250225   5.062   5.282   3.742 -0.6401 -0.1660  2.0390
 9604TIP3   OH250226   6.190   4.253  13.693  0.5175  0.1928  0.6223
 9604TIP3    H150227   6.233   4.173  13.664  0.1161  0.4874 -0.8750
 9604TIP3    H250228   6.097   4.233  13.690  0.4481  0.4449  1.0788
 9605TIP3   OH250229   3.947   0.459   4.031 -0.9242  0.3308  0.2038
 9605TIP3    H150230   3.986   0.482   4.115 -0.1836  1.2212 -0.3547
 9605TIP3    H250231   3.926   0.543   3.990  0.7176  0.0379 -1.3896
 9606TIP3   OH250232   6.019   2.690   0.345  0.1137 -0.0502 -0.3644
 9606TIP3    H150233   6.089   2.706   0.409 -0.7317  0.7296  0.4121
 9606TIP3    H250234   6.046   2.737   0.267  1.3292 -1.2946 -0.7269
 9607TIP3   OH250235   2.179   6.176   5.564  0.1963 -0.1812  0.4581
 9607TIP3    H150236   2.261   6.133   5.537  0.3254 -1.0704  2.1507
 9607TIP3    H250237   2.111   6.131   5.514  0.7442  1.0342 -1.5018
 9608TIP3   OH250238   1.463   5.408   3.441  0.5081 -0.5584  0.2739
 9608TIP3    H150239   1.401   5.394   3.370  1.8587 -0.6145 -0.9342
 9608TIP3    H250240   1.535   5.347   3.423  1.7884  0.7943  0.5769
 9609TIP3   OH250241   2.472   2.536   3.746 -0.0739 -0.6172 -0.2239
 9609TIP3    H150242   2.387   2.555   3.707  0.0733 -1.4452 -0.9599
 9609TIP3    H250243   2.497   2.452   3.710 -0.5070 -2.0906  2.5856
 9610TIP3   OH250244   4.152   2.753  11.420  0.3471 -0.0407 -0.1200
 9610TIP3    H150245   4.107   2.669  11.432 -0.5801  0.6642  1.6891
 9610TIP3    H250246   4.245   2.732  11.430  0.3194 -1.1622 -1.7496
 9611TIP3   OH250247   4.994   1.150   3.883 -0.3669 -0.3043 -0.4792
 9611TIP3    H150248   4.990   1.112   3.795  0.6665  1.0510 -1.1545
 9611TIP3    H250249   4.948   1.233   3.875  0.1386  0.0424  0.1268
 9612TIP3   OH250250   3.100   3.045  17.084  0.5969 -0.5548  0.4635
 9612TIP3    H150251   3.036   3.106  17.047  0.6511 -0.1736  0.9934
 9612TIP3    H250252   3.183   3.070  17.044  1.2672  1.8770  3.0281
 9613TIP3   OH250253   1.471   0.534   2.272  0.5382 -0.7727 -0.3714
 9613TIP3    H150254   1.484   0.622   2.307  2.4191 -1.2195  0.1507
 9613TIP3    H250255   1.416   0.546   2.194  0.7959  0.8454 -0.3200
 9614TIP3   OH250256   0.735   3.613  10.266 -0.1695 -0.1068 -0.1589
 9614TIP3    H150257   0.645   3.647  10.266 -0.7076 -1.0514  3.4379
 9614TIP3    H250258   0.726   3.521  10.292  1.8246 -0.0836  0.7861
 9615TIP3   OH250259   1.236   4.810  12.078 -0.1506 -0.2231 -0.5196
 9615TIP3    H150260   1.304   4.759  12.035  0.5699  1.2528 -1.1946
 9615TIP3    H250261   1.282   4.884  12.116 -0.8780 -1.0381  2.1656
 9616TIP3   OH250262   5.854   0.724  14.564 -0.0379 -0.6664  0.2781
 9616TIP3    H150263   5.803   0.673  14.501 -2.0117  0.7996  0.5769
 9616TIP3    H250264   5.920   0.768  14.510 -0.5134 -0.8685 -0.4995
 9617TIP3   OH250265   4.793   1.486   5.828  0.0207  0.4193  0.4442
 9617TIP3    H150266   4.775   1.564   5.777 -0.4275  0.9307  1.3587
 9617TIP3    H250267   4.741   1.497   5.908 -0.7479 -1.2184  0.2168
 9618TIP3   OH250268   1.642   5.054   4.877 -0.1622  0.6653  0.3596
 9618TIP3    H150269   1.618   5.069   4.968 -0.0495 -0.5485  0.5931
 9618TIP3    H250270   1.667   5.141   4.845  1.9521  0.7812  2.0982
 9619TIP3   OH250271   2.867   0.534   5.690 -0.3240  0.4702 -0.9063
 9619TIP3    H150272   2.867   0.487   5.607 -0.2060  0.7111 -1.0438
 9619TIP3    H250273   2.917   0.614   5.673 -0.8052  0.8096 -0.7702
 9620TIP3   OH250274   5.087   4.292   0.880 -0.6126  0.3349  0.5280
 9620TIP3    H150275   5.166   4.289   0.934 -0.9841  2.3661  1.2945
 9620TIP3    H250276   5.113   4.252   0.797  1.2233  0.9068  0.7839
 9621TIP3   OH250277   1.346   6.026  14.950 -0.2891 -1.0445 -0.1981
 9621TIP3    H150278   1.395   5.950  14.920 -0.2276 -0.8102 -0.7015
 9621TIP3    H250279   1.409   6.076  15.002 -0.3060 -1.2893  0.0616
 9622TIP3   OH250280   3.331   5.379   1.740  0.0036  0.3304 -0.9311
 9622TIP3    H150281   3.290   5.433   1.808 -0.0217 -0.8122 -0.0308
 9622TIP3    H250282   3.275   5.302   1.734  0.7382 -0.1730 -1.3373
 9623TIP3   OH250283   2.624   0.004  15.934 -0.7832 -0.0627  0.0441
 9623TIP3    H150284   2.642   0.067  16.004 -0.8737 -1.3677  1.2872
 9623TIP3    H250285   2.705  -0.046  15.926 -0.9362 -0.2278 -0.4621
 9624TIP3   OH250286   6.713   1.815  13.510  0.3764  0.2268 -0.1384
 9624TIP3    H150287   6.769   1.888  13.483 -0.5043 -0.1057 -3.3069
 9624TIP3    H250288   6.629   1.856  13.529 -0.0524  0.1536 -1.6943
 9625TIP3   OH250289   4.565   2.102   4.382 -0.4579 -0.0065 -0.0447
 9625TIP3    H150290   4.583   2.176   4.325 -1.0401  0.3132  0.1795
 9625TIP3    H250291   4.519   2.139   4.457 -0.4188 -0.5381  0.2533
 9626TIP3   OH250292   2.524   5.653  12.471 -0.7480 -0.1493  0.4515
 9626TIP3    H150293   2.518   5.594  12.546  0.6350 -1.6470 -0.5574
 9626TIP3    H250294   2.545   5.738  12.509 -1.2821 -0.6051  1.8305
 9627TIP3   OH250295   0.367   3.414   4.361 -0.0507 -0.0758  0.3425
 9627TIP3    H150296   0.458   3.433   4.384 -0.2725 -0.1137  1.2992
 9627TIP3    H250297   0.371   3.330   4.316  0.5234  0.5121 -0.7678
 9628TIP3   OH250298   5.192   5.531  13.411 -0.5515 -0.0157  0.0455
 9628TIP3    H150299   5.275   5.525  13.459 -1.6423 -0.6913  1.9641
 9628TIP3    H250300   5.166   5.439  13.398 -1.7073  0.1727  0.8349
 9629TIP3   OH250301   5.288   3.074  13.834  0.0312  0.4968  0.4599
 9629TIP3    H150302   5.261   3.072  13.742 -2.0325  0.3316  1.0203
 9629TIP3    H250303   5.248   2.996  13.872  2.2829 -0.3871  1.1835
 9630TIP3   OH250304   2.214   3.937  12.961  0.0589  0.1396  0.2845
 9630TIP3    H150305   2.217   4.006  13.028 -0.3532 -0.4867  0.9606
 9630TIP3    H250306   2.252   3.978  12.883  1.3237  0.6440  1.1194
 9631TIP3   OH250307   2.537   4.220   2.128  0.0147  0.3827  0.6433
 9631TIP3    H150308   2.502   4.131   2.132 -0.0033  0.3845  0.5025
 9631TIP3    H250309   2.507   4.261   2.209  0.2334  0.1830  0.8264
 9632TIP3   OH250310   3.189   0.527  11.921 -0.1909 -0.2525  0.2726
 9632TIP3    H150311   3.200   0.449  11.867  0.9695  1.1515 -1.6340
 9632TIP3    H250312   3.145   0.495  12.000 -2.9643 -2.2586 -1.8823
 9633TIP3   OH250313   2.755   4.137  13.600  0.0362  0.1201 -0.6028
 9633TIP3    H150314   2.806   4.204  13.555 -1.0189  0.7644 -0.8654
 9633TIP3    H250315   2.820   4.079  13.639  0.9623  0.6948 -1.2724
 9634TIP3   OH250316   2.157   3.697   0.652 -0.6824  0.6003 -0.1223
 9634TIP3    H150317   2.224   3.663   0.594  0.1431  2.1061 -0.1234
 9634TIP3    H250318   2.084   3.637   0.644  1.0257 -1.7203  0.6869
 9635TIP3   OH250319   4.604   5.681   2.596 -0.7343  0.3265  0.2206
 9635TIP3    H150320   4.600   5.660   2.690 -1.6724 -2.0913 -0.2871
 9635TIP3    H250321   4.688   5.727   2.586 -0.0275 -0.4417  2.0635
 9636TIP3   OH250322   4.901   4.289  12.854 -0.4796  0.2037  0.2487
 9636TIP3    H150323   4.870   4.316  12.940  0.3087  1.8039  0.0459
 9636TIP3    H250324   4.843   4.334  12.792  0.2186  0.6796 -0.0767
 9637TIP3   OH250325   2.758   0.726   0.522 -0.0887  0.4120 -0.6062
 9637TIP3    H150326   2.766   0.821   0.531 -2.4511  0.7601 -1.4711
 9637TIP3    H250327   2.772   0.692   0.611  0.3042  1.5976 -0.1998
 9638TIP3   OH250328   0.878   5.032  14.484 -0.6257 -0.1907 -0.0743
 9638TIP3    H150329   0.881   5.108  14.541 -1.8116 -0.5610  0.5260
 9638TIP3    H250330   0.811   4.976  14.523  1.1601 -2.2074  0.3127
 9639TIP3   OH250331   5.464   4.465  15.560 -0.5253  0.5709  0.1504
 9639TIP3    H150332   5.542   4.429  15.602  0.5759  0.9131 -1.5204
 9639TIP3    H250333   5.393   4.408  15.590  0.6065 -0.7233  0.4837
 9640TIP3   OH250334   0.759   1.798   5.470  0.2270  0.3975  0.7075
 9640TIP3    H150335   0.692   1.798   5.538  1.5281  0.1904  2.0295
 9640TIP3    H250336   0.765   1.889   5.441 -0.4782  0.4454  0.7038
 9641TIP3   OH250337   4.571   1.355  11.965 -0.1157  0.5610  0.1886
 9641TIP3    H150338   4.654   1.344  11.918  0.0576  1.3906  0.2796
 9641TIP3    H250339   4.505   1.359  11.896 -0.4641 -2.7910  0.1857
 9642TIP3   OH250340   5.072   6.564  14.742 -0.1277 -0.0618  0.5757
 9642TIP3    H150341   5.122   6.483  14.734 -0.4389 -0.1634 -0.5201
 9642TIP3    H250342   5.024   6.554  14.824 -0.8896 -1.4111  0.0031
 9643TIP3   OH250343   4.761   3.316  11.062  0.2969 -0.2777  0.2848
 9643TIP3    H150344   4.667   3.315  11.080  0.4229 -1.6177  1.0001
 9643TIP3    H250345   4.768   3.352  10.974 -0.8947 -0.1865  0.2093
 9644TIP3   OH250346   0.305   1.032  11.754 -0.0226 -0.6805  0.1495
 9644TIP3    H150347   0.377   1.002  11.698  1.7071  2.2572  0.6099
 9644TIP3    H250348   0.339   1.024  11.843 -0.8872 -0.7444  0.4797
 9645TIP3   OH250349   4.946   4.751  15.014 -0.6582  0.0059  0.0815
 9645TIP3    H150350   5.002   4.713  14.946 -1.3301  0.2520 -0.6212
 9645TIP3    H250351   4.928   4.840  14.983  0.7084  0.8629  1.5908
 9646TIP3   OH250352   6.296   1.032   2.866 -0.1971  1.1238 -0.4525
 9646TIP3    H150353   6.324   0.966   2.803 -1.1781  0.0528  0.2034
 9646TIP3    H250354   6.218   1.072   2.828 -1.2333 -0.0381  0.3604
 9647TIP3   OH250355   5.378   2.525   0.571 -0.3287  0.3066 -0.0333
 9647TIP3    H150356   5.452   2.586   0.572  0.7217 -0.9548  0.5810
 9647TIP3    H250357   5.339   2.532   0.658 -1.7366  1.8506 -0.7139
 9648TIP3   OH250358   1.820   0.626   2.196 -0.5436 -0.2113 -0.1143
 9648TIP3    H150359   1.796   0.539   2.229 -1.0490  0.5106  1.5348
 9648TIP3    H250360   1.904   0.645   2.237  0.3217 -0.4963 -1.6577
 9649TIP3   OH250361   2.684   1.918   2.770  0.6254 -0.0360 -0.1891
 9649TIP3    H150362   2.615   1.982   2.751  1.0325  1.2919  2.3374
 9649TIP3    H250363   2.756   1.943   2.712 -0.4638 -0.5515 -1.8354
 9650TIP3   OH250364   6.770   0.253  14.717  0.9150  0.1029  0.2021
 9650TIP3    H150365   6.720   0.321  14.762 -0.7817 -2.4045  2.4494
 9650TIP3    H250366   6.727   0.243  14.632 -0.6548 -0.0598  0.9849
 9651TIP3   OH250367   5.734   2.029  16.585 -0.1976  0.3801 -0.2168
 9651TIP3    H150368   5.688   2.109  16.561 -1.0888  0.1361  0.6488
 9651TIP3    H250369   5.706   1.965  16.519  0.3535  0.7023 -0.7835
 9652TIP3   OH250370   0.045   2.376   2.434 -0.5505 -0.0891  0.0779
 9652TIP3    H150371   0.112   2.445   2.442 -1.2064  0.4005  1.6459
 9652TIP3    H250372  -0.032   2.422   2.400  0.1380 -0.8485 -2.7881
 9653TIP3   OH250373   0.573   4.267  14.707  0.1248  0.9137  0.2061
 9653TIP3    H150374   0.500   4.325  14.687 -0.3684 -0.3846 -2.0421
 9653TIP3    H250375   0.558   4.241  14.798 -2.8208 -0.1249 -0.4696
 9654TIP3   OH250376   0.992   3.563  15.350  0.3504  0.7669 -0.4794
 9654TIP3    H150377   1.038   3.646  15.364  0.6539  0.2444  1.9921
 9654TIP3    H250378   0.901   3.588  15.336  0.5848  1.5584 -0.6426
 9655TIP3   OH250379   0.624   1.836   2.243 -0.2729  0.5080 -0.0602
 9655TIP3    H150380   0.555   1.771   2.259  1.3926 -1.3557 -0.0863
 9655TIP3    H250381   0.654   1.818   2.154  0.2701  1.2729 -0.0392
 9656TIP3   OH250382   1.515   1.733  16.928  0.2506 -0.0046  0.5300
 9656TIP3    H150383   1.464   1.803  16.970  0.0722 -0.4753  1.1215
 9656TIP3    H250384   1.606   1.763  16.933  0.1007  0.5374  0.0724
 9657TIP3   OH250385   0.380   2.845  11.233  0.0011  0.2061 -0.1556
 9657TIP3    H150386   0.454   2.896  11.266  0.1708  0.1156 -0.3895
 9657TIP3    H250387   0.385   2.856  11.138  2.0193 -2.8756 -0.5451
 9658TIP3   OH250388   3.424   6.382  12.222 -0.5405  0.4676  0.1231
 9658TIP3    H150389   3.340   6.386  12.268  0.2306 -0.4240  1.6855
 9658TIP3    H250390   3.456   6.472  12.221 -1.7306  0.9277 -1.0081
 9659TIP3   OH250391   0.073   0.224  11.048  0.4652 -0.3359 -0.1302
 9659TIP3    H150392   0.035   0.265  11.127 -1.9577 -1.2205 -0.7317
 9659TIP3    H250393   0.164   0.206  11.072 -0.1915 -0.6371  2.5258
 9660TIP3   OH250394   6.708   3.408  15.045 -0.2021  0.4489 -0.3308
 9660TIP3    H150395   6.616   3.430  15.059 -0.6830 -1.8885  0.7127
 9660TIP3    H250396   6.746   3.410  15.133 -0.8384 -4.5204  0.3823
 9661TIP3   OH250397   1.092   0.243   1.933 -0.0652 -0.2741  0.4549
 9661TIP3    H150398   1.173   0.231   1.883 -1.3813  0.9367 -2.1844
 9661TIP3    H250399   1.072   0.156   1.968  0.2257 -1.6014 -2.4069
 9662TIP3   OH250400   0.195   5.868   1.068 -0.2779 -0.3542 -0.1403
 9662TIP3    H150401   0.122   5.912   1.024  1.7359  1.9770 -1.4227
 9662TIP3    H250402   0.188   5.897   1.159 -0.8644 -0.0247 -0.2782
 9663TIP3   OH250403   3.416   1.827  15.503 -0.0297  0.2934  0.1651
 9663TIP3    H150404   3.381   1.877  15.578 -0.5466 -0.8507  0.7012
 9663TIP3    H250405   3.492   1.878  15.474 -0.7454  1.5788  0.4718
 9664TIP3   OH250406   5.933   2.977  11.712  0.2284 -0.3265  0.3583
 9664TIP3    H150407   5.998   3.005  11.777  1.4137  0.8812 -1.2671
 9664TIP3    H250408   5.939   3.042  11.643 -0.3495 -2.0608 -1.4037
 9665TIP3   OH250409   1.331   3.038  17.006  0.0390 -0.2424  0.2674
 9665TIP3    H150410   1.398   3.059  17.071  0.3845 -1.4495  0.3321
 9665TIP3    H250411   1.362   3.080  16.925  0.0934  0.4646  0.6462
 9666TIP3   OH250412   3.595   4.154  16.214 -0.4846  0.0236  0.0454
 9666TIP3    H150413   3.665   4.111  16.166 -1.0560 -0.0721 -0.7256
 9666TIP3    H250414   3.549   4.082  16.259 -0.3528  0.0359  0.1994
 9667TIP3   OH250415   0.372   1.487  16.187 -0.4834  0.2246  0.4117
 9667TIP3    H150416   0.327   1.571  16.187  0.4755  0.7418  0.3122
 9667TIP3    H250417   0.360   1.453  16.276 -1.1850  0.2904  0.3464
 9668TIP3   OH250418   2.577   0.106  16.542 -0.1638  0.3010  0.1303
 9668TIP3    H150419   2.625   0.023  16.548 -0.9786 -0.2363 -0.5171
 9668TIP3    H250420   2.558   0.117  16.449  0.2815  1.4344  0.1547
 9669TIP3   OH250421   5.869   3.752   1.725  0.2983 -0.2725 -0.6279
 9669TIP3    H150422   5.930   3.721   1.657 -0.6801 -0.0510 -1.6371
 9669TIP3    H250423   5.784   3.720   1.697 -0.1044 -0.3627  0.6394
 9670TIP3   OH250424   6.488   2.128   0.417  0.0288  0.5444  0.4656
 9670TIP3    H150425   6.418   2.139   0.482 -1.3177 -1.1889 -0.6310
 9670TIP3    H250426   6.516   2.037   0.426  0.9967  0.7544 -0.2498
 9671TIP3   OH250427   2.918   0.022  12.300 -0.0271  0.0265  0.1690
 9671TIP3    H150428   2.964  -0.041  12.245  1.2780  1.8805 -0.9906
 9671TIP3    H250429   2.842   0.048  12.248 -0.3266 -0.2589  0.4599
 9672TIP3   OH250430   4.174   3.823  10.276 -0.1163  0.2383 -0.7890
 9672TIP3    H150431   4.219   3.819  10.191  0.2723  1.1396 -0.6379
 9672TIP3    H250432   4.181   3.915  10.302 -0.3685 -0.0045  0.1538
 9673TIP3   OH250433   1.331   2.843  11.299  0.4303  0.4403  0.6123
 9673TIP3    H150434   1.274   2.868  11.226  1.0412  0.1842  0.0293
 9673TIP3    H250435   1.284   2.871  11.377 -0.7429 -0.2383  0.1801
 9674TIP3   OH250436   4.394   5.623  13.547  0.1473  0.1685 -0.6278
 9674TIP3    H150437   4.302   5.594  13.549 -0.8240  2.9554  0.6192
 9674TIP3    H250438   4.419   5.629  13.639  1.5410 -0.3301 -0.9470
 9675TIP3   OH250439   6.317   5.076  11.496  0.5987 -0.2503  0.0288
 9675TIP3    H150440   6.279   5.045  11.578  0.8362  0.9183  0.6041
 9675TIP3    H250441   6.250   5.133  11.458  0.6166 -0.5326 -0.4332
 9676TIP3   OH250442   2.755   2.824  16.769  0.2507  0.1611  0.6602
 9676TIP3    H150443   2.707   2.884  16.825 -0.1576  2.1383 -1.6333
 9676TIP3    H250444   2.847   2.846  16.782  0.1545  0.6350  0.5624
 9677TIP3   OH250445   1.898   4.374  11.243  0.6302  1.1238  0.3437
 9677TIP3    H150446   1.860   4.461  11.254 -0.1310  0.6060  2.2607
 9677TIP3    H250447   1.855   4.338  11.165 -0.7085  1.6365  0.8307
 9678TIP3   OH250448   2.403   2.628  16.427 -0.0403  0.3888 -0.2093
 9678TIP3    H150449   2.405   2.554  16.488  0.2049 -0.0904 -0.7927
 9678TIP3    H250450   2.310   2.638  16.406  0.0160 -0.3861 -0.8790
 9679TIP3   OH250451   3.722   1.396   1.184  0.0406 -0.1219 -0.2865
 9679TIP3    H150452   3.817   1.390   1.172 -0.2690  0.2550 -4.1958
 9679TIP3    H250453   3.702   1.325   1.245  2.7708 -0.2138  0.6782
 9680TIP3   OH250454   0.997   4.939  13.537 -0.0503  0.2881 -0.4296
 9680TIP3    H150455   1.080   4.972  13.503 -0.0678 -0.0698 -0.8162
 9680TIP3    H250456   1.014   4.922  13.630  0.4172 -0.1447 -0.5928
 9681TIP3   OH250457   0.442   6.070   2.637 -0.2050  0.1640  0.4197
 9681TIP3    H150458   0.373   6.063   2.703 -0.0251  1.0230  0.7100
 9681TIP3    H250459   0.428   6.155   2.596  1.1371  0.7143  1.0242
 9682TIP3   OH250460   2.554   1.430   1.671  0.7414  0.7134  0.2019
 9682TIP3    H150461   2.602   1.512   1.685  2.8867 -0.3199 -0.5205
 9682TIP3    H250462   2.611   1.363   1.710 -0.9827 -0.4503  0.8192
 9683TIP3   OH250463   4.326   1.161   4.819 -0.0566 -0.2177 -0.2003
 9683TIP3    H150464   4.365   1.138   4.735 -1.4240  1.1107 -1.2389
 9683TIP3    H250465   4.389   1.221   4.859  0.0016  0.1781 -0.8699
 9684TIP3   OH250466   1.486   3.107   2.710 -0.0391 -0.4255  0.1649
 9684TIP3    H150467   1.432   3.163   2.767 -0.3010 -1.2998  0.7929
 9684TIP3    H250468   1.528   3.168   2.650 -0.3804  0.4448  0.7863
 9685TIP3   OH250469   4.611   3.319  14.067  0.2055 -0.0499  0.3569
 9685TIP3    H150470   4.612   3.284  13.978 -0.7110 -1.1915  0.7600
 9685TIP3    H250471   4.699   3.354  14.081  0.9272 -1.4995 -0.3693
 9686TIP3   OH250472   2.571   6.387   4.117  0.3827 -0.4478 -0.4588
 9686TIP3    H150473   2.518   6.420   4.045 -0.0454 -2.0915 -0.9506
 9686TIP3    H250474   2.657   6.372   4.078  0.7443  0.6087 -0.0892
 9687TIP3   OH250475   4.667   5.048  12.106 -0.2087 -0.3643 -0.2948
 9687TIP3    H150476   4.622   5.091  12.033 -1.1274 -1.0248 -0.1388
 9687TIP3    H250477   4.596   5.021  12.164  0.4997  0.0029  0.7699
 9688TIP3   OH250478   4.364   5.669   0.915  0.3603 -0.0063 -0.3535
 9688TIP3    H150479   4.366   5.649   1.008 -1.6769  0.8532 -0.0603
 9688TIP3    H250480   4.417   5.600   0.874  1.0779 -0.5443  1.3988
 9689TIP3   OH250481   1.250   3.197  15.778  0.3164  0.3337  0.4298
 9689TIP3    H150482   1.182   3.209  15.711  1.5716  0.4513 -0.8788
 9689TIP3    H250483   1.225   3.118  15.825 -0.4651  0.1107 -0.3487
 9690TIP3   OH250484   6.161   6.234  13.758  0.5357  0.2358  0.4987
 9690TIP3    H150485   6.127   6.294  13.824 -0.8946 -0.8025  0.7501
 9690TIP3    H250486   6.133   6.272  13.674  0.8104  0.6185  0.5769
 9691TIP3   OH250487   4.766   0.318  10.463 -0.1865 -0.2311 -0.2534
 9691TIP3    H150488   4.702   0.298  10.531 -0.6705 -2.0989 -1.1690
 9691TIP3    H250489   4.845   0.271  10.490 -0.6471 -1.7256 -1.3367
 9692TIP3   OH250490   2.286   6.110  11.626  0.4077  0.3499  0.1683
 9692TIP3    H150491   2.229   6.062  11.685  0.5838 -1.1718 -0.8449
 9692TIP3    H250492   2.370   6.115  11.672  1.4969 -3.5292 -1.0451
 9693TIP3   OH250493   3.416   0.665  15.877  0.3170 -0.2350 -0.8468
 9693TIP3    H150494   3.472   0.616  15.937 -0.5027  0.7377  0.7836
 9693TIP3    H250495   3.469   0.675  15.797  1.6235 -1.1569 -0.1224
 9694TIP3   OH250496   4.346   0.450   0.020 -0.0618 -0.0998  0.0810
 9694TIP3    H150497   4.333   0.396  -0.058  0.0677 -0.4913  0.3256
 9694TIP3    H250498   4.392   0.528  -0.011 -2.7630  1.2484 -0.7947
 9695TIP3   OH250499   5.757   2.985  11.424  0.2815  0.1742 -0.3591
 9695TIP3    H150500   5.741   3.070  11.463  1.7121  1.2837 -2.0044
 9695TIP3    H250501   5.850   2.968  11.441  0.8745  0.5497 -2.8160
 9696TIP3   OH250502   6.077   3.873   2.325  0.6551  0.1259  0.1360
 9696TIP3    H150503   6.152   3.872   2.385  0.1073 -0.0403  0.8289
 9696TIP3    H250504   6.002   3.896   2.380  0.4814  2.2809 -0.9158
 9697TIP3   OH250505   2.351   3.022  11.148 -0.4276 -0.3186 -0.5111
 9697TIP3    H150506   2.402   3.090  11.192 -1.8520  0.7453 -0.4171
 9697TIP3    H250507   2.414   2.953  11.129  0.7460  0.3226  0.8494
 9698TIP3   OH250508   0.750   5.133   4.241 -0.0574  0.2678 -0.0369
 9698TIP3    H150509   0.785   5.048   4.265 -0.2742 -0.0121 -0.6864
 9698TIP3    H250510   0.692   5.157   4.313  1.7110  0.9090  1.2406
 9699TIP3   OH250511   0.441   2.792   2.638  0.2029  0.2123 -0.0397
 9699TIP3    H150512   0.352   2.764   2.657 -0.2355 -0.0085 -2.1517
 9699TIP3    H250513   0.431   2.867   2.578  1.4050 -0.2282 -0.8435
 9700TIP3   OH250514   2.269   5.776  14.289  0.0119 -0.5887  0.0633
 9700TIP3    H150515   2.352   5.823  14.277  0.7056 -2.0940 -1.3756
 9700TIP3    H250516   2.283   5.721  14.366 -0.8215  1.4661  1.7916
 9701TIP3   OH250517   5.788   6.279   3.655  0.2714  0.0687 -0.0751
 9701TIP3    H150518   5.747   6.364   3.671  1.1942  0.5461 -0.1891
 9701TIP3    H250519   5.774   6.262   3.562  1.3230  0.7940 -0.3920
 9702TIP3   OH250520   3.546   2.217   0.930 -0.0101  0.2509  0.8969
 9702TIP3    H150521   3.468   2.241   0.981 -0.8885 -0.3671 -0.1204
 9702TIP3    H250522   3.517   2.221   0.839  0.4254 -2.4085  0.5839
 9703TIP3   OH250523   3.638   5.181   0.054 -0.1088  0.0146  0.3579
 9703TIP3    H150524   3.670   5.143   0.136  0.3674 -0.0875  0.1289
 9703TIP3    H250525   3.604   5.106   0.005 -2.7748  0.3669  1.4862
 9704TIP3   OH250526   4.590   4.836  14.533 -0.0528 -0.3290 -0.1658
 9704TIP3    H150527   4.640   4.894  14.475  1.2683 -0.7088  0.5515
 9704TIP3    H250528   4.527   4.792  14.475 -1.6662  2.3567 -0.6172
 9705TIP3   OH250529   6.060   6.671  14.765 -0.4256  0.4650  0.3511
 9705TIP3    H150530   6.119   6.597  14.780 -1.9678 -0.9542 -0.2400
 9705TIP3    H250531   6.034   6.697  14.853  0.5661  0.6989  0.5916
 9706TIP3   OH250532   5.094   0.881  14.068 -0.0323  0.5676 -0.5206
 9706TIP3    H150533   5.182   0.878  14.106 -0.1770  3.8158  0.3195
 9706TIP3    H250534   5.037   0.908  14.140 -1.0052  2.6241 -1.9862
 9707TIP3   OH250535   3.166   2.174   1.540 -0.0923  0.2147  0.9814
 9707TIP3    H150536   3.236   2.235   1.518 -0.0898 -0.1418 -0.0629
 9707TIP3    H250537   3.120   2.214   1.614 -1.1359  2.3103 -0.7120
 9708TIP3   OH250538   4.915   3.420   1.205  0.1564 -0.0411  0.1160
 9708TIP3    H150539   4.892   3.512   1.224  0.7811 -0.3509  2.7824
 9708TIP3    H250540   5.003   3.410   1.241 -0.1141 -1.8259  0.3309
 9709TIP3   OH250541   4.361   5.004   3.948 -0.3038 -0.2832 -0.3809
 9709TIP3    H150542   4.319   5.039   4.026  0.0083 -3.4411  1.3578
 9709TIP3    H250543   4.291   5.000   3.883 -1.5104 -0.9179  0.9057
 9710TIP3   OH250544   4.424   3.976  16.763  0.2469  0.5589 -0.3331
 9710TIP3    H150545   4.388   4.064  16.765  2.1229  1.3513  0.4352
 9710TIP3    H250546   4.410   3.946  16.673 -2.6831  0.6019  0.0294
 9711TIP3   OH250547   6.403   6.041   0.093  0.0120 -0.0140  0.4151
 9711TIP3    H150548   6.459   5.996   0.031 -0.2041  0.8782 -0.4572
 9711TIP3    H250549   6.456   6.115   0.124 -1.1285  1.7386 -1.5650
 9712TIP3   OH250550   3.474   0.820  13.986 -0.6272 -0.2309  0.0868
 9712TIP3    H150551   3.472   0.911  13.955 -0.2973 -0.4252 -0.5368
 9712TIP3    H250552   3.497   0.769  13.908 -1.8964 -0.9693  0.1793
 9713TIP3   OH250553   6.142   0.629  14.365  0.3527  0.5225  0.3451
 9713TIP3    H150554   6.114   0.560  14.425 -1.4409 -0.4405 -1.4657
 9713TIP3    H250555   6.122   0.710  14.411  0.3196 -0.1691  1.5868
 9714TIP3   OH250556   1.457   6.601  10.476  0.3654  0.2162  0.2888
 9714TIP3    H150557   1.540   6.610  10.430 -1.0346  0.9842 -2.3225
 9714TIP3    H250558   1.401   6.669  10.438 -1.1303  0.5574  2.8306
 9715TIP3   OH250559   3.387   5.635   1.154  0.1945  0.1350  0.8473
 9715TIP3    H150560   3.415   5.725   1.170  1.2353  0.1507 -0.8329
 9715TIP3    H250561   3.419   5.585   1.230 -0.4090  1.1552  1.7969
 9716TIP3   OH250562   2.908   0.012   1.121 -0.2038  0.3060 -0.2895
 9716TIP3    H150563   2.840  -0.024   1.178 -0.1631  0.1955 -0.3120
 9716TIP3    H250564   2.983   0.025   1.179 -0.2793  0.5343 -0.2399
 9717TIP3   OH250565   2.830   2.723   3.289 -0.4194  0.1859 -0.2924
 9717TIP3    H150566   2.873   2.734   3.204 -1.9550  0.7541 -1.0305
 9717TIP3    H250567   2.780   2.642   3.280  0.8005 -0.7194  0.7188
 9718TIP3   OH250568   5.462   3.156  16.254 -0.4680  0.1107  0.0499
 9718TIP3    H150569   5.474   3.099  16.178 -1.4172  2.0981 -1.7118
 9718TIP3    H250570   5.537   3.217  16.250  0.3049 -0.6854  1.6430
 9719TIP3   OH250571   1.297   6.498  11.542 -0.1188 -0.1031 -0.3281
 9719TIP3    H150572   1.219   6.447  11.522  0.5320 -0.7529 -1.2992
 9719TIP3    H250573   1.336   6.518  11.457  0.0701  1.3757  0.0668
 9720TIP3   OH250574   0.073   6.086   4.099 -0.3302 -0.1655  0.2159
 9720TIP3    H150575   0.106   6.079   4.189 -2.4355  2.6760  1.3494
 9720TIP3    H250576   0.106   6.170   4.068 -0.4628 -0.6543 -1.3423
 9721TIP3   OH250577   2.132   4.158  13.873  0.3847 -0.0854 -0.6216
 9721TIP3    H150578   2.071   4.129  13.941  0.7008  0.8176  0.0791
 9721TIP3    H250579   2.166   4.078  13.835 -0.9213 -0.6114 -0.7451
 9722TIP3   OH250580   3.061   5.492  13.056  0.9261  0.3898  0.2230
 9722TIP3    H150581   3.041   5.422  13.117 -0.3802  0.4669 -0.0863
 9722TIP3    H250582   3.156   5.490  13.047  1.1215  0.1514  1.9710
 9723TIP3   OH250583   0.586   3.440  16.407 -0.2519  0.1850  0.4454
 9723TIP3    H150584   0.600   3.428  16.501  1.2508 -0.9505  0.1213
 9723TIP3    H250585   0.557   3.531  16.398 -0.8695  0.1729  2.0320
 9724TIP3   OH250586   1.588   5.594   5.593  0.3925 -0.6378 -0.0137
 9724TIP3    H150587   1.538   5.667   5.558  1.5221  0.0013 -0.3420
 9724TIP3    H250588   1.588   5.608   5.688  0.5006 -0.2804 -0.0653
 9725TIP3   OH250589   2.373   3.690   6.369 -0.6455 -0.2830  0.2271
 9725TIP3    H150590   2.326   3.612   6.398 -1.5281 -0.3686 -1.2938
 9725TIP3    H250591   2.430   3.713   6.442 -1.4326 -1.4976  1.2599
 9726TIP3   OH250592   0.740   5.503   1.724 -0.1649 -0.5075 -0.1773
 9726TIP3    H150593   0.814   5.491   1.783 -0.9040 -1.3041  0.6152
 9726TIP3    H250594   0.731   5.598   1.715  1.0374 -0.4073 -0.4107
 9727TIP3   OH250595   2.364   1.566   0.676 -0.2758  0.3433  0.2799
 9727TIP3    H150596   2.276   1.544   0.707 -0.0694 -0.3618  0.3806
 9727TIP3    H250597   2.389   1.493   0.620  0.4927  0.2235  0.7574
 9728TIP3   OH250598   3.763   5.135  12.078  0.2334 -0.5262 -0.2248
 9728TIP3    H150599   3.856   5.141  12.056 -0.0239 -0.2576 -1.2936
 9728TIP3    H250600   3.726   5.218  12.048 -0.0797  0.0590  1.6788
 9729TIP3   OH250601   1.086   1.751   2.475  0.4139  0.7587  0.2026
 9729TIP3    H150602   0.999   1.748   2.435  0.8685  0.8261 -0.8275
 9729TIP3    H250603   1.069   1.743   2.569 -0.7632  1.7098  0.0959
 9730TIP3   OH250604   2.447   2.386   5.315 -0.2320 -0.3939 -0.3775
 9730TIP3    H150605   2.528   2.433   5.295 -1.4099  2.0179  0.1309
 9730TIP3    H250606   2.475   2.298   5.339  2.4754  0.9433  1.8736
 9731TIP3   OH250607   5.544   3.461   3.472  0.1564 -0.1356 -0.4500
 9731TIP3    H150608   5.627   3.496   3.439 -0.0690  0.8517  0.0184
 9731TIP3    H250609   5.496   3.537   3.504 -0.1164 -0.9306  1.1066
 9732TIP3   OH250610   3.948   4.260   2.795  0.1569  0.3752  0.4969
 9732TIP3    H150611   3.927   4.167   2.807 -1.2594  0.3095 -1.9285
 9732TIP3    H250612   3.887   4.290   2.728  2.2178  2.4549 -0.5904
 9733TIP3   OH250613   6.635   0.788   0.385  0.1358  0.0423  0.8117
 9733TIP3    H150614   6.655   0.715   0.444  0.0217 -1.6886 -1.1568
 9733TIP3    H250615   6.721   0.817   0.353  0.1399  0.3456  1.0911
 9734TIP3   OH250616   4.614   4.116   3.425  0.0290  0.6269 -0.6298
 9734TIP3    H150617   4.678   4.047   3.445 -1.8432 -1.2250 -0.6263
 9734TIP3    H250618   4.532   4.084   3.463 -1.2079  2.2562 -1.7716
 9735TIP3   OH250619   1.217   2.233   5.764 -0.6330  0.3339 -0.0410
 9735TIP3    H150620   1.254   2.321   5.759 -0.3607  0.1741 -0.8615
 9735TIP3    H250621   1.147   2.241   5.830 -0.7198  1.1956 -0.2235
 9736TIP3   OH250622   3.616   0.326   1.276 -0.2949  0.9223 -0.2633
 9736TIP3    H150623   3.683   0.378   1.320 -0.7028  0.4689  0.9246
 9736TIP3    H250624   3.640   0.330   1.183  1.4753  0.6290  0.1404
 9737TIP3   OH250625   5.732   5.498  16.743 -0.5109  0.1663 -0.6313
 9737TIP3    H150626   5.662   5.436  16.721  0.2391 -1.3189  0.9066
 9737TIP3    H250627   5.692   5.559  16.805 -1.3083  1.4026 -2.3014
 9738TIP3   OH250628   0.186   6.012   2.809  0.1901 -0.3221 -0.2307
 9738TIP3    H150629   0.098   6.047   2.801 -0.3068 -1.5472 -0.2227
 9738TIP3    H250630   0.232   6.075   2.866 -0.6933  0.2536 -0.1393
 9739TIP3   OH250631   2.090   2.493  13.780  0.0447 -0.2282 -0.1411
 9739TIP3    H150632   2.124   2.426  13.720 -0.3863 -0.5252 -0.0590
 9739TIP3    H250633   2.119   2.465  13.866  0.5162  0.1071 -0.1825
 9740TIP3   OH250634   5.216   6.610  14.026  0.8629  0.0813  0.3212
 9740TIP3    H150635   5.297   6.615  13.974  0.0738 -0.0223 -0.9744
 9740TIP3    H250636   5.190   6.518  14.022 -1.2178  0.6592 -2.4114
 9741TIP3   OH250637   4.818   3.898  11.546  0.2765 -0.1102  0.2518
 9741TIP3    H150638   4.811   3.898  11.451 -2.1362 -0.6257  0.3667
 9741TIP3    H250639   4.806   3.806  11.571 -1.4120  0.3106  1.1301
 9742TIP3   OH250640   1.764   5.762   4.177 -0.1673 -0.2286  0.0091
 9742TIP3    H150641   1.824   5.822   4.132 -0.3776 -0.3604 -0.4614
 9742TIP3    H250642   1.803   5.676   4.166 -0.1263 -0.2403  0.2402
 9743TIP3   OH250643   5.090   5.149  11.896  0.1227 -0.0797  0.4834
 9743TIP3    H150644   5.077   5.087  11.824  1.3865 -0.9292  0.9417
 9743TIP3    H250645   5.034   5.117  11.966  0.3591 -0.3900  0.5310
 9744TIP3   OH250646   1.687   4.798  16.735 -0.1401 -0.2349  0.1318
 9744TIP3    H150647   1.630   4.808  16.811 -2.4893 -0.5524 -1.4884
 9744TIP3    H250648   1.628   4.805  16.660  1.8564 -1.4100 -1.6457
 9745TIP3   OH250649   3.022   6.752   1.788  0.1310  0.0538 -0.3737
 9745TIP3    H150650   3.112   6.752   1.755  0.8520 -0.9152  1.4831
 9745TIP3    H250651   3.026   6.800   1.870 -0.2755 -2.9224  1.5289
 9746TIP3   OH250652   3.046   0.831  15.471 -0.4004 -0.0450 -0.3218
 9746TIP3    H150653   3.054   0.782  15.552 -0.5791 -0.6044 -0.6396
 9746TIP3    H250654   3.035   0.922  15.499 -0.9928 -0.2956  0.2871
 9747TIP3   OH250655   0.394   0.566   2.883 -0.4161  0.9920  0.0041
 9747TIP3    H150656   0.302   0.580   2.903 -0.3196  1.2968  0.2316
 9747TIP3    H250657   0.422   0.648   2.841 -0.2727  0.8638 -0.1526
 9748TIP3   OH250658   6.323   6.644  11.459 -0.0226 -0.7789 -0.9119
 9748TIP3    H150659   6.362   6.557  11.471  0.2752 -0.5944 -0.5193
 9748TIP3    H250660   6.316   6.654  11.365  1.7690 -0.4438 -1.0494
 9749TIP3   OH250661   5.336   6.431  15.185 -0.3080  0.1708 -0.3397
 9749TIP3    H150662   5.359   6.338  15.176 -1.4600 -0.2098  0.3635
 9749TIP3    H250663   5.363   6.471  15.102  1.4872 -0.4973 -0.1199
 9750TIP3   OH250664   3.484   2.182  15.554 -0.0924 -0.1346 -0.0099
 9750TIP3    H150665   3.564   2.235  15.560  1.3066 -2.2612  1.0394
 9750TIP3    H250666   3.467   2.174  15.460  1.0175  0.1970 -0.2454
 9751TIP3   OH250667   5.832   0.394   4.951  0.0482 -0.0904  0.2542
 9751TIP3    H150668   5.900   0.433   5.007 -0.6846  0.2796  0.8974
 9751TIP3    H250669   5.785   0.334   5.009 -0.1577 -0.3704 -0.2020
 9752TIP3   OH250670   4.010   0.112  16.962  0.5811 -0.1140 -0.2240
 9752TIP3    H150671   4.033   0.020  16.973 -0.0878 -0.0708  1.9779
 9752TIP3    H250672   3.953   0.114  16.886  1.4977 -1.3358 -0.9714
 9753TIP3   OH250673   4.872   5.467   3.120  0.5498 -0.4860 -0.2151
 9753TIP3    H150674   4.848   5.556   3.147  2.0918 -0.5487  1.5501
 9753TIP3    H250675   4.806   5.411   3.160  2.6128 -0.5512  3.5059
 9754TIP3   OH250676   1.637   3.929   2.100 -0.2438  0.2168  0.4388
 9754TIP3    H150677   1.619   4.003   2.158 -1.3017 -0.7956  1.4441
 9754TIP3    H250678   1.713   3.885   2.138 -1.4616 -0.9526  1.6134
 9755TIP3   OH250679   4.821   6.363  16.352  0.4593 -0.8963 -0.2536
 9755TIP3    H150680   4.805   6.414  16.273 -0.5662  0.0414  0.5150
 9755TIP3    H250681   4.893   6.409  16.396 -0.9725  0.4378  0.8237
 9756TIP3   OH250682   2.649   4.540   3.085 -0.1606 -0.0060 -0.1163
 9756TIP3    H150683   2.648   4.461   3.031 -0.4852 -1.6690  2.2092
 9756TIP3    H250684   2.736   4.578   3.069 -0.6580  0.2738 -2.6560
 9757TIP3   OH250685   1.860   4.743   2.386  0.0713  0.1229  0.3051
 9757TIP3    H150686   1.814   4.741   2.302  0.1100 -0.2351  0.2899
 9757TIP3    H250687   1.799   4.702   2.447  0.8062 -1.4005  0.0601
 9758TIP3   OH250688   6.297   1.352   4.853  0.0455  0.0510  0.1789
 9758TIP3    H150689   6.353   1.425   4.881  0.5500 -0.3829  0.3274
 9758TIP3    H250690   6.332   1.276   4.900 -1.4357 -0.0323  1.2499
 9759TIP3   OH250691   3.235   5.167   2.198  0.0533  0.3232  0.1240
 9759TIP3    H150692   3.166   5.157   2.133  1.3134 -0.6555 -1.1178
 9759TIP3    H250693   3.242   5.081   2.240 -0.1673  0.7072  0.9686
 9760TIP3   OH250694   6.507   1.388  11.772  0.4266  0.0143  0.0207
 9760TIP3    H150695   6.416   1.362  11.753  0.3255 -0.6436  1.2515
 9760TIP3    H250696   6.500   1.480  11.800  0.4349  0.6224 -1.8569
 9761TIP3   OH250697   4.839   3.011   0.814  0.0614 -0.1358  0.2770
 9761TIP3    H150698   4.753   2.984   0.846 -1.4760  0.9307 -2.5308
 9761TIP3    H250699   4.900   2.945   0.848 -1.5363 -0.0247  3.6892
 9762TIP3   OH250700   3.959   3.059   4.125 -0.3408 -0.2932  0.4091
 9762TIP3    H150701   3.939   2.970   4.152 -0.6497  0.2360  2.0917
 9762TIP3    H250702   3.884   3.110   4.155  1.3931  1.0686  2.8586
 9763TIP3   OH250703   5.511   1.534   5.432  0.4347  0.3548  0.9627
 9763TIP3    H150704   5.461   1.461   5.467  0.1922  1.2483  2.5674
 9763TIP3    H250705   5.557   1.497   5.356  1.1745 -1.7321  2.3500
 9764TIP3   OH250706   0.818   3.833   1.580  0.7817  0.5976 -0.3431
 9764TIP3    H150707   0.879   3.805   1.649  0.2978  0.1413 -0.0950
 9764TIP3    H250708   0.868   3.826   1.499  0.9262 -0.1984 -0.1932
 9765TIP3   OH250709   6.459   0.651   2.321  0.8183  0.8856  0.4688
 9765TIP3    H150710   6.448   0.707   2.398  0.7132 -1.2547  2.1202
 9765TIP3    H250711   6.405   0.574   2.340  0.5408  0.4229 -1.9313
 9766TIP3   OH250712   5.715   6.199  14.215  0.3812 -0.0219 -0.1676
 9766TIP3    H150713   5.741   6.199  14.123 -0.8101 -0.4685 -0.5191
 9766TIP3    H250714   5.739   6.286  14.247  4.6514 -1.1320  0.2817
 9767TIP3   OH250715   5.262   0.976   0.732  0.1720  0.0001  0.7760
 9767TIP3    H150716   5.175   0.996   0.698  1.2098  1.7024 -1.1664
 9767TIP3    H250717   5.265   0.881   0.738 -1.4408 -0.1437 -0.1990
 9768TIP3   OH250718   2.044   2.789   4.081 -0.2101  0.4329  0.2082
 9768TIP3    H150719   2.118   2.729   4.076 -1.0968 -0.6069 -0.7289
 9768TIP3    H250720   1.999   2.765   4.162 -1.8105 -1.7142 -1.2287
 9769TIP3   OH250721   6.573   6.143   2.829 -0.7083  0.5486 -0.1889
 9769TIP3    H150722   6.549   6.194   2.907  0.7486 -0.3512  0.9038
 9769TIP3    H250723   6.493   6.141   2.776 -2.5148 -0.7763  2.3735
 9770TIP3   OH250724   3.240   4.687   4.025 -0.4451  0.0746 -0.2467
 9770TIP3    H150725   3.329   4.653   4.018 -0.7340 -0.5402 -1.3806
 9770TIP3    H250726   3.193   4.620   4.075 -0.3459  0.2522  0.0879
 9771TIP3   OH250727   2.093   1.463  14.873  0.1211  0.1397  0.0845
 9771TIP3    H150728   2.136   1.479  14.789 -2.2590  0.4064 -1.1396
 9771TIP3    H250729   2.131   1.530  14.931  0.7319  0.9112 -1.1535
 9772TIP3   OH250730   6.700   0.554  11.631  0.2352  0.0119 -0.0105
 9772TIP3    H150731   6.723   0.461  11.625 -0.1126 -0.1473  0.9166
 9772TIP3    H250732   6.629   0.564  11.568 -0.4009 -0.5937  0.5802
 9773TIP3   OH250733   5.304   2.306   3.351  0.0743 -0.7380  0.3503
 9773TIP3    H150734   5.294   2.322   3.257 -0.1496 -3.1837 -0.1076
 9773TIP3    H250735   5.215   2.292   3.383  0.2468 -1.0426  0.6969
 9774TIP3   OH250736   2.058   6.722   1.754  0.3193 -0.2058 -0.0708
 9774TIP3    H150737   2.096   6.657   1.813  0.3385 -0.3040 -0.1930
 9774TIP3    H250738   2.072   6.806   1.800 -0.1937 -0.3401  0.3425
 9775TIP3   OH250739   0.585   2.080   1.079 -0.1245 -0.0311 -0.0110
 9775TIP3    H150740   0.592   2.102   1.172 -0.2248 -2.0848  0.5319
 9775TIP3    H250741   0.511   2.132   1.047 -3.4450 -2.8421  2.3045
 9776TIP3   OH250742   5.108   0.818   1.297  0.0697 -0.4743 -0.1701
 9776TIP3    H150743   5.021   0.856   1.311  0.1867 -0.2269 -0.1074
 9776TIP3    H250744   5.112   0.802   1.202  0.3540  0.4960 -0.3282
 9777TIP3   OH250745   5.140   3.979  13.681 -0.3821  0.0347 -0.9838
 9777TIP3    H150746   5.059   4.002  13.634 -0.2087  0.9032 -0.8609
 9777TIP3    H250747   5.172   4.062  13.715  0.9785 -0.1910 -1.6719
 9778TIP3   OH250748   1.162   0.219   2.255 -0.3442  0.2332 -0.2646
 9778TIP3    H150749   1.116   0.165   2.191  0.1455 -0.5201  0.0098
 9778TIP3    H250750   1.092   0.267   2.300 -0.8687 -0.7749  0.0281
 9779TIP3   OH250751   1.648   4.422  13.346 -0.8824 -0.3088 -0.8791
 9779TIP3    H150752   1.693   4.359  13.289  0.8191  0.3832 -0.3783
 9779TIP3    H250753   1.618   4.369  13.420  2.1614 -0.3753  0.4721
 9780TIP3   OH250754   2.508   2.575  12.002  0.2809  0.4405  0.0138
 9780TIP3    H150755   2.446   2.646  12.018  0.1170  0.3334 -0.1437
 9780TIP3    H250756   2.516   2.570  11.907 -0.2230 -0.1854 -0.0058
 9781TIP3   OH250757   5.178   1.421  14.209  0.4759  0.9832  0.2337
 9781TIP3    H150758   5.194   1.439  14.116  2.7941 -0.3507  0.2965
 9781TIP3    H250759   5.196   1.504  14.253  1.8478  0.9983 -0.3046
 9782TIP3   OH250760   0.591   1.682   5.965  0.7822 -0.0402 -0.3176
 9782TIP3    H150761   0.673   1.698   5.919  1.6301 -0.7019  0.8944
 9782TIP3    H250762   0.613   1.691   6.058 -1.2128  2.9696  0.0190
 9783TIP3   OH250763   3.494   4.776  11.245  0.2282  0.2861 -0.0555
 9783TIP3    H150764   3.561   4.749  11.308  1.0453 -1.9197 -1.7066
 9783TIP3    H250765   3.503   4.712  11.173 -2.8388  0.6821 -0.9058
 9784TIP3   OH250766   4.856   4.881   5.912  0.5082  0.0249  0.3760
 9784TIP3    H150767   4.873   4.926   5.994 -0.1794  0.4731  0.2891
 9784TIP3    H250768   4.893   4.794   5.923  0.5494  0.1310  1.1051
 9785TIP3   OH250769   3.532   5.387   6.138 -0.5670  0.2666  0.9275
 9785TIP3    H150770   3.522   5.294   6.162 -1.1463 -0.0360 -0.4323
 9785TIP3    H250771   3.493   5.394   6.051  0.9831  1.4529  0.2858
 9786TIP3   OH250772   3.644   0.488   0.611 -0.1109 -0.3149 -0.1048
 9786TIP3    H150773   3.553   0.465   0.596 -0.6145  1.2194  0.3551
 9786TIP3    H250774   3.642   0.539   0.692  0.4519  3.5460 -2.2882
 9787TIP3   OH250775   4.309   3.696  14.300 -0.2566 -0.0231 -0.4835
 9787TIP3    H150776   4.319   3.741  14.216  0.5234 -0.3233 -0.5628
 9787TIP3    H250777   4.393   3.654  14.314 -1.4172 -2.7579 -1.1505
 9788TIP3   OH250778   0.305   0.681  15.702 -1.0294 -0.3566 -0.0606
 9788TIP3    H150779   0.326   0.596  15.741  1.2401  0.0750 -0.2104
 9788TIP3    H250780   0.385   0.732  15.711 -2.0526  1.4765 -0.7934
 9789TIP3   OH250781   5.796   0.490   1.481 -0.6690  0.0037  0.2488
 9789TIP3    H150782   5.844   0.434   1.541 -0.8688  0.4632  0.8442
 9789TIP3    H250783   5.846   0.486   1.399  1.0073  1.3218  1.1606
 9790TIP3   OH250784   1.583   6.010   3.406 -0.1641 -0.3656  0.4203
 9790TIP3    H150785   1.543   5.948   3.346  1.3643 -0.4360 -0.5853
 9790TIP3    H250786   1.629   6.073   3.350  0.0596  0.4526  1.4731
 9791TIP3   OH250787   6.253   0.105   4.104 -0.3198  0.1581 -0.1418
 9791TIP3    H150788   6.262   0.149   4.188  1.0570  1.1204 -0.7411
 9791TIP3    H250789   6.240   0.176   4.041  2.6994 -0.1176 -1.2385
 9792TIP3   OH250790   1.645   2.428   5.595  0.0995  0.0292 -0.3315
 9792TIP3    H150791   1.651   2.492   5.665  0.9926  0.7856 -1.0808
 9792TIP3    H250792   1.646   2.343   5.640  0.8039  0.4964  0.5569
 9793TIP3   OH250793   2.651   6.223   1.726  0.0017  0.0019 -0.7308
 9793TIP3    H150794   2.563   6.242   1.694 -0.2273  0.2876  0.0617
 9793TIP3    H250795   2.708   6.245   1.651 -0.3082  3.2077 -0.1654
 9794TIP3   OH250796   5.841   0.165   6.134  0.1234  0.0169  0.2318
 9794TIP3    H150797   5.811   0.154   6.224 -0.3134 -2.1809 -0.1246
 9794TIP3    H250798   5.826   0.258   6.114 -1.8830  0.0495  1.6737
 9795TIP3   OH250799   5.254   4.432  16.228 -0.1239 -0.2709 -0.1662
 9795TIP3    H150800   5.347   4.454  16.223 -0.3603  0.7020 -0.6526
 9795TIP3    H250801   5.214   4.509  16.270 -0.7526 -0.5166 -0.3068
 9796TIP3   OH250802   5.870   1.533  13.937 -0.0406  0.3940 -0.4384
 9796TIP3    H150803   5.883   1.445  13.971 -0.0898  0.4034 -0.3959
 9796TIP3    H250804   5.904   1.591  14.005 -0.5332  0.4286 -0.2157
 9797TIP3   OH250805   1.042   2.661   1.427 -0.4640 -0.3872 -0.1991
 9797TIP3    H150806   1.120   2.648   1.373 -1.0905  0.4299 -1.3464
 9797TIP3    H250807   0.985   2.587   1.405 -0.8643  0.1280 -0.9685
 9798TIP3   OH250808   2.015   4.866   2.595 -0.2167  0.1763 -0.7207
 9798TIP3    H150809   1.944   4.844   2.535 -2.9793 -0.2376  2.3766
 9798TIP3    H250810   1.988   4.949   2.635  0.7620 -0.2104  0.8497
 9799TIP3   OH250811   1.423   1.091  11.300  0.0612 -0.8265 -0.2112
 9799TIP3    H150812   1.453   1.027  11.364 -1.2813 -3.0617 -1.6542
 9799TIP3    H250813   1.470   1.068  11.220 -0.6765 -0.2138 -0.8372
 9800TIP3   OH250814   1.478   1.864  12.446 -0.5246 -0.1811  0.2555
 9800TIP3    H150815   1.462   1.897  12.358  0.4450 -1.1097 -0.2997
 9800TIP3    H250816   1.492   1.770  12.434  2.6194  0.0744  0.9467
 9801TIP3   OH250817   3.046   0.670   3.812  0.6230  0.1234  0.6037
 9801TIP3    H150818   3.133   0.666   3.773  1.2743  0.6522  1.9315
 9801TIP3    H250819   3.034   0.762   3.836  0.0891 -0.1030  1.2485
 9802TIP3   OH250820   4.817   1.373  16.893 -0.1232 -0.0624  0.3228
 9802TIP3    H150821   4.826   1.422  16.974  1.0968  2.7841 -1.3790
 9802TIP3    H250822   4.842   1.283  16.915  1.0338  0.8129  2.8628
 9803TIP3   OH250823   3.231   2.719   2.092 -0.3481 -0.3737  0.3543
 9803TIP3    H150824   3.222   2.811   2.120 -2.5288 -0.4496  0.1241
 9803TIP3    H250825   3.142   2.694   2.065  0.4495 -2.1965 -0.7486
 9804TIP3   OH250826   4.404   2.275   4.847 -0.2679  0.0006 -0.9505
 9804TIP3    H150827   4.455   2.227   4.912  1.1204  1.8753 -0.5837
 9804TIP3    H250828   4.371   2.352   4.894 -1.6890 -0.0882 -1.7381
 9805TIP3   OH250829   1.283   6.784  16.420 -0.4233  0.6526  0.0732
 9805TIP3    H150830   1.267   6.797  16.327  0.1208  2.7555  0.2327
 9805TIP3    H250831   1.301   6.872  16.454  1.5877 -0.3151  1.7469
 9806TIP3   OH250832   5.583   3.399  14.620  0.3890 -0.1916  0.3902
 9806TIP3    H150833   5.551   3.488  14.637 -0.6265 -0.5671  0.5322
 9806TIP3    H250834   5.506   3.352  14.588  1.3029 -0.5808 -1.3933
 9807TIP3   OH250835   6.688   1.817   2.939  0.1179  0.0625  0.1870
 9807TIP3    H150836   6.613   1.876   2.941  0.9098  1.0909  0.6139
 9807TIP3    H250837   6.763   1.872   2.960  0.8635 -1.1473  0.8719
 9808TIP3   OH250838   2.126   1.913   0.471  0.4068 -0.3844 -0.8814
 9808TIP3    H150839   2.115   1.867   0.555  1.5525  1.8210  0.5847
 9808TIP3    H250840   2.181   1.854   0.419 -2.2537 -2.8812 -1.0990
 9809TIP3   OH250841   3.641   0.795   4.716 -0.3314  0.5516  0.4476
 9809TIP3    H150842   3.674   0.832   4.797 -1.0573  1.7527  0.2315
 9809TIP3    H250843   3.582   0.862   4.681  1.1683  0.7802 -1.8835
 9810TIP3   OH250844   0.816   3.863   3.416  0.2181  0.0467 -0.0127
 9810TIP3    H150845   0.855   3.795   3.362  1.9631  1.6488 -0.8993
 9810TIP3    H250846   0.731   3.828   3.442  1.8942 -3.4284  1.5226
 9811TIP3   OH250847   0.776   4.464   2.370 -0.7320  0.0368 -0.3918
 9811TIP3    H150848   0.870   4.444   2.371 -0.1784  2.0945 -2.5298
 9811TIP3    H250849   0.740   4.403   2.307 -1.2789 -2.0383  1.7748
 9812TIP3   OH250850   4.324   0.588   2.886 -0.2104 -0.4544  0.0262
 9812TIP3    H150851   4.241   0.549   2.859  0.6161 -1.8306 -0.6320
 9812TIP3    H250852   4.333   0.565   2.978 -1.0082  0.5682  0.3811
 9813TIP3   OH250853   5.588   4.950   2.351  0.4067  0.1375  0.2478
 9813TIP3    H150854   5.587   5.031   2.299  0.8171  0.6351  0.9979
 9813TIP3    H250855   5.497   4.940   2.381  0.3200  0.2256  0.0222
 9814TIP3   OH250856   0.487   2.657  16.084 -0.5838  0.0472  0.3425
 9814TIP3    H150857   0.439   2.659  16.001 -1.1407 -0.8521  0.6372
 9814TIP3    H250858   0.440   2.718  16.140 -1.0437 -0.4111  0.4521
 9815TIP3   OH250859   4.814   0.163  16.316  0.1760 -0.5293  0.4208
 9815TIP3    H150860   4.895   0.213  16.323 -0.1230  0.0915 -0.3034
 9815TIP3    H250861   4.766   0.206  16.245 -0.6069 -1.1371  0.5673
 9816TIP3   OH250862   1.797   6.630   1.659  0.6369  0.4358  0.5696
 9816TIP3    H150863   1.875   6.684   1.650  1.6143 -1.1839 -1.8324
 9816TIP3    H250864   1.817   6.571   1.732  1.2842  0.6252  0.5526
 9817TIP3   OH250865   3.082   6.425   1.630 -0.2748 -0.4386  0.0597
 9817TIP3    H150866   3.140   6.451   1.702  0.6562 -2.2254  0.0276
 9817TIP3    H250867   3.021   6.364   1.669 -0.0541 -1.0697 -0.5586
 9818TIP3   OH250868   5.808   6.579  12.869  0.2171 -0.3537  0.4124
 9818TIP3    H150869   5.748   6.587  12.943 -1.0660  1.0719 -0.7125
 9818TIP3    H250870   5.771   6.509  12.816  0.2333 -0.3060  0.3370
 9819TIP3   OH250871   0.076   4.700   5.674  0.2941 -0.6249 -0.1578
 9819TIP3    H150872   0.152   4.717   5.729  0.5150 -0.3058 -0.5596
 9819TIP3    H250873   0.039   4.786   5.656  1.2148 -0.5521 -1.9194
 9820TIP3   OH250874   3.088   2.154   4.700 -0.6386 -0.9375  0.3103
 9820TIP3    H150875   3.006   2.105   4.707 -0.6580 -0.7663  1.5079
 9820TIP3    H250876   3.134   2.136   4.783  0.1324 -0.3189  0.0328
 9821TIP3   OH250877   0.143   3.192   6.063  0.7659  0.0097 -0.4003
 9821TIP3    H150878   0.200   3.131   6.017  0.7696  0.5838 -1.1868
 9821TIP3    H250879   0.198   3.229   6.131  0.9012 -0.5125 -0.2197
 9822TIP3   OH250880   3.352   2.965   4.171  0.0299  0.1203 -0.0783
 9822TIP3    H150881   3.274   2.919   4.141  0.4800  0.1059 -1.2657
 9822TIP3    H250882   3.321   3.054   4.189 -0.1733  0.2544 -1.0348
 9823TIP3   OH250883   4.927   3.709  13.082  0.4716  0.0743  0.1495
 9823TIP3    H150884   4.959   3.635  13.030 -1.5013 -1.4888  1.0444
 9823TIP3    H250885   4.843   3.680  13.116  1.1701  1.4280  3.3698
 9824TIP3   OH250886   4.051   2.621   5.512  0.0322 -0.0700  0.0792
 9824TIP3    H150887   4.007   2.672   5.444  0.5490  0.0675 -0.1545
 9824TIP3    H250888   4.086   2.545   5.466 -2.0554 -1.4864  0.6682
 9825TIP3   OH250889   3.070   0.754   3.329 -0.2746 -0.0345  0.2568
 9825TIP3    H150890   3.146   0.810   3.312 -0.5601 -0.0859 -1.3426
 9825TIP3    H250891   3.005   0.813   3.368  0.3062  0.1742  0.9342
 9826TIP3   OH250892   3.078   1.857  15.554  0.0214 -0.2357 -0.2651
 9826TIP3    H150893   3.128   1.880  15.632 -0.2888  0.2437 -0.2014
 9826TIP3    H250894   3.142   1.854  15.484  0.4586 -1.6180  0.1752
 9827TIP3   OH250895   3.899   1.285   1.726 -0.5644  0.0567  0.0232
 9827TIP3    H150896   3.960   1.221   1.763  0.2253  0.3283 -0.7795
 9827TIP3    H250897   3.942   1.369   1.736 -0.9412  0.2921 -0.2739
 9828TIP3   OH250898   4.552   1.931   4.649  0.3648 -0.4685  0.0322
 9828TIP3    H150899   4.495   1.889   4.584  3.1215 -0.5266 -2.5955
 9828TIP3    H250900   4.560   2.021   4.618  1.0754 -0.2665  0.7873
 9829TIP3   OH250901   3.450   4.891   3.567 -0.0089 -0.8597  0.7222
 9829TIP3    H150902   3.406   4.810   3.541  0.1478 -0.6149 -0.3323
 9829TIP3    H250903   3.380   4.956   3.573  0.0235 -0.7942  0.3990
 9830TIP3   OH250904   6.585   2.519  12.343 -0.3625 -0.6453 -0.0911
 9830TIP3    H150905   6.557   2.431  12.319  0.0624 -1.2194  1.3742
 9830TIP3    H250906   6.573   2.571  12.264 -0.9864 -1.9315 -0.8720
 9831TIP3   OH250907   3.375   0.410   3.810 -0.7109 -0.0900 -0.3842
 9831TIP3    H150908   3.326   0.490   3.796 -1.5457 -0.5855 -0.3445
 9831TIP3    H250909   3.316   0.340   3.783  0.1079 -0.6828 -0.6965
 9832TIP3   OH250910   3.819   3.437   0.142 -0.4612  0.0225  0.0188
 9832TIP3    H150911   3.807   3.396   0.056  0.8907  0.3118 -0.3316
 9832TIP3    H250912   3.850   3.366   0.198 -1.0054 -0.0888  0.1813
 9833TIP3   OH250913   6.579   3.740   3.577 -0.4809 -0.0825  0.2797
 9833TIP3    H150914   6.669   3.722   3.603 -0.7764 -0.6331  0.9817
 9833TIP3    H250915   6.556   3.820   3.625 -0.5104 -0.1965  0.4562
 9834TIP3   OH250916   2.342   5.741  10.802  0.2141 -0.3782 -0.2530
 9834TIP3    H150917   2.366   5.834  10.793  1.6652 -0.7868 -0.7500
 9834TIP3    H250918   2.413   5.703  10.853  0.3461 -1.5030 -1.2461
 9835TIP3   OH250919   1.005   0.634   3.018 -0.1618  0.1182 -0.3300
 9835TIP3    H150920   0.994   0.628   2.923  1.6392 -0.7706 -0.5293
 9835TIP3    H250921   1.003   0.543   3.048 -0.5298  0.3831  0.4751
 9836TIP3   OH250922   6.796   0.872   5.256 -0.2166  0.5362  0.4362
 9836TIP3    H150923   6.775   0.965   5.249  2.2300  1.2982  2.1575
 9836TIP3    H250924   6.887   0.865   5.230 -1.2365 -2.0633 -3.2805
 9837TIP3   OH250925   0.025   5.848  12.901  0.0219  0.7223 -0.1637
 9837TIP3    H150926  -0.058   5.805  12.879  0.5755 -0.1806 -0.5627
 9837TIP3    H250927   0.091   5.798  12.852  0.7860  1.5080  0.0431
 9838TIP3   OH250928   2.635   5.913   0.465 -0.1096 -0.2668 -0.0834
 9838TIP3    H150929   2.629   5.923   0.560 -0.1055  1.0707 -0.2031
 9838TIP3    H250930   2.726   5.935   0.445 -0.9106  2.9953 -0.7205
 9839TIP3   OH250931   3.873   0.712   2.931 -0.0744 -0.1782  0.9011
 9839TIP3    H150932   3.843   0.796   2.966 -0.9657  0.3255 -0.9197
 9839TIP3    H250933   3.794   0.658   2.928  0.4304 -0.9944  1.7476
 9840TIP3   OH250934   5.311   5.979   5.233  0.3395 -0.7427 -0.9869
 9840TIP3    H150935   5.401   5.976   5.202 -0.3342  0.7361 -3.3639
 9840TIP3    H250936   5.305   5.908   5.296  2.8794 -1.5332 -1.5133
 9841TIP3   OH250937   0.431   0.399  17.052  0.3872 -0.6955 -0.6267
 9841TIP3    H150938   0.346   0.433  17.025  0.1960  0.6056  1.4172
 9841TIP3    H250939   0.480   0.389  16.970 -0.5877  1.7147 -1.5989
 9842TIP3   OH250940   4.765   2.894   5.211 -0.7389  0.8101  0.1899
 9842TIP3    H150941   4.799   2.922   5.126 -0.1227 -0.7458 -0.1088
 9842TIP3    H250942   4.840   2.901   5.271 -0.7476  0.4240  0.2499
 9843TIP3   OH250943   0.957   1.227  13.013  0.1597  0.3858  1.1086
 9843TIP3    H150944   0.988   1.245  13.102  0.2272  0.4235  1.0774
 9843TIP3    H250945   0.864   1.210  13.023  0.1661  0.3969  1.1861
 9844TIP3   OH250946   5.974   0.445   5.196  0.8175 -0.6527 -0.1340
 9844TIP3    H150947   5.923   0.366   5.216  0.1793  0.1458  1.6116
 9844TIP3    H250948   6.044   0.445   5.262 -0.4325  1.2861  1.3081
 9845TIP3   OH250949   6.538   3.833  15.668 -0.7424  0.3389  0.5777
 9845TIP3    H150950   6.487   3.871  15.596 -1.1095  1.0397  1.1883
 9845TIP3    H250951   6.472   3.804  15.731 -0.4101  1.3359  1.4172
 9846TIP3   OH250952   5.689   5.484   4.075  0.4582  0.3201  0.1739
 9846TIP3    H150953   5.717   5.573   4.055 -0.3721  0.4235 -0.5761
 9846TIP3    H250954   5.658   5.487   4.165  3.2525  0.0957  1.2615
 9847TIP3   OH250955   0.808   4.366  11.783  0.1362 -0.6071 -0.3581
 9847TIP3    H150956   0.776   4.289  11.829 -0.1557 -0.6874 -0.6898
 9847TIP3    H250957   0.865   4.332  11.715  1.5850 -0.4322  0.7069
 9848TIP3   OH250958   5.598   6.093   2.859 -0.2417  0.5643 -0.0714
 9848TIP3    H150959   5.677   6.038   2.853 -0.4633 -0.2048  2.6889
 9848TIP3    H250960   5.540   6.059   2.790  0.7229 -0.7793 -0.2781
 9849TIP3   OH250961   3.153   3.581  11.287  0.6098  0.0763  0.2077
 9849TIP3    H150962   3.198   3.497  11.296  0.5079 -0.1501 -1.1964
 9849TIP3    H250963   3.061   3.559  11.297  0.6045  0.0827  0.1683
 9850TIP3   OH250964   1.531   1.832   0.789  0.3367 -0.7135 -0.4285
 9850TIP3    H150965   1.623   1.857   0.795 -0.1483  0.9366  3.1482
 9850TIP3    H250966   1.486   1.912   0.764 -0.4649  0.0016  2.8475
 9851TIP3   OH250967   4.418   2.158  13.736 -0.5604 -0.1051 -0.0504
 9851TIP3    H150968   4.351   2.225  13.752  2.1502  2.5897  0.8838
 9851TIP3    H250969   4.488   2.204  13.691  1.7117 -2.1445  1.1617
 9852TIP3   OH250970   5.370   5.899  12.976 -0.0199  0.0485 -0.5851
 9852TIP3    H150971   5.332   5.812  12.970  1.0008 -0.4173 -0.5615
 9852TIP3    H250972   5.364   5.934  12.886  0.0702 -0.2683 -0.7159
 9853TIP3   OH250973   4.364   2.864   5.967  0.1459 -0.1738 -0.6562
 9853TIP3    H150974   4.273   2.895   5.967 -0.0382 -0.6311  0.7313
 9853TIP3    H250975   4.358   2.774   5.999  1.3263  0.6980  2.3457
 9854TIP3   OH250976   4.439   6.651   3.222 -0.2169 -0.0357 -0.0931
 9854TIP3    H150977   4.361   6.689   3.181  0.4455  0.0035 -1.3589
 9854TIP3    H250978   4.420   6.558   3.229 -0.6279  0.0659  0.2057
 9855TIP3   OH250979   0.897   4.947  12.572  0.4880  0.1482 -0.1108
 9855TIP3    H150980   0.979   4.897  12.568  0.5227  0.2192 -0.2823
 9855TIP3    H250981   0.899   5.002  12.493 -0.8714 -1.5944 -1.4200
 9856TIP3   OH250982   2.111   3.268  12.365  0.2801 -0.1099 -0.1211
 9856TIP3    H150983   2.088   3.222  12.446  1.1260  0.2322  0.3203
 9856TIP3    H250984   2.186   3.322  12.388 -0.3406  1.0715 -0.7776
 9857TIP3   OH250985   5.321   4.325   3.944  0.0461  0.4138 -0.0924
 9857TIP3    H150986   5.321   4.403   3.888  2.2387 -0.9554 -2.1753
 9857TIP3    H250987   5.396   4.336   4.001 -0.6731  0.5838  0.8531
 9858TIP3   OH250988   0.441   3.710   3.813  0.1670  0.2777 -0.3749
 9858TIP3    H150989   0.362   3.665   3.843  0.4992 -0.0799 -0.0185
 9858TIP3    H250990   0.509   3.642   3.816  0.7582  0.8841  0.4914
 9859TIP3   OH250991   0.715   6.393  14.026  0.7523 -0.0639  0.5281
 9859TIP3    H150992   0.803   6.366  14.054  1.3665  0.9868 -0.3085
 9859TIP3    H250993   0.656   6.356  14.091  2.0033  1.1941  2.4668
 9860TIP3   OH250994   3.489   5.532   3.813  0.7373 -0.4384 -0.3953
 9860TIP3    H150995   3.452   5.520   3.901  3.3156 -0.3029  0.7941
 9860TIP3    H250996   3.425   5.587   3.768 -0.8833 -0.8828  1.2242
 9861TIP3   OH250997   5.043   3.188  12.603 -0.1387 -0.4127  0.4087
 9861TIP3    H150998   5.090   3.123  12.654  0.3927 -0.6503 -0.3777
 9861TIP3    H250999   5.072   3.175  12.513 -1.2434 -0.1568 -0.0052
 9862TIP3   OH251000   4.092   6.786  11.920 -0.4251 -0.0693 -0.1958
 9862TIP3    H151001   4.056   6.872  11.944  1.9058  0.3957  2.2044
 9862TIP3    H251002   4.070   6.730  11.994 -0.8473 -1.2218 -1.1779
 9863TIP3   OH251003   2.934   5.282   4.858 -0.8690  0.1910  0.0669
 9863TIP3    H151004   2.855   5.268   4.805 -0.8834 -0.0601  0.1526
 9863TIP3    H251005   2.988   5.342   4.806 -1.8316  1.6940  0.7337
 9864TIP3   OH251006   3.925   6.226  15.219  0.0508  0.1376 -0.5355
 9864TIP3    H151007   3.894   6.283  15.290 -0.9644 -1.3977  0.3069
 9864TIP3    H251008   3.849   6.174  15.195  1.2818 -1.9014 -0.2465
 9865TIP3   OH251009   0.694   5.075   2.508 -0.1709 -0.3363 -0.4194
 9865TIP3    H151010   0.651   5.057   2.424  1.0184 -0.2666 -1.0625
 9865TIP3    H251011   0.691   4.992   2.554  0.0578 -0.6450 -0.9513
 9866TIP3   OH251012   0.566   5.312  16.986  0.3902  0.2195  0.0482
 9866TIP3    H151013   0.474   5.322  16.962 -0.1519  0.7057  2.1275
 9866TIP3    H251014   0.611   5.296  16.903 -1.4041  1.0465 -1.1491
 9867TIP3   OH251015   5.150   4.316   0.115  0.3441 -0.5163  0.0324
 9867TIP3    H151016   5.179   4.254   0.182 -1.6673  0.1416  1.6226
 9867TIP3    H251017   5.139   4.399   0.162 -0.7559  0.0630 -1.1837
 9868TIP3   OH251018   4.269   3.675   2.618  0.0467 -0.5161  0.5079
 9868TIP3    H151019   4.264   3.669   2.523  2.5953 -0.3144  0.2822
 9868TIP3    H251020   4.224   3.597   2.650  1.4787 -2.0350 -0.9979
 9869TIP3   OH251021   0.432   6.190  14.766 -0.5951 -0.6573 -0.0241
 9869TIP3    H151022   0.429   6.276  14.724 -3.1150 -0.3065  0.6812
 9869TIP3    H251023   0.515   6.153  14.738  1.6521  2.8131  1.3790
 9870TIP3   OH251024   3.645   2.567   4.062 -0.1337 -0.5656 -0.3403
 9870TIP3    H151025   3.655   2.489   4.116 -0.0032  0.1502  0.6953
 9870TIP3    H251026   3.734   2.588   4.033  0.1363  0.3337  1.0442
 9871TIP3   OH251027   6.699   5.516  16.446 -0.1465 -0.0860  0.2482
 9871TIP3    H151028   6.620   5.529  16.394 -0.6840  2.6533  1.5699
 9871TIP3    H251029   6.679   5.439  16.500 -1.3626 -0.2486 -0.3972
 9872TIP3   OH251030   3.365   6.207   1.292  0.0440  0.3521 -0.9842
 9872TIP3    H151031   3.295   6.262   1.326  0.9899  0.9474  0.0561
 9872TIP3    H251032   3.376   6.139   1.359  1.5618  1.2240 -0.3057
 9873TIP3   OH251033   6.729   4.842  12.158 -0.3773 -0.0313 -0.3384
 9873TIP3    H151034   6.760   4.930  12.137  0.7593 -0.8307 -2.3336
 9873TIP3    H251035   6.790   4.810  12.224 -0.4203  0.4410 -0.0650
 9874TIP3   OH251036   2.192   4.539  16.708  0.2102 -0.0699 -0.4879
 9874TIP3    H151037   2.189   4.631  16.684 -0.5447  0.3903  1.1909
 9874TIP3    H251038   2.247   4.536  16.787 -1.1328 -0.7684  0.4745
 9875TIP3   OH251039   6.610   2.011  16.004 -0.1165 -0.4005  0.5840
 9875TIP3    H151040   6.662   2.046  15.932 -0.1516  0.2525  0.8722
 9875TIP3    H251041   6.522   2.002  15.967 -0.1883  0.1604  0.6160
 9876TIP3   OH251042   1.271   0.522   4.595 -1.0578 -0.0022  0.8348
 9876TIP3    H151043   1.218   0.564   4.527  1.1052  1.3865 -0.0935
 9876TIP3    H251044   1.301   0.594   4.650 -1.8899 -0.9991  2.6993
 9877TIP3   OH251045   0.009   2.242   3.304 -0.1812  0.1945 -0.3458
 9877TIP3    H151046   0.000   2.192   3.223 -0.2092  0.6239 -0.6145
 9877TIP3    H251047   0.069   2.314   3.281  1.2241 -0.6588  0.4811
 9878TIP3   OH251048   1.248   1.208   0.792  0.6311  0.4975 -0.1621
 9878TIP3    H151049   1.317   1.159   0.837 -0.0408 -0.3374  0.0015
 9878TIP3    H251050   1.262   1.299   0.818  1.2762  0.2523  0.3899
 9879TIP3   OH251051   3.878   2.874   1.444 -0.0365 -0.5505 -0.1418
 9879TIP3    H151052   3.880   2.806   1.511 -0.1773 -1.0997 -0.6722
 9879TIP3    H251053   3.785   2.899   1.439  0.3020  1.2427  1.5437
 9880TIP3   OH251054   0.365   5.224  15.470 -0.2061  0.1715 -0.4890
 9880TIP3    H151055   0.436   5.217  15.533 -0.4498  1.2445 -0.0771
 9880TIP3    H251056   0.405   5.263  15.393 -0.4756  1.4467 -0.0056
 9881TIP3   OH251057   5.836   4.953  11.755 -0.6227 -0.0623  0.5907
 9881TIP3    H151058   5.886   4.972  11.676  0.6551  1.4571  1.6955
 9881TIP3    H251059   5.748   4.931  11.723 -0.2720  0.9848 -1.2235
 9882TIP3   OH251060   4.975   2.977   5.416  0.2143  0.0339  0.4880
 9882TIP3    H151061   4.981   3.023   5.500 -0.1042 -0.2253  0.6503
 9882TIP3    H251062   4.988   2.885   5.437  1.1672  0.0650  0.1211
 9883TIP3   OH251063   4.534   0.637  16.951  0.2472 -0.7838  0.3217
 9883TIP3    H151064   4.549   0.692  17.028 -0.4378 -1.2277  0.7969
 9883TIP3    H251065   4.621   0.620  16.916  0.4938  0.3073  0.3656
 9884TIP3   OH251066   2.071   2.377   0.455 -0.2510 -0.1761 -0.0272
 9884TIP3    H151067   2.073   2.435   0.530 -1.6763  2.0454 -1.5845
 9884TIP3    H251068   2.134   2.413   0.394  0.0227 -1.2365 -0.4017
 9885TIP3   OH251069   3.528   1.210  11.788 -0.3023 -0.6460  0.4330
 9885TIP3    H151070   3.479   1.155  11.726  0.2689 -1.5834  0.7846
 9885TIP3    H251071   3.601   1.154  11.817  1.0767  0.7670 -0.1941
 9886TIP3   OH251072   5.008   0.270   4.627 -0.7901 -0.4940 -0.7912
 9886TIP3    H151073   5.002   0.175   4.626 -0.0455 -0.5451 -2.0905
 9886TIP3    H251074   5.031   0.292   4.718 -0.8490 -1.5498 -0.5138
 9887TIP3   OH251075   5.013   2.285   6.696  0.7535  0.9167 -0.1120
 9887TIP3    H151076   4.940   2.341   6.670  1.5509  1.5026 -1.1667
 9887TIP3    H251077   4.976   2.225   6.761 -0.8730  0.6653 -1.2192
 9888TIP3   OH251078   2.824   1.170   3.640  0.4975  0.0654  0.0452
 9888TIP3    H151079   2.865   1.226   3.705  0.1490  0.9286 -0.4625
 9888TIP3    H251080   2.789   1.096   3.691 -0.5598  1.1597  0.9873
 9889TIP3   OH251081   3.020   2.601  11.248  0.6270  0.4839  0.2222
 9889TIP3    H151082   3.057   2.657  11.179  0.2317 -2.1113 -2.3215
 9889TIP3    H251083   2.984   2.662  11.312  2.4480  3.0895 -1.0511
 9890TIP3   OH251084   1.250   5.963  16.339  0.4690  0.3415 -0.5529
 9890TIP3    H151085   1.226   6.020  16.412 -0.1613 -0.0429 -0.4470
 9890TIP3    H251086   1.182   5.979  16.272  1.0407  0.6939 -1.0566
 9891TIP3   OH251087   3.663   3.921  15.547 -0.5005 -0.3829  0.0398
 9891TIP3    H151088   3.585   3.975  15.556 -0.4471  0.1144 -1.9945
 9891TIP3    H251089   3.728   3.962  15.605 -0.8892  0.9178 -0.4106
 9892TIP3   OH251090   1.752   4.783  10.715 -0.3522 -0.7716 -0.5395
 9892TIP3    H151091   1.830   4.745  10.675 -1.6686 -1.3889 -2.7088
 9892TIP3    H251092   1.731   4.858  10.659 -0.9450 -0.2249  0.3946
 9893TIP3   OH251093   1.709   6.422   1.013  0.5596 -0.0382 -0.0830
 9893TIP3    H151094   1.742   6.405   1.101 -0.2835 -0.6499  0.1272
 9893TIP3    H251095   1.771   6.379   0.954  1.7707  1.3434  0.1287
 9894TIP3   OH251096   5.478   4.252   2.810  0.2847  0.1654  0.1727
 9894TIP3    H151097   5.448   4.212   2.728  0.0922  2.0118 -0.7141
 9894TIP3    H251098   5.434   4.337   2.813  1.3371  0.7119  1.5117
 9895TIP3   OH251099   0.767   2.241   0.072  0.0401  0.1629 -0.1117
 9895TIP3    H151100   0.845   2.296   0.074  0.6290 -0.6750  0.8088
 9895TIP3    H251101   0.701   2.292   0.118  0.1144  0.7675 -0.6693
 9896TIP3   OH251102   1.083   3.788  12.294 -0.3398 -0.7751 -0.1635
 9896TIP3    H151103   0.999   3.833  12.303  1.3157  2.5120  0.4375
 9896TIP3    H251104   1.084   3.724  12.364 -2.1236 -0.5097  0.1370
 9897TIP3   OH251105   5.607   2.916  15.854 -0.2278 -0.4702 -0.3815
 9897TIP3    H151106   5.560   2.968  15.789 -0.1165 -0.5130 -0.4965
 9897TIP3    H251107   5.615   2.829  15.814 -1.6056 -0.9771  0.3429
 9898TIP3   OH251108   5.962   1.694   1.714 -0.5839 -0.3570  0.0435
 9898TIP3    H151109   5.875   1.681   1.675  0.8993  1.0118 -4.2608
 9898TIP3    H251110   6.016   1.625   1.675  1.1564  1.4243 -0.8275
 9899TIP3   OH251111   6.603   3.134  14.015  0.3280  0.0849 -0.5122
 9899TIP3    H151112   6.664   3.145  13.942 -1.4502 -0.4558 -2.1762
 9899TIP3    H251113   6.580   3.041  14.012  0.5888 -0.0552  1.0832
 9900TIP3   OH251114   4.991   2.508  11.994  0.2434 -0.6922 -0.0989
 9900TIP3    H151115   4.918   2.461  11.953  0.6585 -0.5594 -1.0252
 9900TIP3    H251116   4.984   2.487  12.087 -1.8597  0.5225  0.0666
 9901TIP3   OH251117   5.056   0.392  13.397  0.1837 -0.3799 -0.1790
 9901TIP3    H151118   4.966   0.363  13.379  0.4813 -1.4437 -0.0147
 9901TIP3    H251119   5.062   0.478  13.356 -1.3776  0.3881  1.0630
 9902TIP3   OH251120   4.459   5.711   5.885  0.3628  0.3189 -0.3683
 9902TIP3    H151121   4.468   5.746   5.974 -0.5912  3.1724 -1.2922
 9902TIP3    H251122   4.543   5.730   5.843  0.1017  0.8144 -0.6655
 9903TIP3   OH251123   4.596   3.764  15.223 -0.0114 -0.0283  0.9770
 9903TIP3    H151124   4.591   3.858  15.240  0.1697  0.1551  0.0963
 9903TIP3    H251125   4.689   3.743  15.231 -0.1208 -0.2415  1.7019
 9904TIP3   OH251126   3.853   0.493  13.087  0.1389 -0.3245  0.2811
 9904TIP3    H151127   3.770   0.455  13.060 -0.7366  1.0542  0.9381
 9904TIP3    H251128   3.860   0.574  13.037  1.2330 -0.5349  0.0534
 9905TIP3   OH251129   2.445   6.645   0.906  0.5008  0.3142 -0.8048
 9905TIP3    H151130   2.357   6.660   0.872 -0.2541  1.8770  1.5999
 9905TIP3    H251131   2.462   6.552   0.890 -1.9619 -0.2557 -0.5150
 9906TIP3   OH251132   0.133   6.401  11.908 -0.0339  0.2124 -0.1150
 9906TIP3    H151133   0.200   6.343  11.872 -0.6244  0.5788 -1.9196
 9906TIP3    H251134   0.092   6.350  11.978  0.4017 -1.0156 -0.7317
 9907TIP3   OH251135   6.147   3.253   5.248 -0.6520 -0.8644  0.5341
 9907TIP3    H151136   6.196   3.175   5.274 -0.6947 -2.2700 -3.0287
 9907TIP3    H251137   6.064   3.218   5.214 -1.5805  0.9688  0.7836
 9908TIP3   OH251138   6.171   3.575   4.070  0.0655  0.1407  0.1551
 9908TIP3    H151139   6.243   3.638   4.069 -0.2992  0.6062  1.5194
 9908TIP3    H251140   6.092   3.628   4.058 -0.1001 -0.3199 -0.9124
 9909TIP3   OH251141   5.092   0.098  14.436 -0.0437  0.3099  0.3938
 9909TIP3    H151142   5.166   0.124  14.382 -0.7498  2.1388  0.2479
 9909TIP3    H251143   5.132   0.065  14.517  0.9524  2.1795  0.7180
 9910TIP3   OH251144   4.521   1.919  14.268 -0.6419  0.3909  0.4953
 9910TIP3    H151145   4.433   1.883  14.265 -0.4711  0.0284 -0.2269
 9910TIP3    H251146   4.544   1.918  14.361 -1.5398  0.8552  0.7337
 9911TIP3   OH251147   3.679   5.415  11.981 -0.0417  0.3421 -0.7543
 9911TIP3    H151148   3.612   5.411  12.049  0.6068  2.1033  0.0307
 9911TIP3    H251149   3.754   5.458  12.022  1.1661 -0.5324 -1.9548
 9912TIP3   OH251150   5.159   5.932  16.197  0.7862  0.3851 -0.2977
 9912TIP3    H151151   5.228   5.867  16.180  0.5074  0.2588 -0.9690
 9912TIP3    H251152   5.187   5.975  16.278  1.8224  0.5532 -0.7227
 9913TIP3   OH251153   6.186   3.556  16.136 -0.0993 -0.0160 -0.8633
 9913TIP3    H151154   6.139   3.482  16.097 -0.0845 -0.2842 -0.3856
 9913TIP3    H251155   6.229   3.599  16.063 -0.2934 -0.3504 -1.1762
 9914TIP3   OH251156   2.942   3.367   0.227  0.1802  0.5999 -0.4723
 9914TIP3    H151157   3.034   3.341   0.234  0.0854 -0.0341 -1.2855
 9914TIP3    H251158   2.933   3.397   0.137 -0.3086  1.0779 -0.2640
 9915TIP3   OH251159   1.284   3.826   1.803 -0.3442 -0.4095 -0.2555
 9915TIP3    H151160   1.333   3.823   1.885 -1.5471  1.1166  0.5549
 9915TIP3    H251161   1.310   3.746   1.757 -1.6151 -2.7667  2.7658
 9916TIP3   OH251162   3.826   6.296   5.958 -0.1324  0.0009  0.4216
 9916TIP3    H151163   3.840   6.327   5.868 -0.7838  0.5016  0.4865
 9916TIP3    H251164   3.863   6.366   6.013  0.8572 -0.6009  0.5495
 9917TIP3   OH251165   0.301   6.176   1.088  0.3061  0.4110  0.0855
 9917TIP3    H151166   0.289   6.104   1.150 -1.5861  0.6743  0.0843
 9917TIP3    H251167   0.219   6.180   1.040  1.0384  1.4453 -1.1423
 9918TIP3   OH251168   3.287   6.373  15.259 -0.3132  0.0933 -0.2424
 9918TIP3    H151169   3.331   6.354  15.175 -1.5261 -0.4269 -0.7789
 9918TIP3    H251170   3.352   6.423  15.308  0.5935  0.0347 -1.3219
 9919TIP3   OH251171   2.068   3.814   5.059 -0.0545 -0.3458 -0.1082
 9919TIP3    H151172   2.076   3.783   4.968  1.7296 -0.1614 -0.0617
 9919TIP3    H251173   2.004   3.756   5.099 -0.9304 -0.3795 -1.5080
 9920TIP3   OH251174   4.344   2.695  13.854 -0.3195  0.2848  0.5941
 9920TIP3    H151175   4.406   2.716  13.784 -0.5912  0.1338  0.3046
 9920TIP3    H251176   4.346   2.771  13.912  3.1653 -1.2982  2.8387
 9921TIP3   OH251177   0.667   0.057   2.653  0.2115 -0.0763 -0.2771
 9921TIP3    H151178   0.712   0.002   2.717  0.6612  0.8925  0.2469
 9921TIP3    H251179   0.661   0.002   2.575  0.9039 -0.7676  0.1460
 9922TIP3   OH251180   4.410   0.132  12.834 -0.0763 -0.1131  0.5030
 9922TIP3    H151181   4.318   0.131  12.806  0.1397 -0.7446 -0.2321
 9922TIP3    H251182   4.428   0.224  12.853 -0.9290 -0.0194  0.8921
 9923TIP3   OH251183   3.658   3.155  16.695 -0.1971 -0.0567  0.4338
 9923TIP3    H151184   3.705   3.237  16.681 -0.6990 -0.0721 -1.7757
 9923TIP3    H251185   3.579   3.181  16.743 -0.8170  0.9459 -1.0589
 9924TIP3   OH251186   4.424   3.699  13.430 -0.0817  0.1273 -0.0199
 9924TIP3    H151187   4.361   3.737  13.491 -0.1891 -2.5307  1.7278
 9924TIP3    H251188   4.373   3.633  13.382  1.0257 -1.1450  0.4871
 9925TIP3   OH251189   2.202   0.962  15.773  0.2918  0.2067  0.6422
 9925TIP3    H151190   2.282   0.994  15.814  0.6597  0.2237 -0.0644
 9925TIP3    H251191   2.228   0.939  15.684 -0.4498  0.0370  0.4582
 9926TIP3   OH251192   4.008   0.933  17.014 -0.1808  0.2769 -0.2405
 9926TIP3    H151193   3.986   0.932  16.921 -0.8080  1.4970 -0.1349
 9926TIP3    H251194   4.069   1.007  17.023  1.8745 -1.3620 -0.0626
 9927TIP3   OH251195   6.406   4.052  13.271  1.3835  0.2801  0.1520
 9927TIP3    H151196   6.334   4.115  13.261 -0.0707 -0.8861  2.3789
 9927TIP3    H251197   6.475   4.102  13.315  0.1387  0.3601  2.1556
 9928TIP3   OH251198   0.336   5.753   3.226  0.0148 -0.2648 -0.5864
 9928TIP3    H151199   0.382   5.797   3.154 -0.6298  0.5912 -0.4840
 9928TIP3    H251200   0.373   5.790   3.305  0.6451 -1.1296 -0.4586
 9929TIP3   OH251201   3.933   1.151  15.047 -0.5599 -0.7221 -0.2836
 9929TIP3    H151202   4.002   1.164  14.982 -1.2343 -2.5010 -1.4384
 9929TIP3    H251203   3.855   1.191  15.007 -0.5968 -0.2412  0.2514
 9930TIP3   OH251204   4.782   2.722  13.594 -0.1375  0.0906 -0.2919
 9930TIP3    H151205   4.842   2.703  13.522 -0.4439 -4.0399  0.2737
 9930TIP3    H251206   4.700   2.745  13.551  0.4049  0.4255 -1.1861
 9931TIP3   OH251207   0.961   0.950  12.237  0.6377  0.2394 -0.0992
 9931TIP3    H151208   1.046   0.907  12.232  0.1226 -0.6960 -2.8308
 9931TIP3    H251209   0.944   0.980  12.147 -1.6636  0.9152  0.4831
 9932TIP3   OH251210   1.902   3.543   1.166 -0.3981 -0.1428 -0.5329
 9932TIP3    H151211   1.813   3.549   1.202  0.4400 -3.3709  2.6232
 9932TIP3    H251212   1.951   3.610   1.215 -0.5707 -0.1291 -0.3730
 9933TIP3   OH251213   4.745   2.110   5.405 -0.1807 -0.5217  0.4944
 9933TIP3    H151214   4.799   2.044   5.449 -0.2742 -1.0236 -0.1302
 9933TIP3    H251215   4.799   2.141   5.332 -0.2660 -0.1380  0.5896
 9934TIP3   OH251216   5.951   4.200  14.606  0.2235 -0.2177 -0.0247
 9934TIP3    H151217   6.035   4.245  14.603 -0.2343  0.6382 -1.0184
 9934TIP3    H251218   5.966   4.123  14.660  1.3211  0.5727  0.8369
 9935TIP3   OH251219   2.498   1.339   3.838  0.1359  0.4694 -1.1328
 9935TIP3    H151220   2.456   1.382   3.913  2.2490  1.0758 -0.2305
 9935TIP3    H251221   2.501   1.406   3.771  0.6250  0.7658 -0.8189
 9936TIP3   OH251222   4.863   3.701  14.623  0.4596 -0.4618  1.1631
 9936TIP3    H151223   4.788   3.643  14.613  0.0026  0.2462  0.3827
 9936TIP3    H251224   4.936   3.642  14.643  0.8471 -1.8051 -3.1340
 9937TIP3   OH251225   2.763   1.740   0.272  0.1783  0.1023  0.1258
 9937TIP3    H151226   2.693   1.676   0.258 -0.4864  1.1120 -1.4276
 9937TIP3    H251227   2.844   1.690   0.263 -0.3097 -1.0268  1.6644
 9938TIP3   OH251228   6.555   0.377  15.323  0.1424  0.2048 -0.1333
 9938TIP3    H151229   6.486   0.444  15.326  0.2549  0.6707 -3.7142
 9938TIP3    H251230   6.636   0.428  15.321  0.2899 -0.0379 -1.2574
 9939TIP3   OH251231   5.872   2.474   0.930 -0.5815 -0.1749 -0.0808
 9939TIP3    H151232   5.903   2.562   0.954  0.5591 -0.8526  1.0760
 9939TIP3    H251233   5.948   2.431   0.892  0.0142 -1.8179  2.6684
 9940TIP3   OH251234   0.026   3.198   2.879  0.0198  0.5345  0.3895
 9940TIP3    H151235   0.048   3.226   2.790 -1.8577 -1.2433 -0.7208
 9940TIP3    H251236   0.038   3.103   2.877 -2.1070  0.1885  1.3469
 9941TIP3   OH251237   6.508   2.324   0.033  0.0216 -0.2826  0.4981
 9941TIP3    H151238   6.537   2.246   0.080  1.6391 -0.9620 -1.4495
 9941TIP3    H251239   6.588   2.376   0.020 -0.7632  0.9636  0.4245
 9942TIP3   OH251240   5.644   1.364  15.869  0.2056  0.1765  0.2730
 9942TIP3    H151241   5.652   1.459  15.853  0.9810 -0.1634 -1.7407
 9942TIP3    H251242   5.556   1.343  15.839  0.3416  0.1423 -0.1164
 9943TIP3   OH251243   4.831   5.436  16.764 -0.2197 -0.1267 -0.1329
 9943TIP3    H151244   4.883   5.391  16.698 -0.6409 -2.2037  0.8640
 9943TIP3    H251245   4.855   5.394  16.846 -1.1510  1.0449  0.7851
 9944TIP3   OH251246   5.092   2.596   3.995 -0.4827  0.2265  0.0479
 9944TIP3    H151247   5.051   2.591   4.081  1.0171  1.3380  0.8853
 9944TIP3    H251248   5.179   2.557   4.007 -0.6715 -0.6721 -1.2692
 9945TIP3   OH251249   4.472   6.396  13.619 -0.5355 -0.3453  0.0789
 9945TIP3    H151250   4.556   6.442  13.625  0.3517 -1.4419 -2.5297
 9945TIP3    H251251   4.493   6.305  13.638 -1.3378 -0.4703  0.3946
 9946TIP3   OH251252   5.400   2.507   2.212  0.2076 -0.0486  0.6474
 9946TIP3    H151253   5.455   2.522   2.289  0.3486  0.6493  0.4224
 9946TIP3    H251254   5.346   2.432   2.236  1.1649 -0.6708  0.9158
 9947TIP3   OH251255   1.868   4.614  16.044 -0.1835  0.8740  0.1438
 9947TIP3    H151256   1.943   4.599  15.986  1.1969 -1.2808  2.2988
 9947TIP3    H251257   1.905   4.659  16.120 -1.6822  2.3267  0.0769
 9948TIP3   OH251258   4.918   5.762   2.381  0.1381 -0.4612 -0.4239
 9948TIP3    H151259   4.931   5.807   2.464 -0.0851 -0.2097 -0.5231
 9948TIP3    H251260   4.859   5.690   2.402 -1.0458  0.4205 -0.6152
 9949TIP3   OH251261   0.432   4.191   2.010 -0.0267  0.0112 -0.4244
 9949TIP3    H151262   0.393   4.276   1.992  0.3721 -0.1093 -2.0005
 9949TIP3    H251263   0.471   4.200   2.097 -1.6197  0.8214  0.2490
 9950TIP3   OH251264   1.996   1.116  14.117 -0.1585  0.6594  0.0217
 9950TIP3    H151265   2.079   1.096  14.160 -0.8024  0.3921  1.2094
 9950TIP3    H251266   1.930   1.077  14.174 -1.1201  1.1628 -0.7115
 9951TIP3   OH251267   3.213   4.130   4.437  0.2306 -0.3211  0.1583
 9951TIP3    H151268   3.260   4.048   4.429 -0.6246 -0.7250 -0.9142
 9951TIP3    H251269   3.137   4.109   4.492  0.5717  0.0087  0.7643
 9952TIP3   OH251270   4.145   3.729  11.865  0.5109 -0.5979 -0.0482
 9952TIP3    H151271   4.204   3.654  11.870  0.3214 -0.7787 -0.4626
 9952TIP3    H251272   4.084   3.716  11.938  1.6919  0.2205  1.1236
 9953TIP3   OH251273   4.507   6.307   5.915  0.1173  0.3308  0.0762
 9953TIP3    H151274   4.421   6.348   5.914 -0.3018 -0.5112  0.2879
 9953TIP3    H251275   4.519   6.278   6.005 -0.0384 -0.8905 -0.2789
 9954TIP3   OH251276   5.642   5.868   3.340 -0.6600 -0.1821  0.2788
 9954TIP3    H151277   5.726   5.825   3.356 -1.1112 -0.7025  1.3939
 9954TIP3    H251278   5.666   5.957   3.315  0.2323  0.1903  2.2270
 9955TIP3   OH251279   4.808   1.695  13.704  0.1368 -0.4603 -0.0046
 9955TIP3    H151280   4.735   1.677  13.644 -0.0470 -2.7362  0.8220
 9955TIP3    H251281   4.883   1.653  13.664  0.9707  1.4867 -0.6124
 9956TIP3   OH251282   4.662   1.199  15.296  0.8164  0.3231 -0.2405
 9956TIP3    H151283   4.583   1.147  15.310 -0.6732  2.2143 -1.2052
 9956TIP3    H251284   4.632   1.290  15.299  3.0897  1.1289  0.0296
 9957TIP3   OH251285   1.317   6.022   0.048  0.1908 -0.5154  0.0535
 9957TIP3    H151286   1.398   6.062   0.014 -0.1197  0.2942  0.2390
 9957TIP3    H251287   1.306   5.942  -0.004 -0.6417  1.0210 -2.2974
 9958TIP3   OH251288   4.633   3.731  13.248  0.4584  0.4483  0.5975
 9958TIP3    H151289   4.641   3.647  13.201 -0.3519  0.9739 -0.5368
 9958TIP3    H251290   4.569   3.714  13.316 -1.6466  0.7303 -1.1930
 9959TIP3   OH251291   0.592   2.421   3.525 -0.4455 -0.4022  0.4258
 9959TIP3    H151292   0.685   2.433   3.544 -0.3238 -0.8862  0.1662
 9959TIP3    H251293   0.547   2.486   3.578  0.1004  0.4507 -0.1418
 9960TIP3   OH251294   0.185   6.509  13.318 -0.3379  0.1826  0.6592
 9960TIP3    H151295   0.180   6.505  13.413  3.1186  1.2615  1.0293
 9960TIP3    H251296   0.251   6.443  13.295 -0.5236  0.4938 -0.8930
 9961TIP3   OH251297   6.257   1.793  16.448  0.2327  0.1495  0.1063
 9961TIP3    H151298   6.305   1.875  16.429 -1.7148  1.0650 -1.1390
 9961TIP3    H251299   6.227   1.804  16.538 -0.9982  1.3707 -0.4193
 9962TIP3   OH251300   1.389   4.525  11.590 -0.2236  0.1594  0.4460
 9962TIP3    H151301   1.422   4.435  11.589  1.4106  0.7212  0.8285
 9962TIP3    H251302   1.399   4.555  11.500  0.0226  0.2167  0.4903
 9963TIP3   OH251303   3.848   4.038   2.560 -0.3828  0.5737 -0.2536
 9963TIP3    H151304   3.871   4.103   2.493  0.0406 -0.3097 -0.9823
 9963TIP3    H251305   3.919   3.974   2.557 -1.4424 -0.6485 -0.4996
 9964TIP3   OH251306   5.767   5.896  14.110  0.1936  0.3918 -0.4550
 9964TIP3    H151307   5.855   5.859  14.106  0.6372  1.4400 -0.7857
 9964TIP3    H251308   5.753   5.934  14.023 -0.8472 -0.3202 -0.6205
 9965TIP3   OH251309   4.768   0.047   0.342 -0.1091 -0.6866  0.0242
 9965TIP3    H151310   4.859   0.050   0.371 -0.2712  1.6152  0.4441
 9965TIP3    H251311   4.718   0.075   0.418 -0.9951 -0.0084 -0.7819
 9966TIP3   OH251312   2.420   1.661  17.085  0.0070  0.2599  0.1478
 9966TIP3    H151313   2.409   1.704  17.001 -0.0829  0.4733  0.2679
 9966TIP3    H251314   2.465   1.725  17.140  0.1735  0.0782  0.2274
 9967TIP3   OH251315   4.328   6.177  13.240  0.3634  0.1819  0.0333
 9967TIP3    H151316   4.415   6.162  13.201  0.0543 -2.3115  0.1459
 9967TIP3    H251317   4.278   6.219  13.171  1.0210 -0.4387 -0.8456
 9968TIP3   OH251318   2.042   5.374  11.184  0.1435  0.3143 -0.2856
 9968TIP3    H151319   1.960   5.325  11.192  0.2509 -0.0745 -1.4880
 9968TIP3    H251320   2.065   5.395  11.275 -1.7656  1.2500  0.0300
 9969TIP3   OH251321   1.828   5.737   5.810 -0.3879  0.1703 -0.1780
 9969TIP3    H151322   1.859   5.650   5.785  0.1072 -0.0783  1.2121
 9969TIP3    H251323   1.782   5.723   5.893  0.6837  1.3722  0.6665
 9970TIP3   OH251324   1.191   6.503  14.166  0.5291 -0.5475  0.4579
 9970TIP3    H151325   1.127   6.557  14.119 -2.0561 -1.9126  2.1362
 9970TIP3    H251326   1.212   6.553  14.244 -0.3052 -1.0480  1.0205
 9971TIP3   OH251327   5.557   0.877   1.761 -0.2370  0.2308 -0.2029
 9971TIP3    H151328   5.523   0.961   1.730  2.6593  1.5199 -0.2417
 9971TIP3    H251329   5.583   0.830   1.682 -3.4387 -1.6234 -0.3344
 9972TIP3   OH251330   2.414   2.574   2.834  0.2792  0.0433  0.8275
 9972TIP3    H151331   2.336   2.588   2.780  0.1899  0.2087  0.9944
 9972TIP3    H251332   2.405   2.638   2.905  0.5058 -0.0211  0.9151
 9973TIP3   OH251333   3.095   1.342   4.613  0.1357  0.7792 -0.2178
 9973TIP3    H151334   3.046   1.395   4.551 -0.2245  0.6680 -0.0319
 9973TIP3    H251335   3.122   1.403   4.682  0.5153  0.8978 -0.4667
 9974TIP3   OH251336   5.683   1.397   5.190  0.5551  0.3703  0.3110
 9974TIP3    H151337   5.675   1.352   5.274 -0.9561  0.7802  0.4198
 9974TIP3    H251338   5.773   1.382   5.163  0.5837 -1.2185  1.1813
 9975TIP3   OH251339   1.181   5.818   3.486  0.4061  0.0364 -0.5560
 9975TIP3    H151340   1.249   5.787   3.546 -1.0237 -0.3919  0.9315
 9975TIP3    H251341   1.120   5.744   3.478 -2.1641  1.7016  1.6855
 9976TIP3   OH251342   2.005   3.358   1.426  0.0048  0.1008 -0.1087
 9976TIP3    H151343   2.024   3.354   1.332 -0.1826  0.1799 -0.1517
 9976TIP3    H251344   1.909   3.363   1.431 -0.0794 -1.4203  0.1424
 9977TIP3   OH251345   0.376   1.310  11.297  0.0930  0.0837 -0.3302
 9977TIP3    H151346   0.470   1.320  11.281 -0.0645  0.3545 -1.1985
 9977TIP3    H251347   0.342   1.400  11.295 -0.0054  0.1037  1.2916
 9978TIP3   OH251348   6.445   1.594   2.839  0.1976  0.1922 -0.4155
 9978TIP3    H151349   6.480   1.661   2.780 -1.9280  2.0546  0.2529
 9978TIP3    H251350   6.396   1.535   2.782  0.9099  0.0149 -0.8555
 9979TIP3   OH251351   5.739   0.156  15.213  0.0748 -0.6822 -0.3674
 9979TIP3    H151352   5.792   0.082  15.242  1.1124 -0.2318 -1.0867
 9979TIP3    H251353   5.684   0.120  15.144 -0.1998 -1.0222  0.0189
 9980TIP3   OH251354   1.594   3.070   1.416 -0.4695  0.3862  0.0129
 9980TIP3    H151355   1.606   3.002   1.483 -0.6375  0.0187 -0.3312
 9980TIP3    H251356   1.505   3.058   1.384  0.1203 -0.4637 -1.4007
 9981TIP3   OH251357   3.326   6.549   2.892  0.1554 -0.1000 -0.0811
 9981TIP3    H151358   3.291   6.593   2.969  1.8798  1.1152  0.0563
 9981TIP3    H251359   3.379   6.478   2.926  0.9901  0.4911 -0.1113
 9982TIP3   OH251360   3.815   1.716   4.158 -0.2025  0.1140 -0.0181
 9982TIP3    H151361   3.800   1.624   4.183 -1.0184  0.5607  1.2869
 9982TIP3    H251362   3.727   1.752   4.147  0.1185  0.1662 -2.9563
 9983TIP3   OH251363   2.852   6.301  14.900  0.1850  0.5973  0.2137
 9983TIP3    H151364   2.871   6.388  14.935 -1.2417  0.2929  1.8811
 9983TIP3    H251365   2.887   6.302  14.811  1.2880  2.4461  0.6246
 9984TIP3   OH251366   0.188   6.215  16.357 -0.5083  0.6571 -0.2773
 9984TIP3    H151367   0.251   6.284  16.377 -0.4007  0.7826 -1.0238
 9984TIP3    H251368   0.116   6.230  16.419 -0.1637  0.9951  0.0452
 9985TIP3   OH251369   3.043   0.842  12.249  0.1784 -0.3690  0.6564
 9985TIP3    H151370   3.033   0.747  12.245  1.9949 -0.5355 -1.0594
 9985TIP3    H251371   3.137   0.857  12.243 -0.1442  1.5965 -0.2721
 9986TIP3   OH251372   6.344   4.206   2.913  0.1201 -0.0322  0.2505
 9986TIP3    H151373   6.273   4.265   2.889  0.0390 -0.4412 -0.5409
 9986TIP3    H251374   6.336   4.197   3.008 -0.2366  0.7508  0.2993
 9987TIP3   OH251375   5.883   6.438  15.472  0.4758  0.4820  0.3081
 9987TIP3    H151376   5.946   6.386  15.522  1.5579  1.0412 -0.4494
 9987TIP3    H251377   5.880   6.522  15.517 -0.0665  0.3180  0.5917
 9988TIP3   OH251378   2.176   5.749   4.904 -0.0603 -0.2745 -0.0214
 9988TIP3    H151379   2.203   5.830   4.860 -1.6106 -0.0009 -0.5511
 9988TIP3    H251380   2.116   5.708   4.841 -1.0954 -0.6676  1.1887
 9989TIP3   OH251381   6.150   6.481   3.582  0.0284 -0.2301 -0.4045
 9989TIP3    H151382   6.180   6.396   3.613 -0.1706 -0.0677  0.2384
 9989TIP3    H251383   6.074   6.502   3.637 -0.8924 -0.3442 -1.5766
 9990TIP3   OH251384   2.161   2.475  16.032  0.3389 -0.0943  0.4941
 9990TIP3    H151385   2.223   2.415  15.991  0.1825 -0.1705  0.3644
 9990TIP3    H251386   2.214   2.549  16.059  0.0453  1.5073 -2.7722
 9991TIP3   OH251387   6.398   2.235   4.138  0.1030  0.6820  0.0946
 9991TIP3    H151388   6.446   2.195   4.210  1.3744 -0.1632 -1.1783
 9991TIP3    H251389   6.432   2.325   4.134 -0.0366  0.7637  0.5663
 9992TIP3   OH251390   0.012   5.671   0.008 -0.2277 -0.0261  0.5418
 9992TIP3    H151391  -0.011   5.674   0.101 -0.0845 -2.9354  0.7807
 9992TIP3    H251392   0.094   5.719   0.002 -0.7109  0.9947  1.7432
 9993TIP3   OH251393   5.328   1.387   0.854 -0.3844  0.3287 -0.4460
 9993TIP3    H151394   5.378   1.351   0.780 -0.7698  0.1693 -0.6290
 9993TIP3    H251395   5.301   1.310   0.904  1.9851  0.4978  1.2695
 9994TIP3   OH251396   3.810   6.179   6.650 -0.6186 -0.2032 -0.1400
 9994TIP3    H151397   3.730   6.143   6.610 -1.3839 -1.0102  1.9685
 9994TIP3    H251398   3.841   6.244   6.587 -2.4995 -0.4279 -1.3895
 9995TIP3   OH251399   2.403   3.723  12.413  0.5408  0.0203  0.6623
 9995TIP3    H151400   2.466   3.777  12.460  0.6729  0.8592 -0.4440
 9995TIP3    H251401   2.457   3.666  12.357  0.3416  0.6971 -0.2420
 9996TIP3   OH251402   5.478   3.085   2.383 -0.1505  0.1263 -0.3672
 9996TIP3    H151403   5.458   3.011   2.440  2.1483 -0.5021 -0.2832
 9996TIP3    H251404   5.462   3.162   2.438  0.8086 -0.4360  0.7566
 9997TIP3   OH251405   5.817   3.539  16.375 -0.8870 -0.7632  0.0740
 9997TIP3    H151406   5.780   3.591  16.446 -0.8254 -0.5045 -0.0823
 9997TIP3    H251407   5.897   3.501  16.412  0.3645  1.1704 -0.5203
 9998TIP3   OH251408   5.623   0.023   1.102 -0.0847 -0.1944  0.3746
 9998TIP3    H151409   5.693  -0.041   1.118 -0.2681  0.1392  2.9897
 9998TIP3    H251410   5.586  -0.002   1.017  1.5400 -1.9314  0.1156
 9999TIP3   OH251411   0.799   3.201  16.055 -0.0809  0.4117  0.5236
 9999TIP3    H151412   0.865   3.229  15.990 -0.1642  0.4577  0.4591
 9999TIP3    H251413   0.828   3.241  16.137  1.7078 -2.0314  1.2005
10000TIP3   OH251414   6.343   3.904  10.727  0.4249 -0.1915  0.1733
10000TIP3    H151415   6.402   3.841  10.686 -0.2578 -0.0846 -1.0050
10000TIP3    H251416   6.259   3.859  10.731  0.6655 -0.5581  2.3665
10001TIP3   OH251417   3.914   2.344   1.801  0.1458 -0.3549  0.0935
10001TIP3    H151418   3.879   2.394   1.875  1.8249  0.6560  0.2476
10001TIP3    H251419   3.867   2.378   1.725  1.6982  2.0572  0.0946
10002TIP3   OH251420   2.287   6.592  12.957  0.4113  0.2780 -0.1727
10002TIP3    H151421   2.271   6.507  12.917  0.8996  0.2201 -0.2485
10002TIP3    H251422   2.201   6.635  12.956  0.1144 -0.3020  0.0824
10003TIP3   OH251423   4.540   1.904   2.444  0.3499  0.9065 -0.3731
10003TIP3    H151424   4.476   1.853   2.493 -0.9729  1.3422 -1.5474
10003TIP3    H251425   4.564   1.976   2.502  2.3555 -1.0265  1.3635
10004TIP3   OH251426   0.035   2.306   5.232 -0.5787  0.6759 -0.0987
10004TIP3    H151427   0.117   2.258   5.225 -0.4175  0.7697  1.0159
10004TIP3    H251428   0.051   2.387   5.183  0.3472  1.1282  0.8933
10005TIP3   OH251429   5.624   3.197  16.984  0.0717  0.1592  0.0266
10005TIP3    H151430   5.564   3.265  17.012  1.6373  1.3057  0.7859
10005TIP3    H251431   5.674   3.175  17.062 -0.6741 -2.2243 -0.0941
10006TIP3   OH251432   4.942   3.152  11.662 -0.1427 -0.8371  0.5938
10006TIP3    H151433   4.864   3.102  11.637 -0.7583  1.1976 -1.9704
10006TIP3    H251434   4.999   3.149  11.585  0.5213  0.9777  0.9589
10007TIP3   OH251435   0.933   2.207   2.621 -0.2631 -0.2563  0.2100
10007TIP3    H151436   0.891   2.292   2.610 -1.5657 -0.6928  1.5224
10007TIP3    H251437   1.023   2.228   2.645  0.3783  0.6980 -2.6875
10008TIP3   OH251438   0.691   0.525   4.649  0.3118  0.6451 -0.0434
10008TIP3    H151439   0.642   0.447   4.674  1.1111 -0.0080 -0.4799
10008TIP3    H251440   0.681   0.531   4.554  0.9366  0.6084 -0.1120
10009TIP3   OH251441   3.880   2.314   0.094 -0.5323 -0.5442  0.3651
10009TIP3    H151442   3.867   2.352   0.007 -2.3430 -2.6032 -0.3510
10009TIP3    H251443   3.845   2.380   0.154 -1.1006  0.0772 -0.6200
10010TIP3   OH251444   2.916   5.219   2.797 -0.3158  0.0770 -0.0572
10010TIP3    H151445   2.960   5.155   2.852 -0.1432  0.0871 -0.1822
10010TIP3    H251446   2.824   5.192   2.797 -0.1822 -0.3917 -0.4154
10011TIP3   OH251447   0.285   0.390  16.506 -0.1140 -0.5226  0.4013
10011TIP3    H151448   0.323   0.358  16.588 -0.2125  0.3732  0.8098
10011TIP3    H251449   0.197   0.353  16.505  0.1734 -1.2197  0.2852
10012TIP3   OH251450   3.273   1.140  12.087 -0.1610  0.2763  0.1565
10012TIP3    H151451   3.201   1.077  12.080  0.5335 -0.6253  0.7733
10012TIP3    H251452   3.266   1.194  12.008 -1.4370  0.1403  0.1547
10013TIP3   OH251453   1.649   6.345  14.355  0.0249 -0.0480 -0.1913
10013TIP3    H151454   1.657   6.404  14.279 -1.9670  0.5978  0.0468
10013TIP3    H251455   1.735   6.304  14.362  1.3894  2.4915 -0.6541
10014TIP3   OH251456   0.778   3.151   1.595  0.6554 -0.7364  0.6155
10014TIP3    H151457   0.741   3.188   1.676  2.0021  0.9591  0.5260
10014TIP3    H251458   0.838   3.219   1.564  0.6827 -1.6471 -1.4562
10015TIP3   OH251459   1.406   6.208  11.956  0.0243  0.2658 -0.4399
10015TIP3    H151460   1.353   6.266  11.901 -0.5774 -0.7132 -0.9172
10015TIP3    H251461   1.469   6.169  11.895 -1.3091 -1.6155 -0.6812
10016TIP3   OH251462   2.790   1.897  13.388 -0.0700  0.2557 -0.2239
10016TIP3    H151463   2.826   1.812  13.361  0.1269 -1.1363  3.7174
10016TIP3    H251464   2.697   1.880  13.401  0.1351  0.2586  1.5457
10017TIP3   OH251465   5.953   0.584   3.424 -0.2784  0.4201 -0.0359
10017TIP3    H151466   5.953   0.633   3.342 -0.7681 -1.8071 -1.4748
10017TIP3    H251467   5.932   0.494   3.397  0.2593 -0.5185  2.4661
10018TIP3   OH251468   5.804   3.381   3.629 -0.9185 -0.3479 -0.2660
10018TIP3    H151469   5.762   3.304   3.591 -1.1961  0.3427 -1.4213
10018TIP3    H251470   5.816   3.441   3.555 -0.6498  0.6907  0.5864
10019TIP3   OH251471   2.712   0.318   5.518 -0.2330  0.0911 -0.0237
10019TIP3    H151472   2.772   0.272   5.459 -1.5839 -0.1179 -1.2760
10019TIP3    H251473   2.738   0.289   5.605  1.5168  0.0477 -0.5190
10020TIP3   OH251474   4.696   4.176  16.103  0.2820 -0.0424  0.0044
10020TIP3    H151475   4.654   4.219  16.177 -0.7324  0.7473 -0.9976
10020TIP3    H251476   4.712   4.246  16.040 -0.2423 -0.9051 -1.1404
10021TIP3   OH251477   4.190   2.453  16.959  0.0775  0.6376  0.5012
10021TIP3    H151478   4.269   2.485  17.001 -0.0875 -0.2475  1.5114
10021TIP3    H251479   4.122   2.514  16.987  0.1813  0.7211  0.5705
10022TIP3   OH251480   3.523   6.796   2.721 -0.0835 -0.1508  0.0403
10022TIP3    H151481   3.441   6.752   2.702  0.3653 -1.5468  1.1771
10022TIP3    H251482   3.558   6.751   2.798  0.9040  1.5474  0.6517
10023TIP3   OH251483   3.355   4.561   4.528  0.1107  0.2625 -0.3652
10023TIP3    H151484   3.291   4.508   4.575 -1.0172  0.7463 -1.3271
10023TIP3    H251485   3.438   4.543   4.573 -0.9712  1.1687  2.2311
10024TIP3   OH251486   1.538   4.104  15.551 -0.4312 -0.1637 -0.5436
10024TIP3    H151487   1.460   4.097  15.606  0.2561  0.0134  0.4867
10024TIP3    H251488   1.507   4.085  15.463 -1.8580  1.0311 -0.3423
10025TIP3   OH251489   6.479   0.153  16.592  0.8433 -0.2628 -0.0451
10025TIP3    H151490   6.455   0.198  16.511 -1.2415  0.1058  0.7324
10025TIP3    H251491   6.442   0.066  16.583  2.5781 -1.0074 -0.4078
10026TIP3   OH251492   0.267   1.177   1.874 -0.2792 -0.6505 -0.2186
10026TIP3    H151493   0.324   1.231   1.821  2.8771 -1.6557  1.8311
10026TIP3    H251494   0.239   1.234   1.946 -2.6771  0.0557 -1.5904
10027TIP3   OH251495   4.599   1.729  15.379  0.1441 -0.1019 -0.4456
10027TIP3    H151496   4.652   1.731  15.300  1.4061 -1.7526  0.2898
10027TIP3    H251497   4.535   1.659  15.364  0.7724 -0.8340  0.1876
10028TIP3   OH251498   5.953   4.470   0.179 -0.1128  0.0414  0.0308
10028TIP3    H151499   5.938   4.562   0.204  0.1765  0.3537 -0.9082
10028TIP3    H251500   5.933   4.467   0.086  1.6799 -0.4374 -0.3692
10029TIP3   OH251501   1.061   1.973   3.583 -0.3237 -0.7969 -0.1064
10029TIP3    H151502   1.115   2.015   3.650  0.4680 -1.1272 -0.5229
10029TIP3    H251503   1.044   2.042   3.519  0.4823 -0.9397 -0.4923
10030TIP3   OH251504   1.705   0.188   0.906 -0.6170 -0.1695  0.3138
10030TIP3    H151505   1.665   0.106   0.878 -0.3360 -0.3163  0.3433
10030TIP3    H251506   1.697   0.188   1.002 -0.0429 -0.4629  0.3667
10031TIP3   OH251507   6.438   1.330  12.154 -0.0441  0.0393  0.4636
10031TIP3    H151508   6.463   1.268  12.085  2.5380  1.1056  0.3311
10031TIP3    H251509   6.355   1.367  12.124  0.9307  0.3797 -2.0498
10032TIP3   OH251510   2.839   3.253  10.895 -0.2170  0.0752 -0.5106
10032TIP3    H151511   2.867   3.187  10.832 -1.1305  0.2079 -1.0742
10032TIP3    H251512   2.913   3.314  10.901 -0.4176  0.5206 -2.0908
10033TIP3   OH251513   3.095   3.133  13.328 -0.6469  0.1076 -0.3072
10033TIP3    H151514   3.150   3.143  13.406 -1.8114 -2.0618  0.8656
10033TIP3    H251515   3.007   3.158  13.358 -0.5723  2.6774 -1.9238
10034TIP3   OH251516   5.973   2.865   3.136  0.6838  0.1042 -0.0861
10034TIP3    H151517   6.052   2.812   3.126  0.4367 -0.3423  0.3147
10034TIP3    H251518   5.981   2.933   3.068  0.2810 -1.3321 -1.6454
10035TIP3   OH251519   1.516   0.262  12.393  0.1607 -0.1474  0.6791
10035TIP3    H151520   1.436   0.209  12.398 -0.8634  1.1805 -0.6596
10035TIP3    H251521   1.486   0.352  12.406  1.4230  0.4003 -0.0034
10036TIP3   OH251522   4.918   2.897  12.912 -0.0854 -0.2419 -0.3299
10036TIP3    H151523   4.884   2.943  12.989  0.5631  0.6334 -0.5556
10036TIP3    H251524   4.841   2.887  12.854 -0.3313  0.1074 -0.0638
10037TIP3   OH251525   3.437   0.544   6.578  0.3289 -0.2065  0.2053
10037TIP3    H151526   3.431   0.461   6.627  2.1839 -0.0192  0.8501
10037TIP3    H251527   3.515   0.533   6.523  0.1708  0.8474 -0.2361
10038TIP3   OH251528   0.732   6.033   2.585 -0.0909 -0.4714  0.2558
10038TIP3    H151529   0.643   6.036   2.620  0.5323  0.1786  1.8762
10038TIP3    H251530   0.723   6.060   2.493 -1.2390  2.6013  1.1582
10039TIP3   OH251531   3.538   6.142  16.681 -0.0778 -0.0002  0.1494
10039TIP3    H151532   3.508   6.152  16.771 -0.3061 -1.1601  0.2257
10039TIP3    H251533   3.634   6.136  16.688  0.0323  1.4372  0.1415
10040TIP3   OH251534   3.730   3.697  13.687  0.3327  0.0858 -0.5793
10040TIP3    H151535   3.697   3.786  13.679 -1.1389 -0.2722  0.8929
10040TIP3    H251536   3.785   3.698  13.764 -0.5955 -0.4942  0.1174
10041TIP3   OH251537   4.046   5.658  14.765 -0.6600  0.7283  0.1667
10041TIP3    H151538   3.979   5.603  14.725  0.6814  0.0985 -1.3464
10041TIP3    H251539   4.028   5.654  14.859 -1.6606 -0.8553 -0.0538
10042TIP3   OH251540   4.339   6.432   0.519 -0.5606 -0.2323  0.2203
10042TIP3    H151541   4.270   6.499   0.520  0.8226  1.2773 -0.9686
10042TIP3    H251542   4.417   6.478   0.490  1.0259 -1.8635  1.6643
10043TIP3   OH251543   3.355   1.398   2.198 -0.2129  0.4526  0.1501
10043TIP3    H151544   3.371   1.309   2.166 -1.8391  0.5212 -0.9641
10043TIP3    H251545   3.300   1.438   2.131  1.1143  2.5855  0.2584
10044TIP3   OH251546   4.566   1.352  12.621 -0.5169  0.1675 -0.3072
10044TIP3    H151547   4.532   1.406  12.550  1.1831 -1.5947 -2.6571
10044TIP3    H251548   4.513   1.272  12.619  0.1330 -0.2779 -0.2442
10045TIP3   OH251549   5.107   0.507   3.012  0.2355 -0.7466 -0.0247
10045TIP3    H151550   5.103   0.595   3.051 -1.5151 -1.1276  0.7271
10045TIP3    H251551   5.046   0.455   3.064  1.1255 -2.3921 -0.5635
10046TIP3   OH251552   4.961   6.489   4.657  0.9007 -0.1144 -0.4736
10046TIP3    H151553   4.909   6.555   4.612  0.1439 -0.3589  0.0262
10046TIP3    H251554   5.025   6.539   4.707 -0.5718  0.3411  1.0333
10047TIP3   OH251555   1.011   5.867   2.849  0.1764  0.0929  0.7471
10047TIP3    H151556   1.068   5.944   2.840 -0.8439  0.7296 -0.7551
10047TIP3    H251557   1.071   5.794   2.864  1.4744  0.6872 -1.1310
10048TIP3   OH251558   4.343   0.771  15.343 -0.3914 -0.4775 -0.3062
10048TIP3    H151559   4.348   0.845  15.282 -0.0321  0.9458  1.3590
10048TIP3    H251560   4.265   0.723  15.316 -1.2039  1.0629 -0.8561
10049TIP3   OH251561   1.292   3.354   0.892  0.0154 -0.1957  0.3584
10049TIP3    H151562   1.293   3.442   0.854  1.6527 -0.8851 -1.3581
10049TIP3    H251563   1.222   3.309   0.844  1.5890 -0.8441 -1.4543
10050TIP3   OH251564   4.279   1.550  16.945 -0.5147  0.5264 -0.5956
10050TIP3    H151565   4.235   1.632  16.921  0.2662  0.6142 -1.8556
10050TIP3    H251566   4.234   1.483  16.892 -1.6519 -0.0212  0.9812
10051TIP3   OH251567   5.952   4.098   4.594 -0.0454 -0.1469 -0.4428
10051TIP3    H151568   5.979   4.163   4.658  0.8532 -1.4507  0.5620
10051TIP3    H251569   5.893   4.145   4.535 -2.6815  0.6736  2.5502
10052TIP3   OH251570   6.812   1.987   2.316 -0.3137  0.2474 -0.5849
10052TIP3    H151571   6.904   1.986   2.292 -0.0230 -1.2472  0.4811
10052TIP3    H251572   6.767   1.952   2.239  0.3985 -2.4868  0.1287
10053TIP3   OH251573   4.513   5.543  16.328 -0.4219 -0.1527 -0.2213
10053TIP3    H151574   4.595   5.592  16.314 -1.1621  0.6138 -2.2596
10053TIP3    H251575   4.460   5.601  16.382 -0.2798  0.1376 -0.3868
10054TIP3   OH251576   0.851   3.327  11.572 -0.2062  0.1375  0.0204
10054TIP3    H151577   0.867   3.372  11.489  1.4178 -0.0362  0.2071
10054TIP3    H251578   0.803   3.391  11.625 -0.7305  0.4676 -0.8276
10055TIP3   OH251579   4.968   1.071  16.148  0.0862  0.1599 -0.1817
10055TIP3    H151580   5.017   1.108  16.222 -0.1940  0.1272  0.0222
10055TIP3    H251581   4.970   0.977  16.163  0.4340  0.1205 -0.4720
10056TIP3   OH251582   4.978   4.209  14.922 -0.0058  0.3910 -0.3915
10056TIP3    H151583   4.920   4.285  14.928 -0.0047  0.3326  0.5792
10056TIP3    H251584   5.027   4.210  15.005 -1.2658 -1.6749  0.4396
10057TIP3   OH251585   4.937   0.747   5.563 -0.3628  0.5245  0.6243
10057TIP3    H151586   5.026   0.712   5.552 -1.6780 -2.2352 -3.1661
10057TIP3    H251587   4.895   0.687   5.624 -0.3126  0.2939  0.4365
10058TIP3   OH251588   5.994   2.825  11.427 -0.3244  0.0069 -0.0248
10058TIP3    H151589   6.026   2.876  11.502  0.0917 -0.7613  0.3385
10058TIP3    H251590   6.065   2.828  11.364  0.6282 -1.8462  0.8531
10059TIP3   OH251591   2.895   5.605   3.319  0.1368  0.4052 -0.4615
10059TIP3    H151592   2.884   5.545   3.393  1.5923  1.5054  0.7073
10059TIP3    H251593   2.988   5.598   3.296 -0.0495  0.9508 -1.4322
10060TIP3   OH251594   1.616   1.122   5.913  0.2452  0.5285 -0.0352
10060TIP3    H151595   1.594   1.129   6.006  1.2427  0.1201  0.2386
10060TIP3    H251596   1.583   1.204   5.875 -3.1684 -0.6426  0.0092
10061TIP3   OH251597   1.531   6.462  13.057 -0.0314 -0.0477 -0.0508
10061TIP3    H151598   1.458   6.523  13.055 -0.6372 -0.7601 -0.2393
10061TIP3    H251599   1.497   6.383  13.014 -0.5587 -1.9362  3.5025
10062TIP3   OH251600   1.304   2.258  13.610  0.2714 -0.0681 -0.6168
10062TIP3    H151601   1.310   2.333  13.670  3.0743 -1.3845  0.9158
10062TIP3    H251602   1.217   2.221  13.627 -0.1910  1.3855  0.3802
10063TIP3   OH251603   3.794   4.870   5.756 -0.3500 -0.3374  0.7545
10063TIP3    H151604   3.751   4.823   5.828 -1.4686 -0.9074 -0.2394
10063TIP3    H251605   3.858   4.807   5.722 -0.2034 -0.2693  0.9028
10064TIP3   OH251606   0.167   6.478  14.370  0.1994  0.5082 -0.2521
10064TIP3    H151607   0.196   6.394  14.335 -0.4453  0.8954 -1.7717
10064TIP3    H251608   0.072   6.475  14.363  0.2164  1.7694 -1.3278
10065TIP3   OH251609   6.501   1.001  15.617 -0.2711 -0.2481  0.4795
10065TIP3    H151610   6.473   0.945  15.544  0.0953  0.8996 -0.5919
10065TIP3    H251611   6.445   1.079  15.609 -0.0616 -0.0079  1.2882
10066TIP3   OH251612   5.597   5.819   6.745 -0.2717 -0.3802  0.3217
10066TIP3    H151613   5.596   5.725   6.727 -0.3773 -0.2569 -0.3202
10066TIP3    H251614   5.592   5.860   6.659 -3.9261  0.2485  0.6882
10067TIP3   OH251615   3.166   2.500   1.578 -0.0291 -0.2163  0.2151
10067TIP3    H151616   3.215   2.504   1.496  2.1557  1.4520  1.4891
10067TIP3    H251617   3.232   2.476   1.644 -1.0162  1.5185  1.9224
10068TIP3   OH251618   4.624   2.112  14.088  0.3104  0.5926  0.4123
10068TIP3    H151619   4.539   2.123  14.046  0.3943 -0.1530  0.0381
10068TIP3    H251620   4.610   2.044  14.154  0.7609 -0.0118 -0.1022
10069TIP3   OH251621   5.747   5.372  14.953 -0.2448 -0.4798  0.0966
10069TIP3    H151622   5.700   5.398  14.873 -1.1347  2.0053  1.3526
10069TIP3    H251623   5.688   5.309  14.995 -0.5200 -0.5419 -0.3667
10070TIP3   OH251624   0.452   5.289  13.635  0.1101 -0.1935  0.1672
10070TIP3    H151625   0.459   5.304  13.540 -0.1003  0.7728  0.2861
10070TIP3    H251626   0.378   5.230  13.645  1.4045 -2.0162 -0.3947
10071TIP3   OH251627   5.964   1.138   1.566 -0.1128 -0.3413 -0.1004
10071TIP3    H151628   6.001   1.058   1.528  2.8589  0.4062  0.9282
10071TIP3    H251629   5.984   1.206   1.502  1.0415  0.2030  0.8034
10072TIP3   OH251630   5.788   6.032  16.496 -0.5257 -0.5399  0.0242
10072TIP3    H151631   5.808   5.961  16.558  0.6926  0.6651  1.0640
10072TIP3    H251632   5.870   6.047  16.450 -0.6996  0.3539 -0.0063
10073TIP3   OH251633   0.722   2.611  11.079 -0.3944  0.5053 -0.3921
10073TIP3    H151634   0.720   2.576  10.990 -2.1630  0.6593 -0.4604
10073TIP3    H251635   0.659   2.558  11.128  2.1059 -1.0200  1.4067
10074TIP3   OH251636   2.092   5.612   1.136 -0.2338 -0.6682 -0.5530
10074TIP3    H151637   2.110   5.519   1.147  0.9512 -0.4746 -0.7282
10074TIP3    H251638   2.068   5.642   1.224  1.7054 -0.6867  0.0331
10075TIP3   OH251639   5.353   1.314   3.466 -0.6466 -0.0778  0.5280
10075TIP3    H151640   5.433   1.323   3.516 -0.0292 -1.4523 -0.1532
10075TIP3    H251641   5.373   1.352   3.380  0.1636 -2.5730 -0.4866
10076TIP3   OH251642   2.718   2.576   0.086  0.0137 -0.3714  0.1115
10076TIP3    H151643   2.774   2.519   0.139  1.0411  0.8308  0.3866
10076TIP3    H251644   2.633   2.534   0.086  0.3708 -1.1586  1.5129
10077TIP3   OH251645   0.156   5.255   0.938 -0.0630  0.7807  0.3268
10077TIP3    H151646   0.145   5.174   0.889 -0.3679  1.6815 -1.1819
10077TIP3    H251647   0.077   5.262   0.992 -1.8200  1.7514 -2.1757
10078TIP3   OH251648   4.452   5.406  12.071 -0.1678  0.0380  0.0575
10078TIP3    H151649   4.469   5.493  12.033  1.3049 -0.4796 -0.5480
10078TIP3    H251650   4.514   5.399  12.143 -0.8836 -0.1931  0.6687
10079TIP3   OH251651   0.013   0.974   1.393  0.3609  0.1897  0.0423
10079TIP3    H151652   0.034   0.896   1.444 -0.8064  0.1264  0.4558
10079TIP3    H251653   0.088   1.033   1.407  0.2947 -0.0309  1.4246
10080TIP3   OH251654   6.068   1.690  15.226 -0.3102 -0.0172 -0.1400
10080TIP3    H151655   6.037   1.601  15.206 -1.8471  0.6729 -1.0302
10080TIP3    H251656   6.000   1.728  15.281 -0.4125  1.0727 -0.9634
10081TIP3   OH251657   5.927   5.610  14.187 -0.1368 -0.2770 -0.3790
10081TIP3    H151658   5.925   5.647  14.098 -0.3742  1.3494  0.2651
10081TIP3    H251659   5.973   5.677  14.239  2.8045 -2.5259  0.1674
10082TIP3   OH251660   6.221   1.815   4.783 -0.9403  0.4025 -0.2648
10082TIP3    H151661   6.242   1.798   4.692 -0.0354  0.1239 -0.0104
10082TIP3    H251662   6.228   1.910   4.792 -1.9975  0.5351 -0.7103
10083TIP3   OH251663   3.610   4.286  16.727  0.2296 -0.3850 -0.8032
10083TIP3    H151664   3.554   4.246  16.794  2.6261 -3.2148 -0.2806
10083TIP3    H251665   3.637   4.369  16.765  0.1783 -1.1602  1.0251
10084TIP3   OH251666   5.600   0.617   2.923 -0.3049  0.1511 -0.5205
10084TIP3    H151667   5.661   0.584   2.989 -0.5654 -0.2236 -0.4614
10084TIP3    H251668   5.644   0.693   2.885 -0.2926  0.5702  0.3080
10085TIP3   OH251669   2.042   0.637   4.455  0.0268  0.3365 -0.3864
10085TIP3    H151670   2.114   0.669   4.402  0.0851  1.7707  0.5013
10085TIP3    H251671   2.049   0.686   4.537  0.1977 -2.0838  1.1512
10086TIP3   OH251672   5.803   2.364   5.483 -0.2788 -0.0420  0.0965
10086TIP3    H151673   5.771   2.453   5.479 -0.4445 -0.0595  0.8242
10086TIP3    H251674   5.783   2.326   5.398  0.7241  0.9205 -0.5935
10087TIP3   OH251675   4.110   2.529  15.236 -0.3605  0.5655  0.2875
10087TIP3    H151676   4.137   2.445  15.199 -1.5637  1.3227 -2.6650
10087TIP3    H251677   4.105   2.514  15.330  2.0338 -1.8663  0.1462
10088TIP3   OH251678   3.815   3.012   1.226 -0.3455  0.7925 -0.2105
10088TIP3    H151679   3.856   3.003   1.311 -3.0264 -1.0666  1.0337
10088TIP3    H251680   3.743   3.074   1.240 -1.1630  0.0482 -0.9372
10089TIP3   OH251681   6.060   5.029   2.841 -0.4867 -0.2011 -0.1325
10089TIP3    H151682   5.995   4.960   2.852  0.3127 -1.0224 -0.4816
10089TIP3    H251683   6.144   4.985   2.851  0.0472  0.6408 -0.8021
10090TIP3   OH251684   4.807   1.049   4.531  0.6832  0.1473 -0.2643
10090TIP3    H151685   4.902   1.048   4.534  0.6629  0.5771  0.7060
10090TIP3    H251686   4.779   1.001   4.609  0.0952 -0.2541 -0.7024
10091TIP3   OH251687   3.500   5.988   3.504 -0.3737 -0.0465  0.1085
10091TIP3    H151688   3.525   5.898   3.528  0.0823 -0.3974 -1.5603
10091TIP3    H251689   3.459   5.979   3.418 -0.5383  1.3172  0.0309
10092TIP3   OH251690   4.301   3.376  11.359  0.0268 -0.8374  0.0355
10092TIP3    H151691   4.299   3.451  11.418  1.5516 -1.0767  0.4461
10092TIP3    H251692   4.275   3.410  11.274  2.3605  0.5618 -0.1817
10093TIP3   OH251693   1.710   3.285  16.027 -0.5868  1.3219  0.1578
10093TIP3    H151694   1.649   3.353  15.999  0.0269  1.6321 -0.4343
10093TIP3    H251695   1.655   3.222  16.075 -0.8122  3.3641  2.7960
10094TIP3   OH251696   0.732   5.943   1.163 -0.1930  0.8563 -0.1465
10094TIP3    H151697   0.756   5.893   1.241 -0.2087  0.1205 -0.5992
10094TIP3    H251698   0.644   5.912   1.141  0.7287 -0.7622 -1.8499
10095TIP3   OH251699   5.698   0.543  15.214  0.4044 -0.7044 -0.5593
10095TIP3    H151700   5.634   0.611  15.193  3.4621  2.0802 -1.7760
10095TIP3    H251701   5.692   0.481  15.142 -1.4088 -0.9426 -0.2388
10096TIP3   OH251702   4.592   1.369  11.654  0.0337  0.1284  1.1194
10096TIP3    H151703   4.527   1.419  11.703  0.4918  2.6155 -0.6386
10096TIP3    H251704   4.556   1.361  11.566  1.6557  0.7693  0.3510
10097TIP3   OH251705   2.733   1.191   5.398 -0.0027 -0.1295  0.1232
10097TIP3    H151706   2.737   1.216   5.490 -1.3748 -1.8144  0.6856
10097TIP3    H251707   2.824   1.193   5.368  0.3388  1.5251  1.1787
10098TIP3   OH251708   6.328   1.342  11.197 -0.0966  0.5847  0.3568
10098TIP3    H151709   6.285   1.425  11.218  0.4850  1.1026 -0.4557
10098TIP3    H251710   6.377   1.359  11.117  0.5951 -0.3541  0.5574
10099TIP3   OH251711   0.113   5.377   0.102 -0.0670  0.0394  0.3989
10099TIP3    H151712   0.181   5.445   0.093 -1.1221  1.1272  0.3547
10099TIP3    H251713   0.060   5.386   0.023 -0.2809 -0.7933  0.4419
10100TIP3   OH251714   4.209   4.126   2.621  0.5135 -0.1080  0.1198
10100TIP3    H151715   4.138   4.118   2.685 -0.4828 -0.4190 -0.9937
10100TIP3    H251716   4.175   4.085   2.542  2.0843 -0.5849 -0.3389
10101TIP3   OH251717   0.102   3.750   1.041 -0.0765 -0.0763 -0.0546
10101TIP3    H151718   0.170   3.801   0.999 -2.0623  1.8297 -1.1445
10101TIP3    H251719   0.104   3.777   1.133  1.1667 -0.7180  0.1308
10102TIP3   OH251720   0.136   1.262  16.846  0.9562  0.7448 -0.0613
10102TIP3    H151721   0.085   1.235  16.923 -0.2376  0.5164 -0.8938
10102TIP3    H251722   0.073   1.309  16.792  0.7041 -2.1907 -2.5811
10103TIP3   OH251723   6.259   3.849   0.074  0.0855  0.7440  0.7133
10103TIP3    H151724   6.177   3.863   0.122 -0.7243  1.8358 -0.8661
10103TIP3    H251725   6.268   3.753   0.070 -2.2823  0.4999 -0.8502
10104TIP3   OH251726   0.463   2.443   4.438  0.0705 -0.1878 -0.1400
10104TIP3    H151727   0.394   2.437   4.371  0.3610  0.0681 -0.4679
10104TIP3    H251728   0.531   2.497   4.397  0.9144 -1.2491 -0.2132
10105TIP3   OH251729   2.654   0.417  14.393 -0.2191  0.0663  0.4055
10105TIP3    H151730   2.681   0.432  14.303 -1.6784 -0.1324 -0.0992
10105TIP3    H251731   2.637   0.323  14.397  0.4174 -0.0286  1.0682
10106TIP3   OH251732   6.249   3.117   2.016 -0.0176 -0.3044 -0.1459
10106TIP3    H151733   6.312   3.143   2.083  0.7157 -1.9990 -0.1160
10106TIP3    H251734   6.165   3.120   2.060  0.6135 -3.1286  1.5212
10107TIP3   OH251735   4.305   5.645  14.817 -0.4238  0.0666 -0.0330
10107TIP3    H151736   4.316   5.571  14.878 -2.2241  0.0975  0.3849
10107TIP3    H251737   4.213   5.643  14.794  0.3560 -0.5538 -3.6270
10108TIP3   OH251738   2.401   2.322  16.023 -0.2531 -0.4102  0.4261
10108TIP3    H151739   2.484   2.311  16.069 -0.7828 -3.2692  0.8866
10108TIP3    H251740   2.409   2.267  15.945 -1.7342 -0.8444  0.5479
10109TIP3   OH251741   3.482   3.121   3.900 -0.2009  0.5478  0.3119
10109TIP3    H151742   3.422   3.079   3.839  1.4715 -0.5957 -0.6156
10109TIP3    H251743   3.473   3.214   3.883  0.0257  0.2683 -1.5321
10110TIP3   OH251744   2.349   3.875  11.848 -0.0316  0.9349 -0.1116
10110TIP3    H151745   2.426   3.839  11.805 -0.9532 -0.7037 -0.5022
10110TIP3    H251746   2.354   3.970  11.833  0.9100  0.6549 -1.7841
10111TIP3   OH251747   2.231   3.382  14.033  0.0964 -0.4012  0.5945
10111TIP3    H151748   2.219   3.290  14.008 -1.0108 -0.3298  0.8019
10111TIP3    H251749   2.216   3.431  13.952  1.8210 -0.4465  0.2203
10112TIP3   OH251750   5.079   4.933   3.222 -0.2853 -0.0573  0.1785
10112TIP3    H151751   5.005   4.930   3.281 -2.0651  0.0575 -1.9087
10112TIP3    H251752   5.070   5.016   3.175  0.8402 -0.2850 -0.5131
10113TIP3   OH251753   5.935   0.532   1.193  0.6634  0.3818 -0.0315
10113TIP3    H151754   6.002   0.566   1.134  0.0913  1.0273 -0.3191
10113TIP3    H251755   5.875   0.605   1.207  1.1933  0.4920  1.9808
10114TIP3   OH251756   1.059   0.706  12.439  0.7560 -0.5199 -0.1613
10114TIP3    H151757   1.127   0.674  12.499  1.0161  0.1582 -0.0904
10114TIP3    H251758   1.095   0.786  12.402 -0.6466  0.7224  1.0655
10115TIP3   OH251759   5.584   1.537  10.498 -0.1361  0.0689 -0.3690
10115TIP3    H151760   5.495   1.529  10.532  0.3658  0.8026  1.1628
10115TIP3    H251761   5.573   1.533  10.403 -1.5899 -1.9229 -0.1953
10116TIP3   OH251762   6.537   6.082   1.841 -0.1615  0.1037 -0.6255
10116TIP3    H151763   6.461   6.070   1.785  1.2045  0.1311 -2.6060
10116TIP3    H251764   6.518   6.030   1.919 -1.4693 -1.2909 -1.7960
10117TIP3   OH251765   5.248   2.600  13.704  0.6737 -0.2027  0.4661
10117TIP3    H151766   5.269   2.614  13.612  0.1698  1.5369  0.5834
10117TIP3    H251767   5.199   2.517  13.705  1.1482 -0.5205 -0.7412
10118TIP3   OH251768   5.580   0.079  14.988 -0.3548  0.2138  0.2612
10118TIP3    H151769   5.598  -0.006  15.028  0.4566  0.1716 -0.1780
10118TIP3    H251770   5.509   0.061  14.926 -0.8128  0.0462  0.8238
10119TIP3   OH251771   2.340   5.172   4.438 -0.3247 -0.0159  0.2041
10119TIP3    H151772   2.313   5.120   4.362 -1.0203 -0.3701  0.6813
10119TIP3    H251773   2.273   5.154   4.504  1.3019 -1.2795  1.6045
10120TIP3   OH251774   1.925   2.105   3.292 -0.1671  0.0274 -0.2069
10120TIP3    H151775   1.869   2.031   3.272 -0.6327  0.8778 -2.3658
10120TIP3    H251776   1.895   2.174   3.233  1.5448  1.3020  0.3271
10121TIP3   OH251777   4.491   4.880   2.991  0.6170 -0.5423 -0.2101
10121TIP3    H151778   4.412   4.905   2.942 -0.1316 -0.9243  0.7596
10121TIP3    H251779   4.551   4.847   2.925  0.2684  0.4944 -1.0669
10122TIP3   OH251780   5.408   2.491  16.629 -0.4507 -0.2322  0.3384
10122TIP3    H151781   5.335   2.486  16.691  0.5252 -1.3801  1.4614
10122TIP3    H251782   5.395   2.574  16.583 -0.5096  1.3697  3.0456
10123TIP3   OH251783   4.709   5.335   3.893  0.1262 -0.0841  0.8243
10123TIP3    H151784   4.774   5.401   3.870 -0.5797  0.4364  0.2890
10123TIP3    H251785   4.660   5.373   3.965  1.7278 -1.3314  2.6815
10124TIP3   OH251786   4.252   5.152   4.611 -0.1019  0.1692  0.0239
10124TIP3    H151787   4.336   5.106   4.613 -0.9636 -1.4533  0.0682
10124TIP3    H251788   4.210   5.123   4.529 -1.1790 -0.1108  0.6507
10125TIP3   OH251789   4.127   2.948  13.854 -0.7783 -0.4816  0.3773
10125TIP3    H151790   4.080   2.882  13.802 -2.0093 -0.5451  1.5119
10125TIP3    H251791   4.199   2.977  13.797  0.0626 -3.0818 -0.0191
10126TIP3   OH251792   3.488   0.162   3.422  0.1871 -0.1158  0.1026
10126TIP3    H151793   3.397   0.132   3.415  0.0967 -0.0856  1.0904
10126TIP3    H251794   3.495   0.199   3.510  0.7108  1.3928 -0.5385
10127TIP3   OH251795   0.727   5.547  15.124  0.2117 -0.9905 -0.1950
10127TIP3    H151796   0.806   5.501  15.152 -0.7518 -2.1586  0.7260
10127TIP3    H251797   0.690   5.583  15.204 -0.3416 -0.6991 -0.5691
10128TIP3   OH251798   2.303   5.309  16.599 -0.0660 -0.4983 -0.4325
10128TIP3    H151799   2.386   5.323  16.644 -1.7183  1.4780  2.2853
10128TIP3    H251800   2.323   5.323  16.506  2.7087 -0.6686  0.0675
10129TIP3   OH251801   5.712   3.813  15.873 -0.9102  0.0095  0.1860
10129TIP3    H151802   5.631   3.818  15.821 -0.5032  2.3362 -0.3202
10129TIP3    H251803   5.763   3.743  15.832 -1.6864  0.0809 -0.9434
10130TIP3   OH251804   0.966   6.556  13.689  0.0954  0.4968  0.0169
10130TIP3    H151805   1.004   6.501  13.757  0.7146 -2.8159 -2.7005
10130TIP3    H251806   1.041   6.581  13.634 -0.7928 -0.7453 -1.8728
10131TIP3   OH251807   2.464   5.403  13.899  0.3696 -0.2307  0.4901
10131TIP3    H151808   2.440   5.396  13.807 -0.8368  0.4890  0.7314
10131TIP3    H251809   2.463   5.313  13.931  1.8668 -0.6008 -0.4404
10132TIP3   OH251810   0.925   2.702   4.062 -0.0916  0.6190  0.1280
10132TIP3    H151811   0.936   2.652   4.142 -1.0413  0.5388  0.2207
10132TIP3    H251812   0.972   2.784   4.077  0.7769  0.0987  0.2860
10133TIP3   OH251813   5.971   2.023  15.518  0.1548 -0.5340 -0.1298
10133TIP3    H151814   6.019   2.029  15.435 -1.3331  0.4389 -0.9798
10133TIP3    H251815   5.885   1.989  15.492 -0.1743 -0.6641  1.0966
10134TIP3   OH251816   2.848   6.661  12.976 -0.0534  0.0630 -0.2761
10134TIP3    H151817   2.886   6.726  12.916  0.8391  1.7111  1.9357
10134TIP3    H251818   2.755   6.658  12.951  0.0189  1.6857 -0.9102
10135TIP3   OH251819   2.582   6.254   3.542 -0.3063  0.5903  0.0650
10135TIP3    H151820   2.668   6.221   3.515 -0.3490 -0.5987  1.2607
10135TIP3    H251821   2.575   6.340   3.501  0.9154  0.1713 -1.0737
10136TIP3   OH251822   0.483   1.202  16.367  0.2708  0.2194  0.3143
10136TIP3    H151823   0.418   1.136  16.345  0.5524 -0.2022  0.7086
10136TIP3    H251824   0.558   1.181  16.310  0.0791  0.6754 -0.1078
10137TIP3   OH251825   2.556   2.173  13.196 -0.2738  0.8889  0.3155
10137TIP3    H151826   2.509   2.186  13.113 -0.9470 -0.7176  0.4159
10137TIP3    H251827   2.522   2.091  13.231  2.7229 -0.5133  0.3098
10138TIP3   OH251828   2.170   1.672   0.109 -0.2735  0.4496  0.5857
10138TIP3    H151829   2.253   1.645   0.070 -0.2219  1.9631 -0.4400
10138TIP3    H251830   2.108   1.604   0.084  0.4102 -0.1190  0.4168
10139TIP3   OH251831   1.993   6.746   3.372  0.2787  0.6485  0.0961
10139TIP3    H151832   1.955   6.715   3.454  0.4837  0.4165  0.1038
10139TIP3    H251833   1.987   6.842   3.378 -0.2447  0.6167  0.1196
10140TIP3   OH251834   5.588   0.261   4.581 -0.5707 -0.5337  0.3816
10140TIP3    H151835   5.612   0.264   4.489 -1.4852 -1.1187  0.1163
10140TIP3    H251836   5.566   0.169   4.597 -0.1432 -0.5013  1.2619
10141TIP3   OH251837   6.222   5.071  17.054  0.0941 -0.0847  0.2540
10141TIP3    H151838   6.265   4.987  17.040 -0.4179 -0.5171  1.1847
10141TIP3    H251839   6.240   5.121  16.974 -0.5365 -1.4661 -0.7914
10142TIP3   OH251840   5.982   4.705   2.495 -0.1663  0.1913 -0.3600
10142TIP3    H151841   6.036   4.667   2.426 -0.4334  1.2973 -1.2094
10142TIP3    H251842   5.973   4.797   2.471 -1.0298  0.4011  0.6652
10143TIP3   OH251843   3.143   1.644   3.886 -0.5730  0.1831  0.2202
10143TIP3    H151844   3.070   1.588   3.862 -0.2722 -0.0467 -0.1827
10143TIP3    H251845   3.176   1.677   3.802 -0.2660  0.3456  0.4029
10144TIP3   OH251846   5.216   1.741  13.741 -0.3890 -0.3629 -0.6428
10144TIP3    H151847   5.150   1.712  13.678 -0.0969  0.6752 -1.4734
10144TIP3    H251848   5.268   1.663  13.759 -2.6282 -1.5462  1.1032
10145TIP3   OH251849   2.043   5.950   2.967  0.0406 -0.5587  0.1255
10145TIP3    H151850   2.126   5.909   2.992 -0.1982 -0.3095  1.3848
10145TIP3    H251851   1.982   5.923   3.035 -0.3391  1.1487  0.5024
10146TIP3   OH251852   2.135   6.168   2.604  0.0255  0.2717 -0.6029
10146TIP3    H151853   2.143   6.165   2.509 -0.5647  0.7801 -0.6777
10146TIP3    H251854   2.055   6.120   2.623  0.5409 -0.4771 -0.2962
10147TIP3   OH251855   5.072   0.881   0.975  1.2260  0.6377  0.0099
10147TIP3    H151856   5.054   0.822   0.902  2.0178  0.5454 -0.1239
10147TIP3    H251857   4.986   0.909   1.005  0.8314 -0.6036  0.0965
10148TIP3   OH251858   1.926   3.498  16.678  0.1637  0.3191 -0.0047
10148TIP3    H151859   1.938   3.502  16.583  1.0852 -0.7181  0.0542
10148TIP3    H251860   1.853   3.557  16.695  1.7416  2.7426 -1.0437
10149TIP3   OH251861   1.447   5.285  14.925 -0.0735 -0.2881 -0.2715
10149TIP3    H151862   1.410   5.268  15.011 -0.3497  0.6901 -0.1905
10149TIP3    H251863   1.372   5.304  14.869  0.1258 -0.6459 -0.6758
10150TIP3   OH251864   4.467   3.045  15.867 -0.5719  0.2032 -0.2095
10150TIP3    H151865   4.486   3.139  15.869  0.0441  0.0764  0.0182
10150TIP3    H251866   4.373   3.040  15.886 -0.7777  0.8134 -0.9930
10151TIP3   OH251867   5.382   5.266  11.791  0.5951  0.0556 -0.3092
10151TIP3    H151868   5.365   5.210  11.867  1.0744 -0.0139 -0.2507
10151TIP3    H251869   5.353   5.213  11.716 -0.1748  0.2481 -0.1605
10152TIP3   OH251870   1.310   4.982   5.537  0.1907  0.3693  0.1887
10152TIP3    H151871   1.280   4.900   5.499  0.0889 -0.5636  2.1770
10152TIP3    H251872   1.359   4.956   5.615  1.0803  2.1531  0.2759
10153TIP3   OH251873   0.989   5.688  12.072  0.3687  0.3688  0.0170
10153TIP3    H151874   0.977   5.598  12.101  1.9334  0.4919  1.1571
10153TIP3    H251875   0.955   5.742  12.143  1.4386  0.6696  0.3157
10154TIP3   OH251876   4.452   0.966  12.353  0.0611  0.0941 -0.0665
10154TIP3    H151877   4.471   0.903  12.283  1.5596 -1.3064  1.4855
10154TIP3    H251878   4.531   1.020  12.358 -0.3280  0.6447  0.0631
10155TIP3   OH251879   3.367   5.115   3.928  0.2883 -0.3633 -0.3042
10155TIP3    H151880   3.323   5.037   3.893  0.7192 -0.3031 -1.0072
10155TIP3    H251881   3.295   5.171   3.957 -0.0032 -1.3216  0.8895
10156TIP3   OH251882   3.391   5.594  11.876  0.2423 -0.0728  0.2262
10156TIP3    H151883   3.329   5.645  11.825  0.7470 -1.2709 -1.7096
10156TIP3    H251884   3.369   5.612  11.968 -0.1200  2.8745 -0.3647
10157TIP3   OH251885   2.294   2.891  16.855 -0.0708 -0.2565  0.0641
10157TIP3    H151886   2.319   2.983  16.841  0.4181 -0.4461 -0.3340
10157TIP3    H251887   2.280   2.856  16.767 -0.8080 -0.4153  0.2431
10158TIP3   OH251888   5.425   2.254  13.374  0.6065 -0.9804  0.3295
10158TIP3    H151889   5.347   2.227  13.326  0.4140 -1.3666  0.8510
10158TIP3    H251890   5.438   2.186  13.439  0.0485  0.2046  1.7531
10159TIP3   OH251891   3.760   6.323   3.545 -0.3209 -0.1085 -0.2360
10159TIP3    H151892   3.803   6.403   3.517  0.0395  0.5878  2.0848
10159TIP3    H251893   3.668   6.347   3.557 -0.0701  0.2148  1.2186
10160TIP3   OH251894   2.205   4.155  13.139 -0.1996 -0.1863  0.5649
10160TIP3    H151895   2.179   4.227  13.081 -0.8682  0.3283  1.4968
10160TIP3    H251896   2.136   4.150  13.205  0.9441 -0.2298  1.7961
10161TIP3   OH251897   4.478   4.648  11.260  0.2590  0.1152 -0.1408
10161TIP3    H151898   4.516   4.728  11.295 -0.1696  0.3687 -0.2562
10161TIP3    H251899   4.545   4.614  11.201 -0.6821  1.9678 -2.4429
10162TIP3   OH251900   0.864   4.643   0.042 -0.3973 -0.3787 -0.1351
10162TIP3    H151901   0.885   4.557   0.078  0.7271 -0.5299 -1.0963
10162TIP3    H251902   0.943   4.695   0.055 -0.7306  0.2218 -0.4388
10163TIP3   OH251903   0.852   6.099   4.351 -0.0070  0.4042 -0.4273
10163TIP3    H151904   0.926   6.039   4.340 -0.4681 -1.6478  4.9469
10163TIP3    H251905   0.781   6.059   4.299  0.6310 -2.0106  0.4283
10164TIP3   OH251906   3.849   6.540  15.772  0.2791  0.0379 -0.4482
10164TIP3    H151907   3.920   6.507  15.827 -0.8622 -0.6108  0.6805
10164TIP3    H251908   3.821   6.465  15.720  0.0524  0.1533 -0.4942
10165TIP3   OH251909   6.163   5.915   5.659  0.0439 -0.5050  0.4467
10165TIP3    H151910   6.230   5.910   5.591 -1.7780  1.9237 -1.6946
10165TIP3    H251911   6.080   5.918   5.612 -1.6667 -2.6800  2.9708
10166TIP3   OH251912   4.904   2.357   0.890  0.0273  0.4725  0.2326
10166TIP3    H151913   4.938   2.274   0.857 -0.7505  0.9232 -1.8432
10166TIP3    H251914   4.815   2.337   0.919  0.2220  0.3695  0.7731
10167TIP3   OH251915   6.083   4.490  12.206 -0.7330  0.0656 -0.3183
10167TIP3    H151916   6.043   4.488  12.119 -0.7027  1.6124 -0.3941
10167TIP3    H251917   6.036   4.423  12.255 -1.3261 -0.2473 -1.2806
10168TIP3   OH251918   4.590   1.103   2.541  0.4893  0.9048  0.0857
10168TIP3    H151919   4.525   1.085   2.472  1.1413  0.3198 -0.3917
10168TIP3    H251920   4.538   1.134   2.615 -0.1874  2.0518 -0.8269
10169TIP3   OH251921   3.783   5.812  16.500 -0.4338 -0.1554 -0.1280
10169TIP3    H151922   3.690   5.831  16.510 -0.0835  1.9621 -0.3418
10169TIP3    H251923   3.801   5.827  16.407  0.3068  0.4709  0.1093
10170TIP3   OH251924   2.815   1.332   1.502  0.1546  0.2018  0.0357
10170TIP3    H151925   2.894   1.279   1.504 -0.2711 -0.4162  0.8876
10170TIP3    H251926   2.816   1.373   1.415 -0.4040 -2.5976 -1.3824
10171TIP3   OH251927   3.775   0.266   2.163 -0.6333 -0.3851  0.1099
10171TIP3    H151928   3.685   0.241   2.142 -0.0033 -1.5623 -1.3158
10171TIP3    H251929   3.772   0.361   2.172 -1.6961 -0.1934 -1.7866
10172TIP3   OH251930   5.401   2.950  12.621  0.0277  0.2765  0.0388
10172TIP3    H151931   5.374   3.022  12.564 -1.9377 -0.0986  0.4437
10172TIP3    H251932   5.404   2.873  12.564 -0.9585  0.0962  0.2105
10173TIP3   OH251933   4.765   5.180  14.557 -0.9318  0.6017  1.2547
10173TIP3    H151934   4.845   5.142  14.593 -0.5982 -1.4646 -1.4006
10173TIP3    H251935   4.790   5.269  14.533  0.5560  0.0465  0.6392
10174TIP3   OH251936   4.126   6.696  17.079  0.2725  0.0241  0.0879
10174TIP3    H151937   4.195   6.721  17.141  0.0312 -0.0968  0.4089
10174TIP3    H251938   4.170   6.641  17.015  0.4920  0.0116  0.2477
10175TIP3   OH251939   4.346   0.343  10.383 -0.8128 -0.2518  0.6158
10175TIP3    H151940   4.282   0.272  10.383  0.7223 -1.7331  2.6047
10175TIP3    H251941   4.427   0.302  10.355  0.4657  0.2779  3.2511
10176TIP3   OH251942   5.190   4.021   1.026 -0.1737 -0.0358 -0.0314
10176TIP3    H151943   5.160   3.965   1.097  0.8119  0.0607  0.4909
10176TIP3    H251944   5.110   4.050   0.982 -0.7041 -1.8683 -0.3591
10177TIP3   OH251945   5.273   4.822   3.436 -0.6873  0.4723 -0.0337
10177TIP3    H151946   5.247   4.818   3.528 -0.0507 -2.8454  0.1349
10177TIP3    H251947   5.199   4.785   3.388  0.7942 -2.5863 -0.2265
10178TIP3   OH251948   2.874   3.263  13.617 -0.5174 -0.0342  0.0045
10178TIP3    H151949   2.851   3.286  13.707  2.1185  0.3256  0.6723
10178TIP3    H251950   2.908   3.345  13.580 -0.6165 -0.4291 -0.9895
10179TIP3   OH251951   3.845   1.154  10.711 -0.0900 -0.7604 -0.2722
10179TIP3    H151952   3.764   1.187  10.673  0.6527 -0.5832 -1.7601
10179TIP3    H251953   3.838   1.059  10.702 -0.3092 -0.7759  0.0156
10180TIP3   OH251954   5.102   6.672  16.149 -0.1982 -0.0305 -0.5881
10180TIP3    H151955   5.188   6.629  16.157  0.5916  1.6943  0.6698
10180TIP3    H251956   5.111   6.728  16.072 -0.7695 -1.0189 -1.4057
10181TIP3   OH251957   6.473   2.767   1.729 -0.4908 -0.4202  0.5242
10181TIP3    H151958   6.450   2.858   1.746  0.5319 -0.2153  0.9004
10181TIP3    H251959   6.395   2.717   1.755 -0.5229  0.2350  1.7631
10182TIP3   OH251960   3.066   2.965  14.601  0.0373 -0.8179 -0.4174
10182TIP3    H151961   3.144   2.981  14.654 -0.5368  1.8358 -0.2387
10182TIP3    H251962   3.092   2.992  14.513 -0.5984 -0.0989 -0.3928
10183TIP3   OH251963   4.284   2.937   4.730  0.0053 -0.1186 -0.2906
10183TIP3    H151964   4.192   2.935   4.755  0.7343 -1.5202  2.7936
10183TIP3    H251965   4.302   2.849   4.697 -0.0528  0.6333 -2.5123
10184TIP3   OH251966   2.596   3.811   5.252 -0.8090  0.0321 -0.1287
10184TIP3    H151967   2.501   3.796   5.251 -0.9094  0.4472 -2.8759
10184TIP3    H251968   2.605   3.905   5.269 -0.8585 -0.0586  0.4212
10185TIP3   OH251969   5.965   1.103  11.452  0.0600 -0.4269  0.3968
10185TIP3    H151970   5.887   1.157  11.466  1.5162  1.3273  2.5373
10185TIP3    H251971   5.971   1.092  11.358 -0.4558  3.0754 -0.1820
10186TIP3   OH251972   4.825   3.603  11.395 -0.0187 -0.2189 -0.0166
10186TIP3    H151973   4.836   3.508  11.385 -0.8936 -0.2730 -0.5524
10186TIP3    H251974   4.731   3.618  11.385  0.2126  0.8136 -0.8548
10187TIP3   OH251975   6.157   0.450   2.138  0.1882 -0.0185  0.4692
10187TIP3    H151976   6.126   0.413   2.056 -0.3579  1.9316 -0.2456
10187TIP3    H251977   6.209   0.526   2.112  0.0264  0.6202  1.9266
10188TIP3   OH251978   1.028   1.766  14.476  0.8174  0.1154  0.2024
10188TIP3    H151979   1.116   1.748  14.510  1.5542  0.6387 -1.3465
10188TIP3    H251980   1.029   1.731  14.387  0.4676  2.7428 -0.9291
10189TIP3   OH251981   5.599   3.903  16.805  0.3329  0.1840  0.9895
10189TIP3    H151982   5.677   3.937  16.760 -0.7910  2.4209  0.6028
10189TIP3    H251983   5.550   3.858  16.737  0.2935  0.5776  0.7526
10190TIP3   OH251984   5.758   6.118  11.953  0.2565  0.4839  0.0085
10190TIP3    H151985   5.774   6.177  11.879 -0.7446  1.3386  0.4539
10190TIP3    H251986   5.673   6.145  11.987 -0.2452 -1.2320  0.2179
10191TIP3   OH251987   2.401   5.993   1.062  0.5545 -0.1703 -0.9084
10191TIP3    H151988   2.309   6.019   1.059  1.0053  1.8159  0.7301
10191TIP3    H251989   2.402   5.912   1.114 -0.0453  1.2184  1.3851
10192TIP3   OH251990   0.123   4.156  16.108 -0.0888 -0.1501  0.3287
10192TIP3    H151991   0.043   4.189  16.068 -0.7591 -0.3945  1.4148
10192TIP3    H251992   0.193   4.209  16.071 -0.8132  0.4505 -0.2029
10193TIP3   OH251993   5.589   0.895   2.036  0.4970 -0.6780 -0.7401
10193TIP3    H151994   5.589   0.898   1.940  1.4904 -2.4564 -0.8276
10193TIP3    H251995   5.681   0.878   2.059  0.5772  1.2589  0.6291
10194TIP3   OH251996   5.741   4.843  13.869  0.0307 -0.1712  0.7198
10194TIP3    H151997   5.827   4.805  13.851  0.1152  0.0624  0.6339
10194TIP3    H251998   5.718   4.809  13.956 -0.0426 -0.6880  0.5042
10195TIP3   OH251999   4.913   0.112   4.042  0.8359 -0.2406  0.1796
10195TIP3    H152000   4.900   0.044   3.975  0.2786 -0.4126  0.4578
10195TIP3    H252001   4.915   0.194   3.992 -2.7186 -0.0261  0.1695
10196TIP3   OH252002   1.456   6.053  13.958  0.1279 -0.1532 -0.1046
10196TIP3    H152003   1.483   5.963  13.944  1.6429  0.5284 -1.8683
10196TIP3    H252004   1.457   6.064  14.053 -0.6753 -2.1361  0.1690
10197TIP3   OH252005   5.113   3.436  13.624  0.0125  0.6815  0.4445
10197TIP3    H152006   5.078   3.473  13.542 -3.1188 -2.5449  0.0851
10197TIP3    H252007   5.098   3.505  13.689 -0.9811  1.9127 -1.0097
10198TIP3   OH252008   4.256   3.784  13.063 -0.4477 -0.0145 -0.2788
10198TIP3    H152009   4.332   3.840  13.045 -0.8256 -0.0303 -2.1541
10198TIP3    H252010   4.284   3.728  13.135  1.6964 -0.6499 -1.5277
10199TIP3   OH252011   3.616   6.664   2.991 -0.3020 -0.2485  0.1715
10199TIP3    H152012   3.582   6.692   3.076 -0.7949 -0.1223 -0.0582
10199TIP3    H252013   3.708   6.689   2.992 -0.3682 -0.0154  0.5708
10200TIP3   OH252014   6.659   1.359  14.800 -0.1570 -0.4834  0.0273
10200TIP3    H152015   6.641   1.266  14.796 -0.6257 -0.3740 -0.6042
10200TIP3    H252016   6.572   1.400  14.801 -0.0768  0.0727 -3.3912
10201TIP3   OH252017   2.726   2.847   2.399  0.2948 -0.6204  0.0646
10201TIP3    H152018   2.695   2.764   2.434  0.7763 -1.6125 -1.7244
10201TIP3    H252019   2.699   2.846   2.307  2.5888 -0.0274 -0.6958
10202TIP3   OH252020   5.929   1.371  14.131 -0.1854  0.4528 -0.0022
10202TIP3    H152021   5.978   1.431  14.187  1.5263 -1.1514  0.3531
10202TIP3    H252022   5.869   1.327  14.191 -1.0830  1.4203 -0.1714
10203TIP3   OH252023   3.553   4.016  13.052  0.2413  0.0693 -0.7446
10203TIP3    H152024   3.642   4.000  13.082  0.2580 -0.0922 -0.8779
10203TIP3    H252025   3.516   3.929  13.039 -0.9108  0.0311  2.0877
10204TIP3   OH252026   0.092   3.863  16.178  1.1560  0.0059  0.3103
10204TIP3    H152027   0.079   3.957  16.180 -0.1459 -0.1642  0.5979
10204TIP3    H252028   0.173   3.851  16.128  1.9588  1.3245  1.2324
10205TIP3   OH252029   2.976   2.975   4.605 -0.2088 -0.2122 -0.2526
10205TIP3    H152030   3.027   3.038   4.554 -0.0910 -0.8152 -0.9006
10205TIP3    H252031   2.886   3.006   4.599  0.1122  1.2283  1.4351
10206TIP3   OH252032   2.351   0.743   6.296  0.1742  0.6560  0.0894
10206TIP3    H152033   2.363   0.783   6.382 -0.8618  2.4701 -0.5626
10206TIP3    H252034   2.425   0.776   6.244 -0.4669  1.4388 -0.3418
10207TIP3   OH252035   0.036   3.088  11.054  0.4511 -0.5108 -0.2736
10207TIP3    H152036  -0.048   3.122  11.085  0.9695  0.3960  0.1761
10207TIP3    H252037   0.030   3.092  10.959  0.9257  2.0438 -0.2675
10208TIP3   OH252038   2.756   0.089   0.899  0.0839  0.0876 -0.8371
10208TIP3    H152039   2.771   0.019   0.836  0.0627  0.3094 -1.0876
10208TIP3    H252040   2.798   0.058   0.980 -0.3863 -0.4486 -0.7958
10209TIP3   OH252041   6.605   5.875  13.712 -0.0717  0.2460 -0.4048
10209TIP3    H152042   6.668   5.920  13.769 -1.9369  2.5448 -0.0333
10209TIP3    H252043   6.521   5.915  13.732 -1.6103 -2.2676 -1.3666
10210TIP3   OH252044   4.862   0.392   5.179  0.0335  0.2551  0.0328
10210TIP3    H152045   4.789   0.338   5.147 -3.0980  3.5124  0.9595
10210TIP3    H252046   4.871   0.369   5.271  2.0478 -1.9074 -0.6171
10211TIP3   OH252047   4.619   6.585   4.336 -0.4155  0.0283 -0.2885
10211TIP3    H152048   4.578   6.647   4.276  0.7739  1.2214  0.0966
10211TIP3    H252049   4.548   6.557   4.393 -1.1687  0.2879 -1.0690
10212TIP3   OH252050   4.549   2.130  13.447  0.0761 -0.2308  0.0915
10212TIP3    H152051   4.474   2.071  13.441 -1.2043  1.4122 -0.9113
10212TIP3    H252052   4.596   2.100  13.525 -1.8735 -1.0370  1.0350
10213TIP3   OH252053   1.520   2.394   5.331 -0.4854 -0.0188  0.2783
10213TIP3    H152054   1.470   2.476   5.324  0.1592  0.3096 -0.6442
10213TIP3    H252055   1.543   2.388   5.424  1.1248  1.8891  0.0875
10214TIP3   OH252056   6.806   2.031  12.870 -0.3248  0.2469 -0.2526
10214TIP3    H152057   6.800   2.032  12.774 -0.5025 -0.9372 -0.2736
10214TIP3    H252058   6.721   1.998  12.899  0.8775 -2.9405  0.1059
10215TIP3   OH252059   0.905   6.651  11.721  0.1488 -0.0793  0.3812
10215TIP3    H152060   0.835   6.608  11.770  0.6535 -0.7362  0.5283
10215TIP3    H252061   0.905   6.609  11.635  1.2413 -1.0525  0.8223
10216TIP3   OH252062   4.021   0.909  15.429 -0.0781  0.2669  0.3987
10216TIP3    H152063   3.960   0.879  15.497  2.1748  0.7726  2.8256
10216TIP3    H252064   4.083   0.837  15.420  0.3006  0.6783 -0.2903
10217TIP3   OH252065   0.600   3.369  16.658  0.6255 -0.2159 -0.5450
10217TIP3    H152066   0.595   3.447  16.714 -0.9002 -0.1867 -0.6847
10217TIP3    H252067   0.637   3.301  16.714 -0.1753  0.0098  0.2701
10218TIP3   OH252068   0.765   4.597  13.282  0.0462 -0.2300 -0.1590
10218TIP3    H152069   0.764   4.693  13.279  3.1254 -0.0798  0.2540
10218TIP3    H252070   0.695   4.571  13.222 -0.7202  2.2572 -0.4839
10219TIP3   OH252071   1.624   6.315   5.104 -0.4168 -0.4878 -0.1211
10219TIP3    H152072   1.617   6.306   5.009 -0.1444 -3.7090  0.0652
10219TIP3    H252073   1.718   6.307   5.121 -0.3140  1.2699  0.4173
10220TIP3   OH252074   1.254   4.064   2.777  0.6756 -0.0480 -0.4447
10220TIP3    H152075   1.337   4.025   2.749  1.5043  1.5691 -0.3396
10220TIP3    H252076   1.199   4.061   2.698  0.5814 -1.6493 -0.3638
10221TIP3   OH252077   1.520   1.805   5.009  0.1926  0.2351 -0.1827
10221TIP3    H152078   1.486   1.783   5.096  0.1444 -2.1858 -0.7495
10221TIP3    H252079   1.450   1.858   4.969 -0.6605 -0.3115  0.5350
10222TIP3   OH252080   2.793   1.928  16.535  0.0400 -1.1507  0.0483
10222TIP3    H152081   2.879   1.938  16.576 -0.3263 -0.6203  0.7026
10222TIP3    H252082   2.743   1.874  16.596 -0.5011 -0.3796  0.3053
10223TIP3   OH252083   2.276   1.291  16.460 -0.2449  0.1909 -0.3955
10223TIP3    H152084   2.337   1.218  16.453 -0.4524 -0.0045 -0.1704
10223TIP3    H252085   2.214   1.265  16.529 -0.3726  0.5363 -0.3755
10224TIP3   OH252086   3.276   6.629  11.092  0.2269 -0.2119 -0.2153
10224TIP3    H152087   3.295   6.537  11.074 -0.8446 -0.5136  0.1434
10224TIP3    H252088   3.314   6.676  11.018 -1.7183 -1.1928 -1.9331
10225TIP3   OH252089   0.960   0.195   3.630 -0.3357 -0.3751  0.2156
10225TIP3    H152090   0.892   0.130   3.643 -0.0518 -0.7576 -0.1903
10225TIP3    H252091   0.968   0.239   3.715 -2.0718  0.6419 -0.1049
10226TIP3   OH252092   5.686   5.745   0.202 -0.3132 -0.1391 -0.0304
10226TIP3    H152093   5.775   5.780   0.201 -0.7425  0.9777 -0.4421
10226TIP3    H252094   5.667   5.729   0.295  0.1609  0.0031  0.0917
10227TIP3   OH252095   2.421   4.493   6.177  0.1677  0.1859  0.4236
10227TIP3    H152096   2.418   4.588   6.186 -3.1348  0.4135 -1.4817
10227TIP3    H252097   2.337   4.463   6.211  1.5484 -2.2594  1.9691
10228TIP3   OH252098   4.181   4.400  16.810 -0.4455 -0.6322 -0.0967
10228TIP3    H152099   4.163   4.428  16.900 -1.8896 -0.3876 -0.4402
10228TIP3    H252100   4.133   4.462  16.755  1.2151 -0.1715 -1.1018
10229TIP3   OH252101   6.188   4.896  13.683 -0.1388  0.1047  0.0566
10229TIP3    H152102   6.200   4.991  13.677 -0.3228  0.1812  0.8372
10229TIP3    H252103   6.176   4.868  13.592  0.6187  0.7311 -0.2543
10230TIP3   OH252104   0.564   3.407   5.354 -0.3499  0.0367  0.3340
10230TIP3    H152105   0.637   3.455   5.315 -0.8655  1.2166  0.7566
10230TIP3    H252106   0.493   3.416   5.290 -0.4581 -0.1382  0.4302
10231TIP3   OH252107   1.283   2.791   0.668  0.3886  0.1301 -0.0421
10231TIP3    H152108   1.350   2.859   0.675  0.7415  0.1302 -2.5336
10231TIP3    H252109   1.333   2.712   0.645 -0.2032 -0.5625  0.9849
10232TIP3   OH252110   0.936   1.490  15.655 -0.4934  0.4359 -0.0764
10232TIP3    H152111   1.023   1.452  15.669  0.3686  2.5684  0.7275
10232TIP3    H252112   0.875   1.420  15.681  0.9610 -0.7481  0.2992
10233TIP3   OH252113   2.158   2.018   2.393  0.0930 -0.0428 -0.2800
10233TIP3    H152114   2.194   2.106   2.402  0.8038 -0.2783 -0.7008
10233TIP3    H252115   2.208   1.979   2.321 -0.3055 -0.7446 -0.1897
10234TIP3   OH252116   5.990   5.571   1.838  0.3047  0.2290  0.2005
10234TIP3    H152117   5.928   5.502   1.863 -1.4404  1.9173  0.7577
10234TIP3    H252118   6.046   5.530   1.773  0.4739 -2.2382  1.7561
10235TIP3   OH252119   6.696   6.166   0.479  0.1785  0.6801  0.1154
10235TIP3    H152120   6.787   6.181   0.505  1.1522 -2.4193 -0.9818
10235TIP3    H252121   6.650   6.150   0.561  0.8141  1.3980  0.6257
10236TIP3   OH252122   6.495   2.795   6.019  0.3314 -0.1160  0.1887
10236TIP3    H152123   6.529   2.707   6.008 -0.5208 -0.2547 -1.9518
10236TIP3    H252124   6.443   2.792   6.099  0.1189 -1.6194  0.0122
10237TIP3   OH252125   6.556   3.424  11.180 -0.6280  0.1181 -0.0221
10237TIP3    H152126   6.579   3.452  11.092 -0.6019  0.1460 -0.0064
10237TIP3    H252127   6.580   3.332  11.183 -0.7122  0.0943 -0.0724
10238TIP3   OH252128   2.802   3.699   2.028  0.3535 -0.1952 -0.0712
10238TIP3    H152129   2.785   3.685   1.935  0.2983 -2.2546  0.1977
10238TIP3    H252130   2.897   3.692   2.036  0.3315 -0.3426  0.0640
10239TIP3   OH252131   2.902   5.378  12.874  0.7076  0.7872 -0.2080
10239TIP3    H152132   2.972   5.424  12.921 -0.7333  0.1740  2.8067
10239TIP3    H252133   2.824   5.431  12.891 -0.2113 -0.5136 -0.2691
10240TIP3   OH252134   4.009   1.528  15.976 -0.3398  0.4234  0.2721
10240TIP3    H152135   3.922   1.522  15.936 -0.3911  0.7763  0.3338
10240TIP3    H252136   4.016   1.448  16.028 -0.2949 -0.0193 -0.3949
10241TIP3   OH252137   4.894   3.516  16.962  0.4367 -0.5018  0.3543
10241TIP3    H152138   4.937   3.431  16.968 -0.1820 -0.8225  0.3514
10241TIP3    H252139   4.880   3.543  17.053  1.8073  0.2212  0.3788
10242TIP3   OH252140   1.290   1.051   5.149  0.4967  0.7273 -0.1820
10242TIP3    H152141   1.316   1.128   5.200 -0.9285  0.5472  0.8811
10242TIP3    H252142   1.272   1.084   5.061 -0.7523  1.7532  0.4293
10243TIP3   OH252143   4.800   5.437   4.809 -0.0629  0.1432  0.4533
10243TIP3    H152144   4.819   5.523   4.846 -1.8609  1.5044 -1.5538
10243TIP3    H252145   4.742   5.455   4.735  1.1242 -2.6279 -1.3102
10244TIP3   OH252146   3.164   3.381   0.674 -0.2488 -0.0064  0.2292
10244TIP3    H152147   3.102   3.424   0.615 -0.7810  1.0958  1.5359
10244TIP3    H252148   3.114   3.367   0.755  0.6285 -0.9490  0.6364
10245TIP3   OH252149   4.337   2.610  14.245 -0.1616  0.2899 -0.1476
10245TIP3    H152150   4.258   2.567  14.279 -0.2293  0.3712 -0.2027
10245TIP3    H252151   4.307   2.694  14.213  0.2250  1.0873  1.4714
10246TIP3   OH252152   6.761   0.002   5.148  0.2440 -0.0928 -0.3238
10246TIP3    H152153   6.726   0.038   5.067 -0.3594 -1.3155 -0.6253
10246TIP3    H252154   6.685  -0.007   5.206  0.5820  0.2610  0.1858
10247TIP3   OH252155   0.697   1.144  16.931  0.0938  0.0749 -0.3479
10247TIP3    H152156   0.646   1.082  16.879  1.1519 -0.7021 -0.4983
10247TIP3    H252157   0.785   1.142  16.892 -0.1528  2.7630 -1.2882
10248TIP3   OH252158   3.940   6.450   6.206 -0.6698 -0.2750  0.1101
10248TIP3    H152159   4.023   6.431   6.161  1.3691 -0.3657  3.5438
10248TIP3    H252160   3.923   6.542   6.185  0.0335 -0.3616 -0.9905
10249TIP3   OH252161   3.450   6.452   3.403 -0.0035 -0.0808 -0.3567
10249TIP3    H152162   3.484   6.530   3.447 -1.1288  0.6854 -0.8123
10249TIP3    H252163   3.475   6.464   3.311 -1.3645  0.4542 -0.6845
10250TIP3   OH252164   4.482   2.817   3.749 -0.4940  0.2896 -0.2566
10250TIP3    H152165   4.401   2.832   3.701 -0.1317  0.3665 -0.8429
10250TIP3    H252166   4.485   2.888   3.814 -0.9618  0.2025 -0.1350
10251TIP3   OH252167   3.026   5.846  13.996  0.5836 -0.0740  0.0475
10251TIP3    H152168   3.086   5.890  13.935  0.3694  0.2261  0.0533
10251TIP3    H252169   2.948   5.828  13.944 -0.1823  1.5069  0.6068
10252TIP3   OH252170   5.624   4.690   0.187 -0.1216 -0.2729  0.1127
10252TIP3    H152171   5.588   4.633   0.255  0.3380 -0.9262 -0.1911
10252TIP3    H252172   5.592   4.654   0.105 -1.4766  1.0768 -0.0003
10253TIP3   OH252173   1.024   1.196  10.585  0.4911  0.6573 -0.3981
10253TIP3    H152174   1.094   1.132  10.587  0.2682  0.2743 -2.4467
10253TIP3    H252175   0.948   1.150  10.620  0.9972  0.7883  0.9566
10254TIP3   OH252176   5.753   1.703  12.120 -0.2732 -0.0430  0.1711
10254TIP3    H152177   5.798   1.758  12.184 -1.5655 -0.1095  1.1624
10254TIP3    H252178   5.708   1.764  12.063  0.3013 -0.0085 -0.2552
10255TIP3   OH252179   3.425   2.483  14.118 -0.2888 -0.6279  0.2542
10255TIP3    H152180   3.385   2.557  14.165 -2.2621  0.1358 -2.3567
10255TIP3    H252181   3.390   2.405  14.162 -1.6934  0.0398  0.3710
10256TIP3   OH252182   1.706   0.171  16.141  0.5626  0.2167 -0.2826
10256TIP3    H152183   1.789   0.125  16.141  0.1037 -0.6366 -0.8984
10256TIP3    H252184   1.661   0.142  16.220 -0.1849 -1.2886 -1.2173
10257TIP3   OH252185   0.049   0.880   2.557 -0.1197  0.6122  0.0945
10257TIP3    H152186  -0.034   0.900   2.515 -0.1494  1.1143  0.3788
10257TIP3    H252187   0.052   0.784   2.559  0.1728  0.5575 -1.5846
10258TIP3   OH252188   1.059   2.699   3.759  0.4174  0.3762 -0.0663
10258TIP3    H152189   1.076   2.674   3.850  1.2208  0.6176 -0.1414
10258TIP3    H252190   1.141   2.684   3.714  0.3048  1.1383 -0.5577
10259TIP3   OH252191   1.010   5.154  12.777  0.5163 -0.3120  0.0638
10259TIP3    H152192   1.040   5.244  12.794 -0.1740  0.0485 -0.5994
10259TIP3    H252193   0.958   5.161  12.698  0.0725 -1.2297  0.2716
10260TIP3   OH252194   5.565   1.275   4.533 -0.2642  0.0656 -0.6214
10260TIP3    H152195   5.522   1.354   4.499 -1.5108 -0.5450 -0.5450
10260TIP3    H252196   5.593   1.299   4.621 -0.2289  0.5603 -0.7633
10261TIP3   OH252197   4.026   6.706  14.139 -0.4084  0.2880 -0.1475
10261TIP3    H152198   3.944   6.674  14.178 -0.8717  0.5517 -0.8824
10261TIP3    H252199   4.067   6.756  14.209 -0.7129 -0.1170  0.3359
10262TIP3   OH252200   0.574   1.313   2.906 -0.1289 -0.1211  0.1639
10262TIP3    H152201   0.493   1.296   2.955 -0.2778 -0.8218 -0.3113
10262TIP3    H252202   0.616   1.227   2.899  0.7024  0.2451  0.4731
10263TIP3   OH252203   4.728   1.876   4.324 -0.0051  0.2515 -0.1705
10263TIP3    H152204   4.680   1.852   4.245  0.8211  1.5196 -1.0915
10263TIP3    H252205   4.678   1.949   4.362 -0.1619 -0.0683  0.2444
10264TIP3   OH252206   4.439   4.710  14.358  0.0746 -0.4373  0.3212
10264TIP3    H152207   4.417   4.619  14.335  0.4847 -0.3394 -0.4822
10264TIP3    H252208   4.377   4.763  14.308  0.8961 -0.2273 -0.5136
10265TIP3   OH252209   1.679   1.714  15.307  0.4138  0.0880  0.5066
10265TIP3    H152210   1.687   1.633  15.358  0.8886 -0.6839 -0.7420
10265TIP3    H252211   1.586   1.734  15.307  0.2104 -0.8307  0.2793
10266TIP3   OH252212   4.985   5.922  13.207  0.8257 -0.0783 -0.2986
10266TIP3    H152213   4.899   5.879  13.210 -0.6885  2.4927 -2.1126
10266TIP3    H252214   5.039   5.872  13.267 -2.1652 -1.3358  1.5903
10267TIP3   OH252215   4.833   4.528   5.435  0.2466 -0.0762  0.2690
10267TIP3    H152216   4.909   4.523   5.378 -0.1856  1.0210 -0.4394
10267TIP3    H252217   4.869   4.544   5.522  0.8854 -1.2770  0.2442
10268TIP3   OH252218   0.751   0.818  11.658 -0.3585  0.2263 -0.4415
10268TIP3    H152219   0.807   0.753  11.615 -1.2019 -0.6226 -0.2936
10268TIP3    H252220   0.809   0.864  11.718 -0.0012 -1.2639  0.4033
10269TIP3   OH252221   6.642   1.179   1.439  0.7837  0.4656  0.6586
10269TIP3    H152222   6.702   1.106   1.427  2.3443  1.6204  1.1574
10269TIP3    H252223   6.659   1.209   1.528 -0.3886  0.9673  0.7300
10270TIP3   OH252224   0.603   3.140  11.607 -0.4334 -0.5628  0.7791
10270TIP3    H152225   0.641   3.223  11.580 -1.0339 -0.3144  0.6736
10270TIP3    H252226   0.513   3.162  11.632 -0.6608 -1.2094  0.5569
10271TIP3   OH252227   1.295   4.646   5.420  0.4832 -0.3538 -0.1891
10271TIP3    H152228   1.204   4.633   5.393  0.3400  2.4745 -1.4796
10271TIP3    H252229   1.335   4.559   5.412 -2.1266 -1.7349  0.7109
10272TIP3   OH252230   5.193   1.348   6.137 -0.4650 -0.2118 -0.2945
10272TIP3    H152231   5.277   1.394   6.131 -0.1553 -0.3734  1.9820
10272TIP3    H252232   5.213   1.258   6.112  0.1885 -0.3621  0.6974
10273TIP3   OH252233   1.026   3.577  13.111  0.2331  0.8341  0.5145
10273TIP3    H152234   0.979   3.613  13.186  1.2524  2.0472  0.6004
10273TIP3    H252235   1.038   3.484  13.133 -1.9694  0.4981  0.5327
10274TIP3   OH252236   1.880   1.525   2.087  0.3280 -0.2592  0.5982
10274TIP3    H152237   1.952   1.580   2.119 -1.2169  1.1939  1.7797
10274TIP3    H252238   1.880   1.539   1.992 -0.1974  2.0867  0.8908
10275TIP3   OH252239   2.462   4.482   0.699 -1.0781  0.3803 -0.0318
10275TIP3    H152240   2.510   4.442   0.772 -2.2224  1.1864  1.2152
10275TIP3    H252241   2.525   4.483   0.627  0.6652  1.0305  1.4119
10276TIP3   OH252242   6.213   5.162  14.564 -0.3748 -0.5093  0.1975
10276TIP3    H152243   6.214   5.256  14.544 -0.5550  0.5474  4.1573
10276TIP3    H252244   6.219   5.119  14.479 -0.3320  3.0618 -1.8200
10277TIP3   OH252245   3.770   5.506  15.268  1.0905  0.3726 -0.0396
10277TIP3    H152246   3.767   5.555  15.185 -0.8985 -0.6403 -0.6310
10277TIP3    H252247   3.743   5.417  15.244  0.4384  0.0621  1.7022
10278TIP3   OH252248   5.235   4.724  14.578 -0.1281  0.2834  0.0473
10278TIP3    H152249   5.197   4.684  14.500  0.1222 -0.3967  0.2664
10278TIP3    H252250   5.206   4.668  14.650  0.6532  0.1994  0.3006
10279TIP3   OH252251   1.320   1.660  15.038  0.3988  0.4654  0.4001
10279TIP3    H152252   1.252   1.727  15.044  0.4939  0.5220  0.8928
10279TIP3    H252253   1.306   1.618  14.953  1.0492  1.8703 -0.4294
10280TIP3   OH252254   0.940   5.562   5.377 -0.0278  0.7553  0.0411
10280TIP3    H152255   0.974   5.642   5.337 -1.1005  1.2951  0.1868
10280TIP3    H252256   1.003   5.542   5.446  1.3214  0.3504 -1.2534
10281TIP3   OH252257   3.420   0.998  11.152  0.5213 -0.0445  0.0037
10281TIP3    H152258   3.352   1.050  11.194  2.1317  0.0396  2.7730
10281TIP3    H252259   3.386   0.908  11.154 -1.1993  0.4676 -2.5105
10282TIP3   OH252260   3.013   4.525  12.637  0.6692 -0.3598  0.0099
10282TIP3    H152261   2.983   4.611  12.609 -0.3508 -0.4623  0.7049
10282TIP3    H252262   3.086   4.505  12.580  1.7722  1.5316  0.6670
10283TIP3   OH252263   1.455   0.445  16.692  0.0284 -0.4383 -0.5265
10283TIP3    H152264   1.478   0.416  16.781 -0.5980  2.2605  0.6276
10283TIP3    H252265   1.373   0.400  16.673  0.0507 -0.8805  0.3497
10284TIP3   OH252266   5.911   6.673  14.995  0.1915  0.2829  0.1432
10284TIP3    H152267   5.889   6.638  15.082  0.6223  1.0644  0.5833
10284TIP3    H252268   5.835   6.653  14.941 -0.5214  0.6669  0.9677
10285TIP3   OH252269   0.212   3.287  14.480  0.2746  0.7371  0.6332
10285TIP3    H152270   0.118   3.272  14.491  0.3423  0.1290  0.4594
10285TIP3    H252271   0.247   3.201  14.457  0.3486  1.5714 -2.9240
10286TIP3   OH252272   1.240   5.823   2.586 -0.3910 -0.0260  0.4391
10286TIP3    H152273   1.209   5.905   2.626  2.1287  1.0671  0.3216
10286TIP3    H252274   1.265   5.768   2.661 -3.6415 -1.5092  0.6201
10287TIP3   OH252275   1.604   3.064  12.882 -0.8154  0.2653  0.1652
10287TIP3    H152276   1.613   3.138  12.822 -1.5556 -0.1794 -0.5140
10287TIP3    H252277   1.692   3.027  12.889 -0.4991  1.0164  0.2717
10288TIP3   OH252278   1.867   5.188   2.324  0.4765  0.4731  0.3714
10288TIP3    H152279   1.856   5.280   2.301  2.6951  0.3772 -1.3822
10288TIP3    H252280   1.927   5.189   2.398  0.1278  0.4441  0.6566
10289TIP3   OH252281   3.604   2.954   1.448  0.1877 -0.3738 -0.0919
10289TIP3    H152282   3.536   3.011   1.483 -0.2288 -1.5737  1.1517
10289TIP3    H252283   3.559   2.900   1.383  0.4957  0.4259 -0.9867
10290TIP3   OH252284   5.758   5.681   2.866  0.0663 -0.0033 -0.0750
10290TIP3    H152285   5.695   5.746   2.898 -0.6133  0.8568 -2.8780
10290TIP3    H252286   5.708   5.627   2.805  1.5747 -0.6025 -0.8338
10291TIP3   OH252287   2.760   6.410  12.322  0.0312  0.2288  0.2069
10291TIP3    H152288   2.800   6.464  12.391  1.8625  1.1183 -1.4609
10291TIP3    H252289   2.814   6.331  12.320  1.6431  1.2982 -1.8478
10292TIP3   OH252290   5.161   3.006   0.995 -0.2178  0.4285 -0.2576
10292TIP3    H152291   5.164   3.001   1.090  0.9727  0.6271 -0.2701
10292TIP3    H252292   5.122   3.092   0.977  0.5685  0.8682  0.0717
10293TIP3   OH252293   5.487   5.984   0.704  0.0106  0.3578  0.3458
10293TIP3    H152294   5.462   6.064   0.750  0.6764  0.0821  1.1931
10293TIP3    H252295   5.563   6.010   0.651 -0.3093  0.4910 -0.0601
10294TIP3   OH252296   2.823   6.030   0.155 -0.2168 -0.3425  0.0311
10294TIP3    H152297   2.892   5.970   0.183  2.7198  2.1395 -1.3124
10294TIP3    H252298   2.799   6.077   0.235  1.0697  0.0565  0.2039
10295TIP3   OH252299   5.726   1.833   1.390  0.4611  0.4999 -0.3396
10295TIP3    H152300   5.740   1.840   1.484  1.6903 -2.3363 -0.1954
10295TIP3    H252301   5.779   1.903   1.353  1.4104  0.5468  1.0226
10296TIP3   OH252302   5.076   5.776   0.570  0.6960  0.1613 -0.1634
10296TIP3    H152303   5.141   5.749   0.505 -0.3388 -1.4461 -0.5859
10296TIP3    H252304   5.127   5.789   0.650  2.0398  2.4400 -1.2756
10297TIP3   OH252305   2.826   6.281   5.184  0.4508 -0.5592 -0.6780
10297TIP3    H152306   2.904   6.329   5.156  0.2213  1.0383  1.1700
10297TIP3    H252307   2.827   6.288   5.280 -0.7489 -2.5022 -0.4791
10298TIP3   OH252308   0.811   6.043   0.369  0.1102 -0.0751 -0.2322
10298TIP3    H152309   0.841   5.957   0.397  1.7904  1.0405  1.7699
10298TIP3    H252310   0.876   6.072   0.305  0.2459  0.1882  0.0224
10299TIP3   OH252311   6.376   1.829   1.497 -0.2999 -0.1490  0.3186
10299TIP3    H152312   6.315   1.868   1.433 -0.9572  0.8016  1.4857
10299TIP3    H252313   6.321   1.804   1.571  0.4871 -0.9901  0.6356
10300TIP3   OH252314   5.071   2.672   2.065 -0.3072  0.4470  0.7890
10300TIP3    H152315   5.086   2.703   2.154 -2.2718 -0.8065  1.6354
10300TIP3    H252316   4.977   2.677   2.053 -0.6252 -3.2362  0.3655
10301TIP3   OH252317   0.994   2.906   5.677 -0.5500  0.1725  0.2024
10301TIP3    H152318   0.926   2.839   5.675 -1.5937  1.2337 -0.5622
10301TIP3    H252319   0.960   2.978   5.624  1.7206  0.2137 -1.3347
10302TIP3   OH252320   2.483   4.019   1.732  0.0066 -0.2776 -0.1625
10302TIP3    H152321   2.510   3.959   1.663  2.2731  0.1988  0.2215
10302TIP3    H252322   2.536   3.995   1.808 -0.8909  0.5748  0.7719
10303TIP3   OH252323   2.313   0.709  14.560 -0.5623  0.0511  0.0912
10303TIP3    H152324   2.276   0.788  14.598  0.5475  0.0317  1.2791
10303TIP3    H252325   2.281   0.638  14.616 -1.7692 -0.4027 -1.1224
10304TIP3   OH252326   0.847   1.287   0.852 -0.0786 -0.1269 -0.0397
10304TIP3    H152327   0.923   1.345   0.858  0.6927 -1.0344 -0.7993
10304TIP3    H252328   0.784   1.335   0.797  0.5577 -0.0227 -0.6839
10305TIP3   OH252329   1.563   0.122   5.754  0.5815 -0.8510  0.1745
10305TIP3    H152330   1.487   0.107   5.811  1.0898 -2.4659  0.4801
10305TIP3    H252331   1.617   0.185   5.801  1.3600 -2.7090  1.9098
10306TIP3   OH252332   1.260   4.679  10.680 -0.5191 -0.8830  0.3184
10306TIP3    H152333   1.333   4.674  10.743 -1.4307 -0.4634  1.4442
10306TIP3    H252334   1.303   4.690  10.595  0.7361 -0.0012  1.0232
10307TIP3   OH252335   3.158   0.939   2.257 -0.2579 -0.5102  0.5774
10307TIP3    H152336   3.119   1.023   2.279 -0.7797 -0.4879 -0.3773
10307TIP3    H252337   3.092   0.894   2.203  0.5146 -0.9882 -0.0050
10308TIP3   OH252338   1.903   6.637  11.936  0.5447 -0.3946 -0.0698
10308TIP3    H152339   1.882   6.699  12.006  0.0354 -2.4065  1.6474
10308TIP3    H252340   1.995   6.655  11.915  0.4839  0.7635  0.5286
10309TIP3   OH252341   6.496   2.427   0.796 -0.0445 -0.7053  0.0161
10309TIP3    H152342   6.480   2.333   0.787  1.3207 -0.7798 -2.0277
10309TIP3    H252343   6.591   2.437   0.788 -0.1750  0.8690  0.0832
10310TIP3   OH252344   6.073   3.751   2.063  0.2440  0.6673 -0.8824
10310TIP3    H152345   6.165   3.741   2.036  0.5371 -0.2489  0.3580
10310TIP3    H252346   6.078   3.774   2.156 -0.8054 -0.8246 -0.4327
10311TIP3   OH252347   4.352   1.861   4.140 -0.1184 -0.7341 -0.1810
10311TIP3    H152348   4.258   1.863   4.118  0.0250  1.8547 -0.8518
10311TIP3    H252349   4.396   1.885   4.058  0.9702  0.4691  0.7230
10312TIP3   OH252350   6.627   4.107  14.127 -0.5080 -0.1269  0.0525
10312TIP3    H152351   6.548   4.152  14.097 -0.9036 -0.4854  0.5339
10312TIP3    H252352   6.632   4.126  14.220 -0.8415 -1.2880  0.3256
10313TIP3   OH252353   4.722   2.666   3.774 -0.5211 -0.2205 -0.0269
10313TIP3    H152354   4.776   2.704   3.844  0.7664 -2.0879  0.0616
10313TIP3    H252355   4.640   2.715   3.778 -0.6059 -0.4068  2.9885
10314TIP3   OH252356   1.604   4.884  13.584 -0.1373 -0.2078  0.3165
10314TIP3    H152357   1.625   4.929  13.503  0.0693  0.5417  0.7758
10314TIP3    H252358   1.681   4.830  13.603 -0.1605 -0.3339  0.0555
10315TIP3   OH252359   6.446   1.975  11.619 -0.4330  1.0064 -0.2602
10315TIP3    H152360   6.457   1.886  11.587  0.6316  1.1694 -0.3734
10315TIP3    H252361   6.373   2.010  11.568  0.9417  1.1261 -2.2724
10316TIP3   OH252362   0.055   0.409   4.588  0.1363 -0.1066  0.1243
10316TIP3    H152363   0.083   0.352   4.516  1.2668 -0.9320  1.1778
10316TIP3    H252364  -0.035   0.381   4.607  0.4726 -1.1755  0.2436
10317TIP3   OH252365   3.954   0.076  10.740  0.1607 -0.3768  0.1447
10317TIP3    H152366   3.922  -0.004  10.699  1.8204 -0.3323 -1.3515
10317TIP3    H252367   4.046   0.057  10.760  0.5196  1.0685 -0.0470
10318TIP3   OH252368   4.680   0.619   1.019  0.0418 -0.0348  0.1202
10318TIP3    H152369   4.666   0.596   0.927  2.7327  2.0181 -0.9424
10318TIP3    H252370   4.604   0.672   1.042 -1.2844 -1.6030 -0.4734
10319TIP3   OH252371   4.054   4.183   1.260 -0.0437  0.0585 -0.1073
10319TIP3    H152372   4.138   4.220   1.285 -0.6338  2.2463 -1.0795
10319TIP3    H252373   4.016   4.150   1.342  1.3718 -0.1775  0.4734
10320TIP3   OH252374   1.285   2.845  10.827  0.5186  0.1090  0.1494
10320TIP3    H152375   1.360   2.898  10.800  0.6945 -0.3077 -0.1855
10320TIP3    H252376   1.223   2.851  10.753  1.0718 -1.1710 -0.4555
10321TIP3   OH252377   4.793   5.094  12.694  0.0612 -0.9696  0.2312
10321TIP3    H152378   4.719   5.143  12.729  1.1248 -0.0730  1.2521
10321TIP3    H252379   4.754   5.039  12.625 -1.6146 -0.8354  1.0277
10322TIP3   OH252380   5.990   4.024  12.870  0.4997  0.4349 -0.4234
10322TIP3    H152381   5.946   3.951  12.827 -0.5402  0.8204 -0.0455
10322TIP3    H252382   5.922   4.064  12.925  1.0945  1.5726 -0.4868
10323TIP3   OH252383   5.639   5.746   2.566 -0.1752 -0.2291 -0.0001
10323TIP3    H152384   5.667   5.816   2.625 -0.8093  1.6244 -1.7930
10323TIP3    H252385   5.656   5.780   2.478  0.1069 -2.6233 -0.9452
10324TIP3   OH252386   1.580   0.516   4.076 -0.5178 -0.2690  0.1787
10324TIP3    H152387   1.662   0.466   4.076 -0.0058  0.5464  1.2236
10324TIP3    H252388   1.518   0.461   4.125 -1.2952 -1.8942 -2.3938
10325TIP3   OH252389   4.156   3.311  14.844  0.6690  0.3041 -0.2520
10325TIP3    H152390   4.118   3.224  14.835  1.1123  0.0731  0.0518
10325TIP3    H252391   4.225   3.314  14.779  2.1872 -0.4374  1.2425
10326TIP3   OH252392   3.764   1.615   0.968 -0.4517  0.3479 -0.3492
10326TIP3    H152393   3.706   1.668   1.022 -0.6165 -0.1576 -0.0174
10326TIP3    H252394   3.744   1.524   0.993  0.0762  0.1432 -0.6423
10327TIP3   OH252395   4.208   3.157  13.058 -0.0318 -0.5052 -0.2625
10327TIP3    H152396   4.120   3.153  13.095  1.2480 -1.0450  3.1204
10327TIP3    H252397   4.214   3.079  13.003 -1.0404 -1.6369  1.1492
10328TIP3   OH252398   1.993   6.515  14.713 -0.4953 -0.8272 -0.3361
10328TIP3    H152399   2.052   6.559  14.651 -0.0817 -0.8394  0.0418
10328TIP3    H252400   2.010   6.421  14.699  1.7917 -0.8542  1.7927
10329TIP3   OH252401   1.435   4.923  15.092 -0.6714  0.0026  0.1396
10329TIP3    H152402   1.520   4.895  15.126 -0.9493  0.5154  1.3401
10329TIP3    H252403   1.454   4.954  15.004  0.1985 -0.8552  0.0005
10330TIP3   OH252404   2.251   3.515   5.332 -0.2457  0.5393  0.3413
10330TIP3    H152405   2.272   3.450   5.399 -1.0939  0.3546  0.4341
10330TIP3    H252406   2.188   3.574   5.373 -3.4409 -1.4815 -1.2416
10331TIP3   OH252407   1.968   1.235  17.045  0.1331  0.2536 -0.2288
10331TIP3    H152408   2.016   1.317  17.055  1.8096 -0.9059  2.0682
10331TIP3    H252409   1.887   1.248  17.095  0.6346  0.3676  0.5744
10332TIP3   OH252410   2.639   6.130  17.069  1.2183  0.2806  0.2575
10332TIP3    H152411   2.696   6.121  16.992  0.3384 -1.6402 -0.2325
10332TIP3    H252412   2.681   6.077  17.137  1.3923  1.0341  0.7459
10333TIP3   OH252413   1.354   3.068   4.691  0.0182  0.0195  0.2292
10333TIP3    H152414   1.303   3.040   4.767 -1.3863 -0.6180 -0.8999
10333TIP3    H252415   1.289   3.101   4.629  0.8884 -1.1867 -1.4216
10334TIP3   OH252416   2.468   2.894   6.051 -0.2921  0.3496  0.7103
10334TIP3    H152417   2.465   2.873   6.145 -0.1142  0.8587  0.8374
10334TIP3    H252418   2.482   2.810   6.008  1.3768  0.2991  1.2554
10335TIP3   OH252419   4.764   6.227   3.411  0.1293 -0.2308 -0.0406
10335TIP3    H152420   4.816   6.307   3.418  1.0392 -0.5935 -1.9464
10335TIP3    H252421   4.803   6.167   3.475 -0.1854  0.6241  0.9805
10336TIP3   OH252422   0.872   1.944   1.517  0.2382 -0.1512 -0.5784
10336TIP3    H152423   0.882   2.031   1.478  1.8973  0.1341  0.3912
10336TIP3    H252424   0.961   1.911   1.525 -0.2497 -1.3071  0.4772
10337TIP3   OH252425   4.722   5.791   1.244 -0.3090  0.7863  0.0857
10337TIP3    H152426   4.745   5.781   1.151  0.6563  1.9895  0.1636
10337TIP3    H252427   4.805   5.774   1.290 -1.2329 -2.0044  0.9290
10338TIP3   OH252428   2.075   0.667  13.486  0.3473 -0.1522 -0.6204
10338TIP3    H152429   2.113   0.580  13.500  2.6442  0.9800  0.8321
10338TIP3    H252430   2.138   0.727  13.525 -1.0975  2.2110 -1.6931
10339TIP3   OH252431   6.122   2.816  16.902 -0.1732  0.1740 -0.4065
10339TIP3    H152432   6.029   2.812  16.878 -0.1587 -0.4181 -0.3772
10339TIP3    H252433   6.145   2.725  16.923  0.3241  0.3754 -0.0763
10340TIP3   OH252434   3.427   2.798   5.125  0.9766 -0.1510 -0.0598
10340TIP3    H152435   3.348   2.803   5.071 -0.3644  0.5568  1.8487
10340TIP3    H252436   3.451   2.890   5.141  2.1332 -0.3570 -0.5083
10341TIP3   OH252437   3.664   3.172  13.054  0.0869  0.2731  0.0466
10341TIP3    H152438   3.620   3.151  12.971  0.1549 -0.0912  0.1009
10341TIP3    H252439   3.679   3.266  13.050  0.4395  0.1972 -0.5292
10342TIP3   OH252440   0.989   5.408  11.839 -0.1211 -0.1596 -0.5303
10342TIP3    H152441   0.904   5.442  11.809  0.8142  2.0344 -0.9344
10342TIP3    H252442   1.053   5.451  11.783  1.3975  0.1286  1.2971
10343TIP3   OH252443   5.214   4.328   3.043 -0.1858  0.2127  0.1925
10343TIP3    H152444   5.208   4.410   3.092  2.0509 -0.1432  1.1944
10343TIP3    H252445   5.252   4.352   2.959  0.4094  0.2354  0.4620
10344TIP3   OH252446   5.121   5.057   2.368 -0.2301  0.4579  0.2573
10344TIP3    H152447   5.069   5.137   2.360 -0.2342  0.4064 -0.2246
10344TIP3    H252448   5.203   5.076   2.324 -0.8348 -0.3240 -1.2892
10345TIP3   OH252449   5.710   3.243   3.200  0.2106  0.0044  0.8989
10345TIP3    H152450   5.704   3.339   3.195 -1.7895 -0.1249 -0.1087
10345TIP3    H252451   5.650   3.219   3.270 -0.1586 -0.5745  0.3943
10346TIP3   OH252452   4.476   5.766   4.101  0.2115 -0.1757  0.2693
10346TIP3    H152453   4.505   5.857   4.111  1.5702 -0.2061 -2.6116
10346TIP3    H252454   4.393   5.762   4.148 -0.3760  2.8201 -0.3446
10347TIP3   OH252455   0.312   6.026   4.302 -0.3439  0.2488 -0.0731
10347TIP3    H152456   0.338   6.115   4.326 -2.1398  0.6071  0.7462
10347TIP3    H252457   0.288   5.984   4.384 -1.0658 -0.4362 -0.6069
10348TIP3   OH252458   1.671   3.303  10.995  0.1348  0.1358  0.1266
10348TIP3    H152459   1.675   3.399  10.993  1.5510  0.1044  0.5772
10348TIP3    H252460   1.762   3.275  11.009 -0.0682 -1.3144 -1.1942
10349TIP3   OH252461   0.246   2.319   4.303 -0.8053 -0.2084  0.9730
10349TIP3    H152462   0.188   2.343   4.231  2.2730  0.0311 -1.6322
10349TIP3    H252463   0.191   2.266   4.362 -3.7044  0.3629 -1.0353
10350TIP3   OH252464   0.869   2.572   2.922  0.8715 -0.4011 -0.3518
10350TIP3    H152465   0.904   2.602   2.838  3.3190 -1.8313  0.0514
10350TIP3    H252466   0.910   2.630   2.987  0.7314 -0.6697 -0.0211
10351TIP3   OH252467   5.287   6.638  11.606  0.1295 -0.2509  0.1567
10351TIP3    H152468   5.346   6.664  11.677  1.1472  0.3527 -0.8760
10351TIP3    H252469   5.345   6.618  11.533 -0.9388  0.2066 -0.8466
10352TIP3   OH252470   4.567   4.561   3.005 -0.1342  0.6629 -0.3715
10352TIP3    H152471   4.617   4.602   3.076 -1.8674  2.3264 -0.0408
10352TIP3    H252472   4.611   4.590   2.925  0.1757  1.0564 -0.0601
10353TIP3   OH252473   6.552   0.147   1.473 -0.2548  0.1593  0.5595
10353TIP3    H152474   6.522   0.237   1.487  0.5319  1.3334 -3.6318
10353TIP3    H252475   6.484   0.107   1.418  0.3801 -1.0840  0.6465
10354TIP3   OH252476   1.704   2.280   4.852 -0.0210  0.4920 -0.3755
10354TIP3    H152477   1.612   2.256   4.861  0.6735 -1.5768  2.2050
10354TIP3    H252478   1.746   2.247   4.931  2.7554  2.5116 -0.8557
10355TIP3   OH252479   2.943   4.163  11.898 -0.3943 -0.1164 -0.0135
10355TIP3    H152480   2.972   4.254  11.894  0.5112 -0.4152 -0.8756
10355TIP3    H252481   2.848   4.168  11.909 -0.6087  0.9746 -1.9349
10356TIP3   OH252482   2.704   4.132   3.205 -0.3569 -0.3155  0.1824
10356TIP3    H152483   2.621   4.177   3.223 -0.0885  0.8235 -1.2014
10356TIP3    H252484   2.771   4.187   3.246 -0.2277 -0.9900  0.9052
10357TIP3   OH252485   3.448   1.400   1.692  0.0797 -0.0833  1.1022
10357TIP3    H152486   3.362   1.386   1.653  0.0932 -0.7752  1.3154
10357TIP3    H252487   3.445   1.490   1.724 -0.1299  0.3080  0.0240
10358TIP3   OH252488   5.214   2.822   1.870  0.4695  0.1634  0.7566
10358TIP3    H152489   5.145   2.797   1.932  0.2806 -2.1745 -0.2936
10358TIP3    H252490   5.167   2.866   1.798 -0.0722 -1.8893 -0.2087
10359TIP3   OH252491   4.738   2.644  11.184 -0.0731 -0.1344 -0.6350
10359TIP3    H152492   4.786   2.614  11.261  0.4434 -1.3135 -1.3965
10359TIP3    H252493   4.662   2.586  11.178 -0.4598  0.3639 -0.6521
10360TIP3   OH252494   4.795   2.415   1.814  0.1403 -0.8968 -0.0327
10360TIP3    H152495   4.782   2.336   1.867  0.9197 -0.7823  0.3557
10360TIP3    H252496   4.738   2.404   1.739 -2.9596  0.0729  2.0121
10361TIP3   OH252497   1.112   6.768  11.431  0.4655 -0.0046 -0.3114
10361TIP3    H152498   1.183   6.766  11.495  0.6944 -0.2312 -0.5717
10361TIP3    H252499   1.148   6.813  11.355  0.6258 -0.9043 -0.7854
10362TIP3   OH252500   5.269   2.314   5.848  0.1878  0.2994  0.2593
10362TIP3    H152501   5.283   2.219   5.839 -1.5716  0.1345 -1.4335
10362TIP3    H252502   5.311   2.351   5.771 -1.0689  0.6296 -0.2917
10363TIP3   OH252503   0.485   4.352   1.499  0.2856  0.0312  0.4148
10363TIP3    H152504   0.430   4.314   1.567 -0.1972  0.9240  0.5436
10363TIP3    H252505   0.574   4.324   1.521 -0.2779 -3.5717 -1.1860
10364TIP3   OH252506   0.528   5.727  17.088  0.1461 -0.4841 -0.4483
10364TIP3    H152507   0.618   5.697  17.077  0.1279 -1.1401  0.9582
10364TIP3    H252508   0.535   5.814  17.127  0.1999 -1.3141  1.4882
10365TIP3   OH252509   5.440   6.432   5.315  0.1185 -0.2244  0.3543
10365TIP3    H152510   5.435   6.371   5.242  0.5378 -0.0464  0.1671
10365TIP3    H252511   5.365   6.490   5.304  1.7326  1.6527 -1.6600
10366TIP3   OH252512   2.145   4.127   0.349  0.0807 -0.6464  0.0948
10366TIP3    H152513   2.232   4.091   0.333  1.2904  1.2001  2.0094
10366TIP3    H252514   2.142   4.141   0.443 -0.2019  4.0590 -0.3598
10367TIP3   OH252515   1.200   4.071   5.860 -0.2117  0.7220  0.0489
10367TIP3    H152516   1.250   3.995   5.888  0.1719  1.0298  0.2046
10367TIP3    H252517   1.250   4.107   5.787 -1.8867 -0.8664 -2.0260
10368TIP3   OH252518   4.658   5.925  16.846 -0.1768  0.4048 -0.1382
10368TIP3    H152519   4.608   5.976  16.782 -0.8931 -0.1393 -0.0223
10368TIP3    H252520   4.642   5.834  16.822 -1.1203  0.1578  1.2809
10369TIP3   OH252521   0.062   5.150  13.485  0.2435  0.2129  0.9434
10369TIP3    H152522  -0.006   5.093  13.522 -0.5025  0.6719  0.2976
10369TIP3    H252523   0.018   5.233  13.468  0.4022 -0.1224 -1.4554
10370TIP3   OH252524   3.074   6.633  16.498 -0.5722 -0.0374  0.5143
10370TIP3    H152525   3.002   6.684  16.536 -2.4200 -1.5685 -0.7650
10370TIP3    H252526   3.075   6.552  16.547 -0.3897 -0.4283 -0.1236
10371TIP3   OH252527   6.053   0.471   2.880 -0.2216 -0.4645 -0.0036
10371TIP3    H152528   6.017   0.524   2.809 -0.0049  0.6444  0.6880
10371TIP3    H252529   6.022   0.382   2.863  0.0647 -0.2703 -1.6344
10372TIP3   OH252530   3.125   6.270  14.468 -0.2589 -0.1520 -0.3245
10372TIP3    H152531   3.109   6.364  14.463 -0.1575 -0.1540 -0.7940
10372TIP3    H252532   3.094   6.244  14.554 -2.2469 -0.0725 -0.9810
10373TIP3   OH252533   4.642   0.564   0.130  0.0560 -0.5618  0.2443
10373TIP3    H152534   4.688   0.482   0.150  0.2088 -0.4217  0.4766
10373TIP3    H252535   4.574   0.570   0.197 -0.3479 -0.7997 -0.1375
10374TIP3   OH252536   3.844   5.261   4.832 -0.5600  0.0857 -0.6058
10374TIP3    H152537   3.789   5.194   4.871  0.6877 -0.5337  0.1126
10374TIP3    H252538   3.878   5.221   4.752  2.2664 -1.2217  1.0850
10375TIP3   OH252539   0.044   4.881   4.757  0.2117 -0.6316  0.6152
10375TIP3    H152540   0.082   4.954   4.806  0.0999 -0.1909  0.0614
10375TIP3    H252541  -0.026   4.847   4.813 -1.6784  1.5193 -0.2777
10376TIP3   OH252542   2.719   5.240   1.825 -0.0713  0.3042  0.0180
10376TIP3    H152543   2.717   5.333   1.800  2.3167  0.1312 -1.1228
10376TIP3    H252544   2.777   5.199   1.760 -0.6632 -1.9050  0.7862
10377TIP3   OH252545   6.491   0.570  16.049  0.2272  0.9445  0.4199
10377TIP3    H152546   6.429   0.629  16.007  0.2766  0.9002  0.2816
10377TIP3    H252547   6.444   0.488  16.060  0.7362  0.4006 -1.1351
10378TIP3   OH252548   2.078   5.335   0.190  0.2799  0.2566  0.0609
10378TIP3    H152549   2.048   5.257   0.236  0.7278 -0.4466 -0.8302
10378TIP3    H252550   2.139   5.377   0.251 -0.8715  0.5943  1.0432
10379TIP3   OH252551   4.826   2.149  16.314 -0.3133  1.0636  0.5346
10379TIP3    H152552   4.863   2.234  16.291  1.2747  0.4220  0.6301
10379TIP3    H252553   4.788   2.117  16.232  1.4452  0.7184 -0.1783
10380TIP3   OH252554   3.922   0.526   4.817 -0.2968  0.3453  0.1666
10380TIP3    H152555   3.919   0.569   4.903  0.1415  0.2414  0.2343
10380TIP3    H252556   3.915   0.433   4.836  0.1078  0.3016  0.1128
10381TIP3   OH252557   3.792   2.946  12.370 -0.1427 -0.3787  0.1559
10381TIP3    H152558   3.839   2.903  12.441  1.6811  3.5211  1.6264
10381TIP3    H252559   3.858   3.003  12.329 -2.7538  3.0277  0.2500
10382TIP3   OH252560   6.449   4.832  15.260 -0.7032  0.1863  1.1170
10382TIP3    H152561   6.500   4.791  15.330 -0.2515 -2.1029 -0.4247
10382TIP3    H252562   6.362   4.791  15.267 -0.2908 -1.0481 -0.3514
10383TIP3   OH252563   1.571   5.567   0.058  0.1879 -1.0686  0.2811
10383TIP3    H152564   1.558   5.524   0.142 -0.7787 -0.9793  0.1877
10383TIP3    H252565   1.519   5.647   0.064  2.0579  0.1831  0.5002
10384TIP3   OH252566   3.084   1.997  10.609 -0.7194  0.0944 -0.4508
10384TIP3    H152567   3.147   2.048  10.558 -0.6663  0.0926 -0.3862
10384TIP3    H252568   3.011   2.058  10.625 -1.2494 -0.2373 -1.4993
10385TIP3   OH252569   0.688   0.969   4.676  0.8326 -0.0419  0.3327
10385TIP3    H152570   0.640   0.923   4.745  0.6325 -2.0128 -1.0372
10385TIP3    H252571   0.780   0.962   4.703  0.9517 -2.4971 -0.4374
10386TIP3   OH252572   6.720   5.638  11.246  0.0500 -0.1882 -0.6395
10386TIP3    H152573   6.731   5.600  11.159  0.6105  1.3324 -1.2572
10386TIP3    H252574   6.807   5.667  11.271 -0.3947  0.8785 -0.2800
10387TIP3   OH252575   3.793   0.606   3.681 -0.7658  0.2009 -0.6178
10387TIP3    H152576   3.830   0.520   3.697  0.5478  1.0291  1.0815
10387TIP3    H252577   3.771   0.606   3.587 -1.4420 -2.1777 -0.5138
10388TIP3   OH252578   5.631   4.204   3.886  0.0267 -0.2069 -0.1305
10388TIP3    H152579   5.543   4.166   3.882 -0.2615  0.2762  1.1883
10388TIP3    H252580   5.628   4.262   3.962  1.4646 -0.1205 -0.1260
10389TIP3   OH252581   3.782   5.726   3.894 -0.4506 -0.6674  0.6471
10389TIP3    H152582   3.730   5.785   3.948  1.6023  1.1927  0.7552
10389TIP3    H252583   3.844   5.686   3.956  0.4036 -0.2694  0.0734
10390TIP3   OH252584   5.095   6.635  12.589 -0.0260 -0.2912 -0.1259
10390TIP3    H152585   5.119   6.707  12.647 -1.8441  0.8095 -0.6596
10390TIP3    H252586   5.073   6.563  12.647  1.0459 -0.1718  0.4424
10391TIP3   OH252587   3.360   6.407  13.937 -0.3296  0.1437 -0.0177
10391TIP3    H152588   3.367   6.503  13.937  0.1963  0.1190  1.2899
10391TIP3    H252589   3.445   6.377  13.904  0.3075  0.1181  1.5470
10392TIP3   OH252590   0.009   6.231  12.912 -0.0466 -0.1534 -0.6136
10392TIP3    H152591   0.091   6.233  12.862  0.5231  1.8337  0.2892
10392TIP3    H252592  -0.049   6.291  12.865 -0.7716 -1.0587 -0.8862
10393TIP3   OH252593   4.425   5.044  11.697 -0.1765  0.5383 -0.0430
10393TIP3    H152594   4.512   5.045  11.658 -0.6110 -0.6766 -1.1289
10393TIP3    H252595   4.377   5.112  11.648  0.2333  1.4366  0.7800
10394TIP3   OH252596   0.694   0.090  15.393 -0.4679  0.9679  0.1267
10394TIP3    H152597   0.739   0.006  15.405 -2.4576 -0.2127 -0.1810
10394TIP3    H252598   0.643   0.101  15.473  0.0027  2.0479  0.2867
10395TIP3   OH252599   0.778   0.361  17.069  0.4317  0.0848  0.0315
10395TIP3    H152600   0.745   0.404  17.147  0.5834  0.7041 -0.2364
10395TIP3    H252601   0.710   0.374  17.003  0.2495 -0.5381  0.0897
10396TIP3   OH252602   2.088   2.850  14.987 -0.5612  0.6094  0.0971
10396TIP3    H152603   2.068   2.770  14.939 -2.1858  0.9274  0.1675
10396TIP3    H252604   2.123   2.911  14.922  0.0475  0.0738 -0.0811
10397TIP3   OH252605   5.255   1.685  14.730 -0.1621 -0.4698  0.2063
10397TIP3    H152606   5.224   1.742  14.659  0.8773  0.5140  0.5171
10397TIP3    H252607   5.326   1.634  14.690 -0.0808 -0.4618  0.3408
10398TIP3   OH252608   0.140   0.824  12.105  0.0993  0.4286  0.4807
10398TIP3    H152609   0.163   0.916  12.109  1.5280  0.2586 -1.9152
10398TIP3    H252610   0.214   0.782  12.061 -1.2268 -1.5936 -0.0001
10399TIP3   OH252611   0.535   6.013  13.808 -0.1395  0.1590 -0.4107
10399TIP3    H152612   0.623   6.048  13.824 -0.3581  0.2149  0.7818
10399TIP3    H252613   0.550   5.921  13.784  0.2277  0.0090  0.3408
10400TIP3   OH252614   4.222   3.929   0.421  1.0727  0.3681 -0.1651
10400TIP3    H152615   4.306   3.918   0.465  0.6885 -2.0246  0.0686
10400TIP3    H252616   4.161   3.952   0.491  1.1303  0.0624 -0.0155
10401TIP3   OH252617   2.166   3.949   1.732 -0.1127  0.0190  0.3977
10401TIP3    H152618   2.257   3.978   1.741  0.2742 -0.6797 -0.9754
10401TIP3    H252619   2.173   3.861   1.696 -1.3260 -0.5903  1.5881
10402TIP3   OH252620   4.375   0.132   1.070 -0.6310 -0.0065  0.2518
10402TIP3    H152621   4.361   0.220   1.036 -0.3210 -0.4828 -1.1701
10402TIP3    H252622   4.377   0.076   0.992 -2.7543 -1.5695  1.2105
10403TIP3   OH252623   3.411   0.254  12.440 -0.1865 -0.2380 -0.5783
10403TIP3    H152624   3.482   0.191  12.435  0.1653 -0.0235  0.9834
10403TIP3    H252625   3.346   0.212  12.497 -0.6086  0.2155 -0.7174
10404TIP3   OH252626   3.364   1.187  11.505 -0.3597  0.0824  0.3554
10404TIP3    H152627   3.329   1.118  11.562  0.1134 -2.7075 -2.4581
10404TIP3    H252628   3.287   1.222  11.460 -0.3559 -0.6886 -0.2833
10405TIP3   OH252629   3.766   6.491  11.999 -0.4870 -0.8475  0.1369
10405TIP3    H152630   3.742   6.499  12.091  1.0454  1.9036  0.3922
10405TIP3    H252631   3.747   6.577  11.961  2.9303 -0.4381 -1.0145
10406TIP3   OH252632   2.003   0.356  15.839 -0.3907  0.0465 -0.6847
10406TIP3    H152633   2.049   0.395  15.765  1.6565 -0.0220  0.4783
10406TIP3    H252634   1.978   0.269  15.810 -0.5312  0.3877 -1.6127
10407TIP3   OH252635   3.870   6.612   3.932 -0.0322 -0.3808  0.2012
10407TIP3    H152636   3.885   6.692   3.883 -0.4070 -0.5887 -0.2633
10407TIP3    H252637   3.943   6.555   3.908  0.3091 -0.1283  0.6405
10408TIP3   OH252638   3.269   4.837  16.644 -0.0509  0.0084 -0.3592
10408TIP3    H152639   3.275   4.906  16.709 -0.6914 -2.3186  2.3565
10408TIP3    H252640   3.175   4.828  16.627 -0.0140 -0.5196 -0.2997
10409TIP3   OH252641   1.927   1.860   2.752 -0.1340 -0.0610  0.3655
10409TIP3    H152642   1.875   1.828   2.678 -0.2438 -0.1174  0.4664
10409TIP3    H252643   1.908   1.954   2.756 -1.2891 -0.3191  1.2418
10410TIP3   OH252644   0.704   5.522   6.340  0.0005 -0.1599 -0.7470
10410TIP3    H152645   0.752   5.594   6.300 -0.2845  0.6731  0.3801
10410TIP3    H252646   0.649   5.488   6.269  0.1423  0.7152 -1.2914
10411TIP3   OH252647   6.490   5.928   3.243  0.5937 -0.3129 -0.4076
10411TIP3    H152648   6.490   5.835   3.220 -0.1121 -0.2344 -0.7555
10411TIP3    H252649   6.415   5.939   3.301  1.7958 -0.3148  1.2240
10412TIP3   OH252650   0.146   2.428   1.715 -0.1572 -0.1236 -0.2725
10412TIP3    H152651   0.222   2.478   1.746 -0.0934  0.1371 -0.8413
10412TIP3    H252652   0.079   2.442   1.782  0.1815 -0.0763  0.0630
10413TIP3   OH252653   6.705   3.592  11.375  0.2952 -0.4795  0.7390
10413TIP3    H152654   6.635   3.649  11.409 -0.3237 -0.1737 -0.9439
10413TIP3    H252655   6.668   3.554  11.296  1.5085 -1.5193  0.6483
10414TIP3   OH252656   1.772   2.213   0.757 -0.2526 -0.6536 -0.0943
10414TIP3    H152657   1.735   2.172   0.835  0.6595 -0.9225  0.2201
10414TIP3    H252658   1.867   2.207   0.770 -0.0796 -0.9616 -1.3657
10415TIP3   OH252659   2.710   4.467  13.305 -0.3327  0.4344  1.0020
10415TIP3    H152660   2.679   4.404  13.369 -0.8987 -0.4286 -0.0846
10415TIP3    H252661   2.775   4.418  13.253  2.0601  1.8504  2.4827
10416TIP3   OH252662   0.002   6.332   2.611 -0.6231 -0.3788  0.2429
10416TIP3    H152663   0.096   6.326   2.598 -0.6408 -2.0772  0.6587
10416TIP3    H252664  -0.017   6.426   2.607  1.0275 -0.0276 -0.1231
10417TIP3   OH252665   3.061   5.635  14.283 -0.3440 -0.0894 -0.7229
10417TIP3    H152666   2.996   5.694  14.323  1.7728  0.8848  1.5637
10417TIP3    H252667   3.072   5.565  14.346  1.6564  0.4149 -0.4406
10418TIP3   OH252668   0.450   3.165  16.489 -0.4931 -0.2351 -0.2325
10418TIP3    H152669   0.471   3.149  16.581 -2.0389 -0.9017  0.0359
10418TIP3    H252670   0.498   3.244  16.466 -0.2623  0.0624  1.2155
10419TIP3   OH252671   4.552   2.273   5.544 -0.1535 -0.2693 -0.0354
10419TIP3    H152672   4.614   2.228   5.487  1.6980  0.2214  1.4950
10419TIP3    H252673   4.530   2.209   5.612 -1.4216 -0.4593 -0.5925
10420TIP3   OH252674   2.276   6.008   4.815 -0.9908  0.1886  0.3701
10420TIP3    H152675   2.195   6.026   4.767 -0.7995 -0.2604 -0.1300
10420TIP3    H252676   2.288   6.085   4.871  0.0047  1.8956 -1.9823
10421TIP3   OH252677   4.806   0.771   3.611  0.1910  0.4579  0.1203
10421TIP3    H152678   4.854   0.726   3.680 -0.7913  1.9837  1.9206
10421TIP3    H252679   4.870   0.828   3.569  0.5068  0.6081  0.7969
10422TIP3   OH252680   3.152   3.093  16.638  0.0674  0.0345 -0.5315
10422TIP3    H152681   3.225   3.114  16.697 -1.5528 -2.4488  2.6505
10422TIP3    H252682   3.084   3.157  16.659 -0.1306 -0.1891 -0.4855
10423TIP3   OH252683   1.216   1.563  10.975 -0.2111 -0.0492 -0.1980
10423TIP3    H152684   1.141   1.504  10.983 -1.9470  2.2324  2.8201
10423TIP3    H252685   1.261   1.535  10.895 -3.5867 -2.3083 -1.5320
10424TIP3   OH252686   0.028   3.683   2.343 -0.3195 -0.1782  0.5654
10424TIP3    H152687  -0.042   3.737   2.306 -0.7819 -0.5497  0.8991
10424TIP3    H252688   0.076   3.650   2.267 -0.7680 -0.2752  0.3243
10425TIP3   OH252689   4.992   4.627   0.855  0.1093  0.4258 -0.4723
10425TIP3    H152690   4.962   4.669   0.775  0.9633  0.2160 -0.9137
10425TIP3    H252691   5.082   4.602   0.837  0.9427  1.9925  1.1648
10426TIP3   OH252692   6.185   5.781  11.545 -0.0714 -0.5146  0.4795
10426TIP3    H152693   6.243   5.705  11.547 -0.3316 -0.7040  1.1511
10426TIP3    H252694   6.144   5.778  11.459  0.3934 -0.7781  0.2670
10427TIP3   OH252695   4.350   1.795  13.841  0.4617 -0.0877 -0.4789
10427TIP3    H152696   4.424   1.800  13.902 -0.4788  0.5484  0.6594
10427TIP3    H252697   4.275   1.825  13.893 -1.1041 -3.0682 -0.7909
10428TIP3   OH252698   2.089   0.315  16.262  0.0447 -0.2803  0.4605
10428TIP3    H152699   2.122   0.260  16.332 -0.2703 -1.4339 -0.2675
10428TIP3    H252700   2.041   0.385  16.307  2.0325  0.5053  1.4680
10429TIP3   OH252701   3.531   1.047   0.393 -0.5565  0.0991  0.0025
10429TIP3    H152702   3.451   1.003   0.364 -1.0570 -0.7113  2.4111
10429TIP3    H252703   3.567   0.990   0.461  1.6639  0.8496 -0.4709
10430TIP3   OH252704   3.249   3.072   2.538 -0.1309 -0.3412 -0.4463
10430TIP3    H152705   3.193   2.995   2.528 -2.6952  1.2935  0.5296
10430TIP3    H252706   3.318   3.043   2.599  0.0101 -2.3079 -1.4426
10431TIP3   OH252707   6.679   5.095   4.024 -0.4113 -0.2233 -1.1441
10431TIP3    H152708   6.634   5.080   4.107 -1.5546  1.8502 -1.3281
10431TIP3    H252709   6.631   5.167   3.983  0.9311 -0.3199 -3.0078
10432TIP3   OH252710   1.960   1.385   1.832  0.0719  0.5829 -0.6514
10432TIP3    H152711   2.052   1.389   1.804  0.3213  0.0036  0.0472
10432TIP3    H252712   1.910   1.378   1.751  0.4798  3.0832 -1.1982
10433TIP3   OH252713   4.505   3.843  10.125 -0.1426  0.0707  0.2103
10433TIP3    H152714   4.445   3.809  10.058  1.8536 -0.7321 -1.2585
10433TIP3    H252715   4.549   3.765  10.158 -0.0074  0.6337  1.4035
10434TIP3   OH252716   1.577   1.393   0.836 -0.1619  0.0879  0.2289
10434TIP3    H152717   1.601   1.393   0.743 -0.4183  1.7759  0.1316
10434TIP3    H252718   1.657   1.418   0.882 -0.5662  1.4043  0.2590
10435TIP3   OH252719   1.427   0.950   3.060 -0.7385  0.5340  0.0426
10435TIP3    H152720   1.333   0.947   3.075 -0.5361  2.0483  1.9404
10435TIP3    H252721   1.465   0.964   3.147  1.1456  1.4516 -0.8666
10436TIP3   OH252722   5.702   6.796   5.570 -0.1882  0.0803  0.0144
10436TIP3    H152723   5.742   6.722   5.524 -0.6135 -1.1501  1.5374
10436TIP3    H252724   5.610   6.771   5.581 -0.4454  1.0457  0.1359
10437TIP3   OH252725   5.350   6.469   3.450 -0.2197  0.0005  0.0012
10437TIP3    H152726   5.267   6.425   3.431  0.5270 -1.8272  0.6778
10437TIP3    H252727   5.350   6.480   3.545 -1.0694  3.0440 -0.2509
10438TIP3   OH252728   3.365   2.771   2.849 -0.2919  0.5737 -0.1999
10438TIP3    H152729   3.332   2.685   2.877 -2.4988  1.0026 -1.2338
10438TIP3    H252730   3.425   2.752   2.777  0.6055 -0.1812  0.7296
10439TIP3   OH252731   3.385   1.121  10.078  0.8365  0.0626  0.3791
10439TIP3    H152732   3.325   1.104  10.151 -0.6108 -0.4967 -0.8926
10439TIP3    H252733   3.375   1.215  10.059 -0.2411 -0.1853 -0.3248
10440TIP3   OH252734   2.015   3.867  10.580  0.2534 -0.2835 -0.3547
10440TIP3    H152735   2.095   3.919  10.593 -0.3530  0.3459  1.1090
10440TIP3    H252736   1.980   3.898  10.496  1.1694 -0.0544 -0.6629
10441TIP3   OH252737   2.319   1.694  10.685  0.0083 -0.1719  0.5492
10441TIP3    H152738   2.325   1.673  10.591 -0.6260 -1.0784  0.7014
10441TIP3    H252739   2.288   1.785  10.687  1.1829  0.2588 -0.1217
10442TIP3   OH252740   5.532   6.118  13.609  0.1656 -0.1789  0.1941
10442TIP3    H152741   5.528   6.143  13.701  0.8720  0.3775  0.0824
10442TIP3    H252742   5.506   6.025  13.608 -0.3352 -0.0517  0.8809
10443TIP3   OH252743   0.634   1.691   1.032 -0.0476  0.0174 -0.0540
10443TIP3    H152744   0.650   1.783   1.048  1.7362 -0.0377 -1.3114
10443TIP3    H252745   0.565   1.690   0.965 -0.0810  0.4476 -0.0272
10444TIP3   OH252746   0.497   3.421   3.275 -0.5654 -0.1769 -0.3094
10444TIP3    H152747   0.543   3.479   3.214 -0.1356 -0.7989 -0.5867
10444TIP3    H252748   0.494   3.337   3.230  0.0734 -0.7386  0.6755
10445TIP3   OH252749   0.552   3.246   3.052 -0.5648 -0.1130 -0.3638
10445TIP3    H152750   0.510   3.197   2.981 -1.9606  2.3646 -1.3965
10445TIP3    H252751   0.621   3.297   3.009  1.0938 -1.3408  0.7321
10446TIP3   OH252752   0.017   2.042  13.377  0.8629 -0.2229  0.9584
10446TIP3    H152753   0.087   2.106  13.361  0.0378  0.1218 -1.6600
10446TIP3    H252754  -0.050   2.091  13.426 -0.5367  1.6019 -2.4857
10447TIP3   OH252755   5.545   5.497   4.872 -0.0009 -0.5418 -0.0576
10447TIP3    H152756   5.479   5.519   4.807  0.9221 -2.9699 -1.9687
10447TIP3    H252757   5.574   5.582   4.907 -1.5686  0.7545 -1.7208
10448TIP3   OH252758   4.770   1.019   2.258  0.0514 -0.0992 -0.4789
10448TIP3    H152759   4.829   0.962   2.209  1.8396 -0.6189  2.1166
10448TIP3    H252760   4.710   0.959   2.303  1.8251 -0.0667  2.1192
10449TIP3   OH252761   0.739   1.984  12.821 -0.6567 -1.0811 -0.1298
10449TIP3    H152762   0.818   2.020  12.861 -0.3021 -1.1287 -0.7786
10449TIP3    H252763   0.671   1.997  12.887 -0.1451 -0.8894  0.3673
10450TIP3   OH252764   0.776   1.123   5.254  0.7175  0.4496 -0.1656
10450TIP3    H152765   0.775   1.219   5.252 -1.6256  0.4964 -0.1761
10450TIP3    H252766   0.806   1.098   5.167  1.1586  1.1745 -0.2356
10451TIP3   OH252767   1.831   4.007   1.448 -0.1958 -0.4123  0.2589
10451TIP3    H152768   1.836   3.951   1.526  3.3028 -0.1357  0.4058
10451TIP3    H252769   1.867   3.953   1.378  2.2484  1.1739  0.1766
10452TIP3   OH252770   1.673   0.524  12.827 -0.4449  0.0505 -0.2239
10452TIP3    H152771   1.673   0.620  12.823  0.4629  0.0778  0.1422
10452TIP3    H252772   1.713   0.497  12.745  0.7179  0.0488  0.3158
10453TIP3   OH252773   5.688   2.477  15.498 -0.3720  0.2048  0.1153
10453TIP3    H152774   5.665   2.443  15.412 -1.4488  0.1475  0.4095
10453TIP3    H252775   5.699   2.400  15.553  0.2139  0.2436  0.0512
10454TIP3   OH252776   1.218   1.769  10.396 -0.3456 -0.2452 -0.0016
10454TIP3    H152777   1.257   1.691  10.436  2.5479  0.9184 -0.2722
10454TIP3    H252778   1.172   1.736  10.319  1.5901 -1.6536 -0.6313
10455TIP3   OH252779   3.713   5.395  13.163  0.0446  0.2436 -0.5659
10455TIP3    H152780   3.712   5.440  13.079 -0.6179  1.6396  0.1533
10455TIP3    H252781   3.804   5.402  13.193  0.3569 -0.5355 -1.2804
10456TIP3   OH252782   0.194   5.303  16.458  0.6982 -0.9198  0.0270
10456TIP3    H152783   0.274   5.355  16.451 -0.5599  1.1957  0.4039
10456TIP3    H252784   0.206   5.250  16.537  0.8895  1.0243  1.3681
10457TIP3   OH252785   1.006   3.521   2.862 -0.0754 -0.1051 -0.1767
10457TIP3    H152786   1.053   3.452   2.815 -1.1585  0.1903 -1.7640
10457TIP3    H252787   1.021   3.600   2.810  1.0470  0.8717  1.5528
10458TIP3   OH252788   4.489   4.365  15.262 -0.3210  0.0212  0.3202
10458TIP3    H152789   4.574   4.356  15.306 -0.7116 -2.9705  0.6935
10458TIP3    H252790   4.445   4.435  15.310  1.5074  0.9300  0.7925
10459TIP3   OH252791   0.102   3.866   5.506  0.4206 -0.3167 -0.4887
10459TIP3    H152792   0.123   3.818   5.426  1.3799 -0.7298 -0.0159
10459TIP3    H252793   0.123   3.804   5.576 -1.8627 -0.5263  0.0678
10460TIP3   OH252794   6.017   3.396  12.867  0.2850  0.0028 -0.4214
10460TIP3    H152795   5.935   3.348  12.858 -1.2728  2.7734 -2.8067
10460TIP3    H252796   6.080   3.332  12.900 -2.3567 -2.7153 -0.3022
10461TIP3   OH252797   5.895   5.547  15.475  0.4186  0.0742  0.3593
10461TIP3    H152798   5.815   5.542  15.423  1.0788  0.0817 -0.6840
10461TIP3    H252799   5.905   5.459  15.512  0.3293 -0.1378 -0.1189
10462TIP3   OH252800   1.636   1.176  16.676 -0.3866 -0.1230 -0.0920
10462TIP3    H152801   1.648   1.113  16.606  0.0540 -1.9045  1.5149
10462TIP3    H252802   1.576   1.242  16.640 -0.8998 -1.4718 -1.8052
10463TIP3   OH252803   4.318   5.501  11.473  0.4274 -0.2041 -0.2121
10463TIP3    H152804   4.312   5.583  11.521  0.2885 -1.1153  1.3926
10463TIP3    H252805   4.237   5.496  11.422 -0.9049 -0.5909  1.8119
10464TIP3   OH252806   2.579   5.666  13.163 -0.5174  0.3368 -0.6434
10464TIP3    H152807   2.591   5.707  13.249  2.5506 -0.0630 -0.7765
10464TIP3    H252808   2.566   5.740  13.104 -1.7655  0.6626  0.0005
10465TIP3   OH252809   3.053   5.302   5.104  0.2467 -0.2025  0.0139
10465TIP3    H152810   3.010   5.316   5.020  2.3739  0.2879 -1.0696
10465TIP3    H252811   3.083   5.389   5.131  2.3090 -0.7471 -0.3397
10466TIP3   OH252812   0.418   2.317  12.111 -0.1878 -0.5821  0.2427
10466TIP3    H152813   0.482   2.303  12.181  0.2938  0.2835 -0.0185
10466TIP3    H252814   0.470   2.338  12.034 -0.7061 -1.6880 -0.4372
10467TIP3   OH252815   3.404   0.853  14.739  0.4084  0.6153  1.0281
10467TIP3    H152816   3.333   0.874  14.801 -1.3074 -1.2182 -0.1876
10467TIP3    H252817   3.422   0.760  14.755  0.1908  0.2019 -0.9018
10468TIP3   OH252818   5.397   5.725  11.789  0.3726 -0.3109 -0.4617
10468TIP3    H152819   5.315   5.678  11.806 -0.1755  1.0154  0.7895
10468TIP3    H252820   5.461   5.683  11.846  0.0652 -0.0180  0.1033
10469TIP3   OH252821   2.203   1.977   5.896 -0.0448  0.2558  0.1174
10469TIP3    H152822   2.162   2.063   5.909 -0.3674  0.5928 -2.4883
10469TIP3    H252823   2.297   1.995   5.900 -0.0873  0.2052  2.1763
10470TIP3   OH252824   2.842   6.745   5.052 -0.7991  0.1169 -0.1055
10470TIP3    H152825   2.848   6.807   4.980 -1.7437  0.7799  0.3666
10470TIP3    H252826   2.782   6.786   5.115  0.7729  0.0326  1.5384
10471TIP3   OH252827   5.028   1.557  13.341  0.1219 -0.2798 -0.0869
10471TIP3    H152828   5.034   1.625  13.274  0.2754 -0.1820  0.0264
10471TIP3    H252829   4.956   1.501  13.312 -1.0539  0.8263  0.6350
10472TIP3   OH252830   3.810   3.481  12.421  0.0344  0.1304 -0.2884
10472TIP3    H152831   3.838   3.562  12.464  1.4617 -0.2349 -0.4515
10472TIP3    H252832   3.891   3.430  12.414 -1.0783 -1.9915  1.2639
10473TIP3   OH252833   1.019   5.624  14.947 -0.2011  0.1904 -0.2985
10473TIP3    H152834   1.102   5.667  14.924 -0.3527  0.6173 -0.0601
10473TIP3    H252835   0.967   5.693  14.988 -0.3336 -0.2951  0.3631
10474TIP3   OH252836   0.247   4.235   3.915  0.0908 -0.4208  0.5278
10474TIP3    H152837   0.325   4.205   3.962  0.3357 -0.5393  0.0470
10474TIP3    H252838   0.200   4.288   3.979  0.1540 -1.0185  1.0780
10475TIP3   OH252839   3.182   4.376   0.296 -0.5443  0.0034  0.5383
10475TIP3    H152840   3.205   4.329   0.216  1.9386  1.5533  0.2710
10475TIP3    H252841   3.107   4.430   0.271 -0.4181 -0.2524 -0.4477
10476TIP3   OH252842   2.092   4.113   4.287  0.3547  0.5964  0.0233
10476TIP3    H152843   2.040   4.041   4.252  0.6791  0.6514 -0.5940
10476TIP3    H252844   2.131   4.078   4.367 -1.3291  0.8397  0.9880
10477TIP3   OH252845   5.579   0.402   1.843 -0.0380  0.5519 -0.3471
10477TIP3    H152846   5.497   0.432   1.804 -0.3304 -0.2664 -0.3847
10477TIP3    H252847   5.644   0.468   1.816 -0.1044 -0.2363 -2.6650
10478TIP3   OH252848   0.945   6.528  14.372 -0.1956  0.5803  0.1054
10478TIP3    H152849   1.000   6.474  14.315 -0.4372  0.5344 -0.0820
10478TIP3    H252850   0.971   6.502  14.461  0.3074  0.7828  0.0196
10479TIP3   OH252851   6.614   3.476   4.559  0.2815  0.2634 -0.5385
10479TIP3    H152852   6.563   3.416   4.505  1.3028  0.6311 -1.9728
10479TIP3    H252853   6.598   3.448   4.649 -0.6939 -0.9867 -1.0789
10480TIP3   OH252854   2.087   3.655   4.812 -0.3146 -0.6523 -0.1471
10480TIP3    H152855   2.050   3.582   4.861  0.1227 -0.5372  0.3733
10480TIP3    H252856   2.079   3.630   4.720 -4.7868  0.7858 -0.3692
10481TIP3   OH252857   2.385   3.939   2.127 -0.0325 -0.5137  0.0210
10481TIP3    H152858   2.474   3.908   2.143 -0.3949 -0.5875  2.0770
10481TIP3    H252859   2.360   3.899   2.044  1.2438 -1.8382  0.2429
10482TIP3   OH252860   0.592   1.518   1.547  0.1619 -0.2529 -0.4842
10482TIP3    H152861   0.572   1.437   1.500  1.1773 -1.8491  1.6786
10482TIP3    H252862   0.509   1.543   1.588  0.5130 -2.1986  1.6310
10483TIP3   OH252863   0.308   6.208   3.417 -0.0086 -0.2527 -0.0414
10483TIP3    H152864   0.295   6.189   3.324 -0.2756 -0.8021  0.1046
10483TIP3    H252865   0.223   6.239   3.447 -0.0486 -0.5153  0.1202
10484TIP3   OH252866   5.835   1.823   4.196  0.1890  0.0344 -0.2065
10484TIP3    H152867   5.752   1.844   4.237  0.5049 -0.5591  0.7627
10484TIP3    H252868   5.891   1.792   4.268  1.5118  1.1902 -0.6895
10485TIP3   OH252869   3.742   2.100   0.232  0.3263 -0.0847  0.2097
10485TIP3    H152870   3.793   2.023   0.253  0.8913  0.5387  1.2223
10485TIP3    H252871   3.780   2.135   0.152  0.6954 -0.3150  0.2883
10486TIP3   OH252872   0.419   4.632  16.839 -0.0115  0.7011 -0.3044
10486TIP3    H152873   0.351   4.565  16.847 -0.4329  1.3351  2.2588
10486TIP3    H252874   0.467   4.627  16.922  1.7522  1.6842 -1.2117
10487TIP3   OH252875   6.065   6.683  12.178 -0.2264 -0.3938  0.1697
10487TIP3    H152876   6.045   6.611  12.237 -0.3240 -0.4710  0.0442
10487TIP3    H252877   6.059   6.645  12.090 -0.5260 -0.1751  0.0919
10488TIP3   OH252878   6.620   3.951  12.195  0.2842 -0.3176 -0.0710
10488TIP3    H152879   6.702   4.001  12.204 -0.1650  0.5630 -0.7162
10488TIP3    H252880   6.647   3.859  12.200  1.0634 -0.0386  1.7342
10489TIP3   OH252881   1.597   2.102   3.412  0.0575  0.2573  0.2554
10489TIP3    H152882   1.598   2.116   3.318 -1.1285  0.1566  0.2085
10489TIP3    H252883   1.568   2.186   3.449 -0.2784  0.0518  0.4676
10490TIP3   OH252884   5.048   2.648  11.175  0.7070 -0.6649 -0.0950
10490TIP3    H152885   4.959   2.649  11.142  0.9657 -0.3580 -0.8037
10490TIP3    H252886   5.048   2.581  11.243  0.6753 -2.9585 -2.2047
10491TIP3   OH252887   5.753   1.649   2.191 -1.0034 -0.0706  0.4532
10491TIP3    H152888   5.834   1.601   2.173 -0.7705 -0.0843  1.5122
10491TIP3    H252889   5.782   1.740   2.202 -1.3963  0.2849 -1.1706
10492TIP3   OH252890   6.171   3.879   5.063 -0.3304  0.6545  0.0824
10492TIP3    H152891   6.232   3.952   5.071 -2.0041  2.1446 -0.2704
10492TIP3    H252892   6.096   3.915   5.016 -0.0809 -1.9956 -2.6914
10493TIP3   OH252893   5.259   4.621   0.057 -0.2502 -0.5638  0.1653
10493TIP3    H152894   5.166   4.617   0.037 -0.1753 -2.4546 -0.0423
10493TIP3    H252895   5.263   4.623   0.152 -0.4897  0.3231  0.1686
10494TIP3   OH252896   0.204   4.108  16.956 -0.0138 -0.2185 -0.1316
10494TIP3    H152897   0.245   4.157  17.027 -1.5192  1.7946 -0.5830
10494TIP3    H252898   0.277   4.067  16.910  1.0370 -1.2670  2.2955
10495TIP3   OH252899   6.625   3.057  15.880 -0.3567 -0.2490  0.1008
10495TIP3    H152900   6.608   3.150  15.869  0.9127 -0.1434 -1.4586
10495TIP3    H252901   6.664   3.049  15.967 -0.9249  0.5898  0.4393
10496TIP3   OH252902   4.536   2.707  12.582  0.5943  0.3258 -0.4026
10496TIP3    H152903   4.578   2.630  12.543 -1.3338 -1.2458  0.4128
10496TIP3    H252904   4.472   2.670  12.643  1.0400  2.6343  1.6133
10497TIP3   OH252905   1.359   5.374  16.226 -0.2202 -0.8299  0.3039
10497TIP3    H152906   1.363   5.459  16.182 -3.1222 -1.5612 -1.6441
10497TIP3    H252907   1.293   5.385  16.294 -1.3236 -1.7088 -0.5817
10498TIP3   OH252908   3.067   3.549   5.525 -0.2754  0.2933  0.2414
10498TIP3    H152909   3.034   3.602   5.452 -1.0337 -1.4121 -0.7251
10498TIP3    H252910   2.999   3.557   5.592 -1.3093 -0.8815 -0.6189
10499TIP3   OH252911   2.395   5.999  10.829 -0.1425  0.2619 -0.2430
10499TIP3    H152912   2.348   6.060  10.885 -1.2182  0.9517 -1.8342
10499TIP3    H252913   2.411   6.048  10.748  3.8353  0.2851  0.3171
10500TIP3   OH252914   0.449   3.062  12.644  0.5073 -0.2583  0.0190
10500TIP3    H152915   0.391   3.055  12.569  0.5305 -0.7854  0.0444
10500TIP3    H252916   0.397   3.030  12.718  0.3906  0.5237  0.2821
10501TIP3   OH252917   5.600   3.638  13.988 -0.4199 -0.4047 -0.3439
10501TIP3    H152918   5.600   3.732  14.001  1.2691 -0.2522 -1.2190
10501TIP3    H252919   5.523   3.621  13.934 -0.7633  0.4668 -0.1365
10502TIP3   OH252920   1.846   0.507  11.912 -0.0491 -1.1131  0.6799
10502TIP3    H152921   1.764   0.503  11.862 -0.9663 -0.6315  2.0841
10502TIP3    H252922   1.847   0.595  11.950  0.8231 -1.3275  1.1887
10503TIP3   OH252923   5.699   0.593   0.738 -0.3702 -0.3894  0.0356
10503TIP3    H152924   5.705   0.541   0.819 -1.3430 -2.4424 -1.1378
10503TIP3    H252925   5.762   0.552   0.678  0.0658  0.8774 -0.4076
10504TIP3   OH252926   3.804   0.496  15.148  0.3881 -0.6380 -0.0344
10504TIP3    H152927   3.739   0.480  15.080  1.1196 -1.8838 -0.4775
10504TIP3    H252928   3.759   0.550  15.213 -0.9953 -1.2729 -0.4441
10505TIP3   OH252929   5.603   5.659  11.355  0.0120 -0.5571 -0.1076
10505TIP3    H152930   5.689   5.617  11.362  0.3118 -0.0293 -0.6489
10505TIP3    H252931   5.545   5.600  11.404  0.3776 -1.7529 -1.0644
10506TIP3   OH252932   1.681   0.534   1.872 -0.2574 -0.7076  0.2113
10506TIP3    H152933   1.648   0.467   1.931  0.7679 -0.1640  1.4576
10506TIP3    H252934   1.772   0.547   1.900 -0.2468  0.7429 -0.4079
10507TIP3   OH252935   5.353   0.714   1.917  0.2441  0.2078  0.4201
10507TIP3    H152936   5.328   0.665   1.839 -0.8876 -1.2344  1.6013
10507TIP3    H252937   5.416   0.779   1.887 -1.0656  0.5252 -1.8833
10508TIP3   OH252938   0.860   3.432  16.290  0.2248 -0.4006  0.6557
10508TIP3    H152939   0.793   3.427  16.358  0.3761  0.3540  0.8766
10508TIP3    H252940   0.913   3.353  16.302 -0.3974 -0.8148  0.7178
10509TIP3   OH252941   2.231   4.604   0.672  0.5885 -0.3933  0.1293
10509TIP3    H152942   2.244   4.678   0.731  1.5773  0.5252 -1.1666
10509TIP3    H252943   2.300   4.543   0.696  1.5713  0.3807 -0.6321
10510TIP3   OH252944   0.478   3.610   1.012  0.8278 -0.7914  0.0895
10510TIP3    H152945   0.473   3.613   0.917  1.4930 -0.4615  0.0603
10510TIP3    H252946   0.444   3.524   1.036 -1.7290  0.0195 -0.2755
10511TIP3   OH252947   3.749   3.403  15.838 -0.1893 -0.0773 -0.2979
10511TIP3    H152948   3.659   3.375  15.821 -0.0082 -0.2161 -1.1007
10511TIP3    H252949   3.787   3.413  15.750  0.9548 -1.2972  0.0271
10512TIP3   OH252950   1.172   6.105  14.318  0.3072 -0.0789  0.0520
10512TIP3    H152951   1.188   6.048  14.393 -0.9770  0.2593  0.6117
10512TIP3    H252952   1.259   6.136  14.292  0.7670 -0.1698  1.4160
10513TIP3   OH252953   5.570   0.936  16.336  0.4556  0.5818  0.4827
10513TIP3    H152954   5.581   0.870  16.404  1.7536  1.1220  0.8174
10513TIP3    H252955   5.475   0.945  16.327  0.1836 -2.4292 -0.6773
10514TIP3   OH252956   4.214   6.715   5.432  0.0712  0.1347  0.1137
10514TIP3    H152957   4.281   6.701   5.365 -0.8723 -0.5057 -0.7268
10514TIP3    H252958   4.199   6.809   5.432  3.2224  0.8129  2.6016
10515TIP3   OH252959   5.905   3.598   0.781  0.1265 -0.2261 -0.4202
10515TIP3    H152960   5.990   3.561   0.806  0.4140 -0.4609 -1.6620
10515TIP3    H252961   5.897   3.678   0.834  0.3698 -1.0391  0.8896
10516TIP3   OH252962   1.021   5.351  14.576 -0.0543  0.2532  0.7143
10516TIP3    H152963   0.942   5.319  14.620  0.0919  0.0307  0.8135
10516TIP3    H252964   0.995   5.359  14.484 -0.3705  0.7515  0.8386
10517TIP3   OH252965   0.925   6.006   3.664  0.8068  0.2717 -0.0153
10517TIP3    H152966   0.835   6.030   3.647  0.7425  2.8314  2.9652
10517TIP3    H252967   0.977   6.077   3.628  1.2334  1.1050  2.1015
10518TIP3   OH252968   0.652   4.955  15.394  0.2895 -0.3846 -0.5608
10518TIP3    H152969   0.613   4.944  15.481 -1.0283  0.1136 -1.0664
10518TIP3    H252970   0.717   4.885  15.388  0.6727 -0.1940  0.9630
10519TIP3   OH252971   1.131   3.598   1.528 -0.1166  0.1903 -0.0964
10519TIP3    H152972   1.105   3.506   1.527 -0.1103  0.1489  1.5260
10519TIP3    H252973   1.221   3.598   1.559  0.4489  0.6577 -1.6278
10520TIP3   OH252974   6.266   3.616  14.823 -0.8862  0.3535 -0.0503
10520TIP3    H152975   6.261   3.592  14.731 -0.2706 -1.4963  0.3559
10520TIP3    H252976   6.176   3.612  14.854 -1.3348  2.6177 -0.9061
10521TIP3   OH252977   5.110   5.700  13.937 -0.1185 -0.5974  0.2906
10521TIP3    H152978   5.200   5.733  13.939 -0.0589 -0.7588  2.5174
10521TIP3    H252979   5.105   5.650  13.855  2.0483 -1.2098  0.4637
10522TIP3   OH252980   1.649   5.579  16.750 -0.0327 -0.2833 -0.1019
10522TIP3    H152981   1.691   5.499  16.719  1.4317  0.7310 -0.8788
10522TIP3    H252982   1.612   5.619  16.671 -2.9717 -1.3449  0.6005
10523TIP3   OH252983   4.686   5.753  16.292 -0.0572  0.2293 -0.2225
10523TIP3    H152984   4.739   5.717  16.221  1.3501 -0.0776  0.9390
10523TIP3    H252985   4.623   5.810  16.249 -0.7019 -1.6613 -1.9123
10524TIP3   OH252986   0.962   5.756  13.144 -0.1307  0.2264  0.0649
10524TIP3    H152987   0.908   5.708  13.082 -1.2153  1.1117  0.3049
10524TIP3    H252988   0.963   5.846  13.112 -0.6159  0.6732  1.2523
10525TIP3   OH252989   6.701   4.742  12.561 -0.4750 -0.3900 -0.2382
10525TIP3    H152990   6.772   4.730  12.624 -1.2793  0.5160  0.8803
10525TIP3    H252991   6.744   4.763  12.479  0.5558  1.6160  0.7441
10526TIP3   OH252992   6.152   6.359   3.326  0.0135  0.3960  0.0089
10526TIP3    H152993   6.138   6.422   3.397 -0.4581  0.3423 -0.0327
10526TIP3    H252994   6.115   6.277   3.359 -1.9020  0.7931 -0.9755
10527TIP3   OH252995   2.478   3.486  14.066  0.0703  0.8657 -0.2316
10527TIP3    H152996   2.384   3.483  14.045 -0.3103  1.7476  1.1888
10527TIP3    H252997   2.493   3.410  14.122 -0.5263  2.3388  2.0673
10528TIP3   OH252998   4.523   3.876   5.220 -0.1121 -0.6153 -0.0667
10528TIP3    H152999   4.524   3.911   5.310  1.0363 -0.1542 -0.2487
10528TIP3    H253000   4.435   3.897   5.188  0.2158  1.2726  0.1706
10529TIP3   OH253001   4.604   2.635   5.881  0.1726  0.3854  0.5941
10529TIP3    H153002   4.624   2.568   5.946  0.0092 -0.9769 -0.7126
10529TIP3    H253003   4.680   2.694   5.884  0.0811  0.4680  2.1206
10530TIP3   OH253004   4.668   2.710  13.843  0.1658 -0.3772  0.1103
10530TIP3    H153005   4.720   2.691  13.764  0.6149  0.6566  0.1440
10530TIP3    H253006   4.588   2.659  13.831  1.6502 -3.0256  0.6433
10531TIP3   OH253007   1.372   1.636   0.656  0.8043  0.8594 -0.5053
10531TIP3    H153008   1.434   1.682   0.713  0.0055  0.4439  0.7364
10531TIP3    H253009   1.298   1.696   0.646  0.1540  0.2381  0.3919
10532TIP3   OH253010   3.488   1.646  14.653  0.2445  0.4776  0.2072
10532TIP3    H153011   3.527   1.638  14.567 -0.6858  0.9751 -0.2778
10532TIP3    H253012   3.546   1.706  14.700  1.1231 -0.3128  0.1738
10533TIP3   OH253013   6.638   6.350  11.107  0.0337 -0.3709  0.0387
10533TIP3    H153014   6.696   6.425  11.119  0.8668 -0.8799 -0.7132
10533TIP3    H253015   6.559   6.387  11.068  0.3396  0.1434 -0.1005
10534TIP3   OH253016   1.341   3.570   1.720 -0.7577 -1.1015 -0.4496
10534TIP3    H153017   1.395   3.494   1.696  0.1368 -0.8935  0.7804
10534TIP3    H253018   1.304   3.547   1.805  2.1711  1.0377  1.6255
10535TIP3   OH253019   6.174   0.010  16.026  0.1484 -0.5100  0.5855
10535TIP3    H153020   6.201  -0.044  16.100  2.4107  0.9573  0.9280
10535TIP3    H253021   6.088   0.045  16.051  0.1848 -1.2425  1.8079
10536TIP3   OH253022   2.987   5.503  16.627 -0.0575 -0.2539  0.3626
10536TIP3    H153023   2.932   5.433  16.592 -0.0411 -1.4453  2.5440
10536TIP3    H253024   3.077   5.470  16.616 -0.0705 -0.8626  1.8565
10537TIP3   OH253025   5.307   3.821   2.919  0.1012  0.7439  0.6309
10537TIP3    H153026   5.269   3.852   2.837  0.0664 -1.1259 -0.1043
10537TIP3    H253027   5.243   3.758   2.952  0.6480  0.6508  1.5281
10538TIP3   OH253028   6.159   0.728  10.620 -0.2135  0.4468 -0.3225
10538TIP3    H153029   6.097   0.729  10.693  1.3712  0.3091  1.1064
10538TIP3    H253030   6.197   0.816  10.620  1.4678 -0.2217  0.6019
10539TIP3   OH253031   6.654   2.981  16.869  0.2481  0.8907 -0.0919
10539TIP3    H153032   6.687   3.051  16.813  1.1583 -0.3904 -1.2155
10539TIP3    H253033   6.560   2.998  16.878  0.3753  1.9626 -0.7491
10540TIP3   OH253034   1.196   2.858   0.403 -0.0532 -0.0736  0.5071
10540TIP3    H153035   1.198   2.818   0.490 -1.1293  0.3097  0.7281
10540TIP3    H253036   1.248   2.938   0.412  1.1721 -0.8397  0.3612
10541TIP3   OH253037   4.076   4.841   1.511  0.4424 -0.8029  0.4850
10541TIP3    H153038   4.092   4.813   1.421 -0.2901 -2.7430  0.9161
10541TIP3    H253039   4.163   4.849   1.550  0.7429 -0.3771 -0.2644
10542TIP3   OH253040   5.642   6.602   3.508 -0.3330  0.1425 -0.1488
10542TIP3    H153041   5.558   6.558   3.515 -1.1538  1.4555 -1.3247
10542TIP3    H253042   5.627   6.690   3.540  0.4150  0.6026 -1.0045
10543TIP3   OH253043   1.860   2.322   3.723 -0.1955  0.0503 -0.2492
10543TIP3    H153044   1.890   2.349   3.636 -0.9217 -1.3868 -0.9704
10543TIP3    H253045   1.815   2.399   3.758  2.7306  1.7329  0.1914
10544TIP3   OH253046   3.683   3.047  10.981 -0.0355  0.7318 -0.7554
10544TIP3    H153047   3.686   3.068  11.074 -0.6599 -0.1697 -0.5106
10544TIP3    H253048   3.653   3.127  10.939  0.4635  1.2145 -0.2144
10545TIP3   OH253049   0.693   3.525   4.112  0.5582 -0.4079  0.2752
10545TIP3    H153050   0.768   3.498   4.059  1.3126  3.6240 -1.0627
10545TIP3    H253051   0.626   3.460   4.092  1.4828 -0.3699 -4.0927
10546TIP3   OH253052   6.503   4.585   1.608 -0.3034 -0.4799  0.1840
10546TIP3    H153053   6.519   4.496   1.576  0.2222 -0.7672  1.1943
10546TIP3    H253054   6.570   4.638   1.565  0.1570 -0.7946  0.4968
10547TIP3   OH253055   6.562   4.610   3.023  0.3501 -0.2145  0.3069
10547TIP3    H153056   6.478   4.564   3.021  0.3154 -0.1209 -0.8082
10547TIP3    H253057   6.600   4.595   2.936  0.9415  0.7482  0.3889
10548TIP3   OH253058   1.879   4.604   3.903  0.6159 -0.1647  0.1842
10548TIP3    H153059   1.827   4.647   3.835  0.8700 -2.3770 -1.5784
10548TIP3    H253060   1.817   4.549   3.950  1.1376 -2.5806 -1.7279
10549TIP3   OH253061   5.705   1.592   1.678 -0.6121  0.7784  0.8474
10549TIP3    H153062   5.620   1.587   1.636  0.4823  2.0179 -1.7370
10549TIP3    H253063   5.707   1.517   1.737 -2.8100 -0.2847 -0.3053
10550TIP3   OH253064   0.570   2.466   3.010  0.6077  0.5671  0.0531
10550TIP3    H153065   0.588   2.548   2.963 -0.3188  0.2789 -0.8403
10550TIP3    H253066   0.635   2.464   3.080 -0.0652  2.6411  0.8129
10551TIP3   OH253067   2.497   0.579  15.371  0.1503  0.1858  0.2261
10551TIP3    H153068   2.570   0.537  15.416 -0.7669 -0.2970  1.2948
10551TIP3    H253069   2.529   0.592  15.281  1.3087 -0.6165  0.4996
10552TIP3   OH253070   4.793   5.146  15.798  0.2198  0.0316  0.0764
10552TIP3    H153071   4.887   5.158  15.790  0.0899  0.4465 -1.1295
10552TIP3    H253072   4.767   5.108  15.714 -0.3109 -2.7786  1.3933
10553TIP3   OH253073   2.800   0.058   2.454 -0.2054 -0.0081 -0.1893
10553TIP3    H153074   2.851  -0.019   2.429  2.2399  1.2526  0.5675
10553TIP3    H253075   2.755   0.033   2.534 -0.1075 -0.8863 -0.3991
10554TIP3   OH253076   5.155   6.704  15.487 -0.2039 -0.0430 -0.1469
10554TIP3    H153077   5.151   6.795  15.519  0.5717  0.0085 -0.1814
10554TIP3    H253078   5.108   6.654  15.554  0.3604  0.2332  0.4668
10555TIP3   OH253079   4.495   4.014  16.048  0.5183  0.3575  0.8361
10555TIP3    H153080   4.588   4.030  16.067  0.7345  0.4462 -0.2378
10555TIP3    H253081   4.493   3.925  16.014  0.6296  1.1875 -1.5912
10556TIP3   OH253082   0.351   3.361  15.899  0.1800 -0.1602  0.2009
10556TIP3    H153083   0.373   3.285  15.844  0.9670 -0.1337  0.4598
10556TIP3    H253084   0.436   3.397  15.924 -0.1802  0.2886  0.8032
10557TIP3   OH253085   3.674   5.585   5.130  0.1734  0.6168  0.3615
10557TIP3    H153086   3.641   5.666   5.170  1.2228  0.7696  0.9379
10557TIP3    H253087   3.696   5.529   5.204  1.9634  0.8284  0.0256
10558TIP3   OH253088   5.048   5.289   1.058 -0.1451 -0.0642 -0.3560
10558TIP3    H153089   5.102   5.293   1.136  0.5315  3.3291 -0.8737
10558TIP3    H253090   5.108   5.260   0.989 -0.5411 -2.2029  0.1162
10559TIP3   OH253091   6.030   2.253  16.608 -0.5025  0.1992 -0.3814
10559TIP3    H153092   6.082   2.189  16.656 -1.3677 -1.2156 -1.2498
10559TIP3    H253093   5.973   2.293  16.673  0.1291  0.1707  0.1942
10560TIP3   OH253094   6.216   6.399  16.181 -0.0633  0.1300  0.4482
10560TIP3    H153095   6.234   6.484  16.222 -1.8895  0.5934  0.3523
10560TIP3    H253096   6.297   6.378  16.133  0.6932  1.4267  1.1085
10561TIP3   OH253097   0.115   2.201  15.569  0.2630  1.0039 -0.0460
10561TIP3    H153098   0.153   2.177  15.654 -1.0038 -0.5050  0.1553
10561TIP3    H253099   0.183   2.181  15.506  0.2513 -0.6638  0.3993
10562TIP3   OH253100   4.234   2.677   5.186  0.0157 -0.2943  0.0093
10562TIP3    H153101   4.282   2.725   5.253 -0.0149  0.2241 -0.3326
10562TIP3    H253102   4.205   2.745   5.124  2.3154 -0.9904 -2.0035
10563TIP3   OH253103   6.343   3.127   2.763  0.6006  0.0148 -0.1676
10563TIP3    H153104   6.375   3.164   2.845 -0.8310 -1.4062  1.1241
10563TIP3    H253105   6.257   3.167   2.750  0.8176  0.2339 -0.9881
10564TIP3   OH253106   0.502   3.837  13.354 -0.2534  0.1079  0.1624
10564TIP3    H153107   0.544   3.912  13.396 -1.5116  2.2870 -2.1688
10564TIP3    H253108   0.553   3.821  13.275 -1.2247 -0.0940 -0.4476
10565TIP3   OH253109   5.339   0.198  12.069 -0.4683 -0.3379 -0.5214
10565TIP3    H153110   5.414   0.253  12.047  0.4312 -0.8074  1.2268
10565TIP3    H253111   5.283   0.203  11.992  0.2127  1.9414 -0.9562
10566TIP3   OH253112   1.580   2.020  16.787 -0.4431 -0.1094  0.0962
10566TIP3    H153113   1.536   1.995  16.707 -1.3319 -0.1817  0.5954
10566TIP3    H253114   1.510   2.026  16.852  0.4387 -1.6495  1.2650
10567TIP3   OH253115   1.274   6.374  14.910  0.1919  0.6965 -0.1746
10567TIP3    H153116   1.195   6.322  14.898  0.0138  0.2131  2.5635
10567TIP3    H253117   1.335   6.340  14.844 -1.3785  0.1371 -1.4006
10568TIP3   OH253118   2.101   1.695   2.173  0.5844  1.1036  0.2727
10568TIP3    H153119   2.175   1.647   2.211  0.6560 -0.2993 -1.5097
10568TIP3    H253120   2.139   1.775   2.139  1.3187  0.3883 -0.6339
10569TIP3   OH253121   4.212   4.162  15.184 -0.1611 -0.2809  0.2477
10569TIP3    H153122   4.272   4.191  15.116 -1.3003 -0.6776 -0.9885
10569TIP3    H253123   4.222   4.225  15.255  1.6528 -0.3258  0.0592
10570TIP3   OH253124   4.431   2.739   4.174 -0.1610  0.3213  0.0282
10570TIP3    H153125   4.398   2.685   4.102 -1.4085 -0.6690  1.2797
10570TIP3    H253126   4.352   2.772   4.218  0.5076 -0.2990  1.8034
10571TIP3   OH253127   2.623   6.640  14.148  0.7441 -0.6705 -0.0774
10571TIP3    H153128   2.532   6.652  14.175  0.6205 -2.6863  0.5689
10571TIP3    H253129   2.627   6.549  14.119  2.1801 -0.1396 -1.7115
10572TIP3   OH253130   1.539   1.057  15.283  0.5208 -0.3587  0.1782
10572TIP3    H153131   1.473   1.006  15.329 -0.0022 -0.2663 -0.4672
10572TIP3    H253132   1.620   1.007  15.295 -0.1386 -1.8187 -1.1653
10573TIP3   OH253133   0.455   6.447   2.035 -0.3443 -0.0172 -0.3388
10573TIP3    H153134   0.531   6.505   2.026 -0.0622 -0.6120 -2.5092
10573TIP3    H253135   0.399   6.489   2.100  1.1794  1.1701  0.2560
10574TIP3   OH253136   1.963   3.155  16.107 -0.0825  0.2154  0.3480
10574TIP3    H153137   1.949   3.223  16.173 -0.7308 -0.6939  1.1949
10574TIP3    H253138   1.889   3.095  16.118  1.1508 -1.3521  0.5851
10575TIP3   OH253139   3.453   5.159   5.401  0.1061  0.6222 -0.5059
10575TIP3    H153140   3.404   5.180   5.481  0.9402  1.2256 -0.1295
10575TIP3    H253141   3.387   5.156   5.332 -0.6670 -0.1801  0.2485
10576TIP3   OH253142   6.216   5.272   3.041  0.2293 -0.6743  0.1419
10576TIP3    H153143   6.181   5.185   3.024 -0.0780 -0.4459 -0.4289
10576TIP3    H253144   6.177   5.327   2.973 -0.6483  0.1762  1.2822
10577TIP3   OH253145   0.291   2.588  11.165  0.0844 -0.3940  0.3191
10577TIP3    H153146   0.366   2.528  11.158  0.7892  0.1931  2.1965
10577TIP3    H253147   0.329   2.670  11.196 -1.0671  0.6344 -0.8618
10578TIP3   OH253148   1.987   2.540   1.479  0.2544  0.0524 -0.7295
10578TIP3    H153149   1.979   2.630   1.448  0.6272 -0.1698 -1.4870
10578TIP3    H253150   2.057   2.503   1.427 -1.7697 -1.5418 -2.5084
10579TIP3   OH253151   4.605   5.192  13.913  0.2621  0.0721  0.3626
10579TIP3    H153152   4.533   5.241  13.872 -0.0896  0.0573  0.9433
10579TIP3    H253153   4.682   5.246  13.898 -0.3692  1.6913  2.4154
10580TIP3   OH253154   0.762   4.754   6.049 -0.5247 -0.7665 -0.0041
10580TIP3    H153155   0.752   4.659   6.045  0.5671 -0.9238  0.7330
10580TIP3    H253156   0.728   4.778   6.135 -1.6695 -0.3561 -0.5497
10581TIP3   OH253157   4.290   5.287  15.966 -0.2143 -0.1187  0.1229
10581TIP3    H153158   4.349   5.219  15.934 -1.1222 -1.2389  0.7659
10581TIP3    H253159   4.207   5.242  15.982 -0.0893  0.5204  3.1616
10582TIP3   OH253160   0.968   5.403   0.436  0.7533  0.0562 -0.2951
10582TIP3    H153161   0.906   5.451   0.491 -0.4364  1.0897 -2.4125
10582TIP3    H253162   0.912   5.349   0.380  1.7739  0.5915 -1.8692
10583TIP3   OH253163   6.305   3.174  10.338  0.8944 -0.2448 -0.2487
10583TIP3    H153164   6.378   3.196  10.281  0.3863 -0.3927 -0.9597
10583TIP3    H253165   6.302   3.246  10.402  2.1757 -0.6598  0.3040
10584TIP3   OH253166   0.996   2.388   0.685  0.4794  0.1673  0.0151
10584TIP3    H153167   1.056   2.329   0.730 -0.2082  0.1209  0.9109
10584TIP3    H253168   1.000   2.362   0.593 -1.4463 -2.8378  0.6433
10585TIP3   OH253169   6.461   0.327   2.710 -0.2874 -0.6941 -0.1342
10585TIP3    H153170   6.524   0.260   2.683 -0.5181  0.3510 -3.9092
10585TIP3    H253171   6.515   0.400   2.741  0.2054 -1.0744 -0.0886
10586TIP3   OH253172   0.244   1.196  14.244 -0.1706  0.5668 -0.8455
10586TIP3    H153173   0.325   1.193  14.194  1.0761 -0.9546  1.1451
10586TIP3    H253174   0.175   1.191  14.178  1.3593 -0.1780 -2.4618
10587TIP3   OH253175   2.320   6.752  15.746  0.0704  0.5797 -0.2349
10587TIP3    H153176   2.308   6.680  15.809  1.2127 -0.4283 -1.0953
10587TIP3    H253177   2.293   6.830  15.793 -1.7837 -0.4599  0.5566
10588TIP3   OH253178   5.626   2.357  12.855  0.2334 -0.2639 -0.3910
10588TIP3    H153179   5.682   2.288  12.819  0.0778 -0.7827  0.3315
10588TIP3    H253180   5.546   2.353  12.802 -1.1070 -2.8101  1.5388
10589TIP3   OH253181   4.882   0.679  12.395 -0.1604 -0.4059 -0.1805
10589TIP3    H153182   4.972   0.649  12.390 -0.4180 -0.9771 -2.9175
10589TIP3    H253183   4.829   0.599  12.397 -0.6449 -0.0788  0.6904
10590TIP3   OH253184   2.317   3.247  13.380  0.7933  0.0579  0.4376
10590TIP3    H153185   2.258   3.246  13.305  0.6832  0.9601  0.5112
10590TIP3    H253186   2.272   3.299  13.447  0.8446 -0.8165  1.1786
10591TIP3   OH253187   6.337   6.685   0.249  0.4241 -0.5592 -0.2559
10591TIP3    H153188   6.252   6.650   0.274  0.5120 -0.5936 -0.0089
10591TIP3    H253189   6.368   6.732   0.326 -0.2874  1.2029 -0.9692
10592TIP3   OH253190   4.557   4.175   4.317 -0.0683  0.2207  0.3537
10592TIP3    H153191   4.484   4.229   4.347 -0.8660 -0.2833 -0.5932
10592TIP3    H253192   4.525   4.085   4.323  0.3437  0.0102 -0.3769
10593TIP3   OH253193   2.529   5.006  16.093  0.0252  0.0408 -0.1120
10593TIP3    H153194   2.557   5.042  16.178  1.2986  0.9368 -0.8772
10593TIP3    H253195   2.492   5.081  16.046  0.9948 -0.0315 -1.0218
10594TIP3   OH253196   6.615   4.513   0.787  0.6699  0.4076  0.0706
10594TIP3    H153197   6.572   4.523   0.872 -1.4751 -3.3034 -0.3605
10594TIP3    H253198   6.552   4.549   0.724  1.0770  0.7162 -0.1672
10595TIP3   OH253199   0.155   1.816   2.637 -0.3873 -0.5063 -0.3092
10595TIP3    H153200   0.106   1.738   2.661 -0.2461 -1.1711 -2.0293
10595TIP3    H253201   0.194   1.847   2.719 -0.3306 -2.3216  0.3835
10596TIP3   OH253202   1.493   5.189   5.518  0.2768 -0.1037  0.1143
10596TIP3    H153203   1.440   5.250   5.568  0.2106 -0.1515  0.1021
10596TIP3    H253204   1.436   5.114   5.502  0.6131 -0.5336  0.8446
10597TIP3   OH253205   5.590   0.314   3.186 -0.5360  0.5629  0.3179
10597TIP3    H153206   5.573   0.320   3.280 -0.2924  3.9340  0.2605
10597TIP3    H253207   5.503   0.321   3.146 -0.4222  2.2320  0.2958
10598TIP3   OH253208   6.003   1.571  11.756 -0.5037 -0.5113  0.7048
10598TIP3    H153209   5.994   1.546  11.664  1.4602 -1.0755  0.6439
10598TIP3    H253210   5.938   1.517  11.802 -3.3674  1.5698 -0.5511
10599TIP3   OH253211   6.409   0.898  16.170  0.2894 -0.1890 -0.1025
10599TIP3    H153212   6.369   0.906  16.257  1.5306  0.0838  0.4577
10599TIP3    H253213   6.444   0.985  16.151  1.0918 -0.5543 -0.3398
10600TIP3   OH253214   1.638   5.796  13.137 -0.3488 -0.1300  0.0438
10600TIP3    H153215   1.714   5.737  13.132 -0.0461  0.0902  1.6440
10600TIP3    H253216   1.653   5.848  13.215 -1.6150  0.7029 -0.2417
10601TIP3   OH253217   4.662   4.232   1.289  0.4180 -0.6905  0.1176
10601TIP3    H153218   4.579   4.230   1.241 -0.1450 -2.4786  1.0889
10601TIP3    H253219   4.728   4.253   1.222 -0.9510  3.0251 -0.3223
10602TIP3   OH253220   0.661   2.386  14.102 -0.0650  0.2777  0.1771
10602TIP3    H153221   0.612   2.309  14.073  1.4494 -0.5878 -0.2346
10602TIP3    H253222   0.745   2.379  14.056 -0.1797  2.6293 -0.4913
10603TIP3   OH253223   5.814   3.669   1.995  0.2569 -0.0873  0.0390
10603TIP3    H153224   5.785   3.676   1.904 -1.8183  0.3243  0.6910
10603TIP3    H253225   5.904   3.703   1.994 -0.2589  1.3862 -1.5930
10604TIP3   OH253226   6.478   3.025  11.702 -0.2572 -0.4663  0.3967
10604TIP3    H153227   6.549   3.074  11.661 -1.7779  1.6642  0.1356
10604TIP3    H253228   6.405   3.033  11.641 -1.6130 -0.0091  1.9992
10605TIP3   OH253229   0.297   6.384   4.751 -0.1295  0.4840  0.4200
10605TIP3    H153230   0.248   6.408   4.830 -1.6575 -0.6533 -0.1420
10605TIP3    H253231   0.281   6.456   4.690 -0.6450  0.3936  0.4435
10606TIP3   OH253232   2.508   5.358  16.759 -0.0765 -0.2685  0.0483
10606TIP3    H153233   2.593   5.314  16.750  0.4514  0.9386 -1.1532
10606TIP3    H253234   2.481   5.340  16.849  1.9062  0.1008  0.7618
10607TIP3   OH253235   1.546   4.260  11.380 -0.5397  0.8069  0.4970
10607TIP3    H153236   1.510   4.267  11.292 -2.3659 -0.5947  1.0665
10607TIP3    H253237   1.638   4.282  11.370 -0.6027  0.2847 -1.8365
10608TIP3   OH253238   2.966   2.738   3.060  0.1643 -0.2174  0.7189
10608TIP3    H153239   3.002   2.766   2.975 -1.7236 -0.0605 -0.0919
10608TIP3    H253240   3.037   2.689   3.101  1.5276  0.6713 -0.4418
10609TIP3   OH253241   5.290   6.302   4.686  0.3184  0.3781 -0.1396
10609TIP3    H153242   5.272   6.340   4.600  1.1088 -0.4326 -0.6906
10609TIP3    H253243   5.380   6.270   4.679 -0.3606 -1.7798  0.1856
10610TIP3   OH253244   6.351   4.633  15.852 -0.1543 -0.1239  0.2759
10610TIP3    H153245   6.407   4.708  15.836 -0.4359 -0.0552 -0.3934
10610TIP3    H253246   6.319   4.608  15.766 -0.5649 -0.6187  0.5700
10611TIP3   OH253247   4.720   3.019  11.922  0.3846  0.5634  0.3233
10611TIP3    H153248   4.744   3.009  11.830 -1.9464  0.0939 -0.3209
10611TIP3    H253249   4.736   2.932  11.961  1.0839  0.6775  0.2966
10612TIP3   OH253250   1.762   2.356  14.128  0.0753  0.2306 -0.7251
10612TIP3    H153251   1.823   2.430  14.124  0.5412 -0.1664 -1.0350
10612TIP3    H253252   1.680   2.391  14.094 -0.3229  1.2061  1.1071
10613TIP3   OH253253   4.989   1.427  14.435  0.0182  0.1179 -0.7079
10613TIP3    H153254   5.062   1.408  14.375  0.0976  0.6029 -0.7717
10613TIP3    H253255   4.931   1.484  14.385  0.2966  0.8751 -0.1907
10614TIP3   OH253256   6.768   6.143   6.167  0.3616  0.1346 -0.2237
10614TIP3    H153257   6.744   6.083   6.097 -0.8830  1.4794 -1.0147
10614TIP3    H253258   6.839   6.100   6.213 -1.4576 -2.6331  0.1961
10615TIP3   OH253259   1.427   0.010  14.999  0.0094 -0.4811 -0.5083
10615TIP3    H153260   1.366  -0.059  15.026  0.3105 -1.3972 -2.0777
10615TIP3    H253261   1.466   0.041  15.081 -0.4358 -1.9005  0.2629
10616TIP3   OH253262   5.393   2.317   4.478 -0.3192 -0.4862  0.1120
10616TIP3    H153263   5.484   2.348   4.485 -0.3885 -0.2029 -0.2216
10616TIP3    H253264   5.373   2.282   4.565 -0.1263  0.1010  0.3991
10617TIP3   OH253265   3.833   0.763  16.563 -0.3955  0.0635 -0.2175
10617TIP3    H153266   3.785   0.708  16.501 -0.0650 -0.0204 -0.3987
10617TIP3    H253267   3.859   0.703  16.633 -1.2812  0.2715  0.3055
10618TIP3   OH253268   4.021   0.655  12.678 -0.2344  0.6642  0.4347
10618TIP3    H153269   4.042   0.562  12.677  2.7055  1.2327  1.4370
10618TIP3    H253270   3.968   0.667  12.757  1.8183  0.2382  1.9406
10619TIP3   OH253271   2.784   0.007   1.589  0.0876 -0.1864 -0.5268
10619TIP3    H153272   2.763   0.095   1.619  0.2661 -0.5138  0.6264
10619TIP3    H253273   2.871  -0.011   1.627 -0.2196 -1.0782 -0.2156
10620TIP3   OH253274   0.018   0.703  15.767  0.2601  0.3780  0.5830
10620TIP3    H153275  -0.064   0.683  15.721  0.4828  2.3129 -0.7988
10620TIP3    H253276   0.086   0.686  15.701  1.1192 -1.9295  1.9379
10621TIP3   OH253277   3.637   6.621   1.455 -0.2969  0.0207  0.0231
10621TIP3    H153278   3.697   6.559   1.415  0.5290  0.2945  0.7926
10621TIP3    H253279   3.673   6.707   1.433 -0.0073  0.1762  1.0656
10622TIP3   OH253280   0.713   5.152   5.410  0.0260 -0.3941  0.0116
10622TIP3    H153281   0.624   5.121   5.427 -0.2946 -0.7504 -1.9972
10622TIP3    H253282   0.701   5.223   5.348  1.0745  0.6002  0.9168
10623TIP3   OH253283   2.865   5.314  11.144 -0.6411 -0.2829 -0.4087
10623TIP3    H153284   2.813   5.394  11.134  1.7666  1.6631  1.3920
10623TIP3    H253285   2.916   5.308  11.063 -1.9447 -1.0008 -1.2376
10624TIP3   OH253286   2.967   5.722  11.605  0.6262  0.0382 -0.0230
10624TIP3    H153287   2.885   5.699  11.650  1.9208 -1.9774  1.4920
10624TIP3    H253288   2.965   5.817  11.599 -0.2084  0.3641  3.3025
10625TIP3   OH253289   4.588   0.250   2.071 -0.6432 -0.0062 -0.5569
10625TIP3    H153290   4.624   0.288   1.991 -0.8069 -0.6304 -0.9350
10625TIP3    H253291   4.638   0.169   2.084  0.0946  0.5945  0.5514
10626TIP3   OH253292   0.582   4.099   6.030 -0.3044  0.1042 -0.3386
10626TIP3    H153293   0.489   4.079   6.042  0.2448 -5.0111 -1.9059
10626TIP3    H253294   0.589   4.131   5.940 -0.5901  1.3624  0.0744
10627TIP3   OH253295   3.174   4.722   0.344 -0.0280  0.1704  0.3209
10627TIP3    H153296   3.142   4.751   0.258 -0.1137  3.1122  1.2396
10627TIP3    H253297   3.260   4.685   0.326 -0.3014  0.1577 -1.1048
10628TIP3   OH253298   0.470   3.975  12.162  0.4591 -0.0209 -0.2113
10628TIP3    H153299   0.544   4.033  12.139  0.3989 -0.6845 -2.3003
10628TIP3    H253300   0.419   4.026  12.225  0.9209  1.8386 -1.2483
10629TIP3   OH253301   6.452   5.014  12.116 -0.3531 -0.0377 -0.5429
10629TIP3    H153302   6.390   5.014  12.189 -0.6837 -0.3878 -0.8195
10629TIP3    H253303   6.532   4.977  12.153 -0.4884 -0.1227 -0.3319
10630TIP3   OH253304   1.907   4.489  10.378  0.6940  0.6117  0.3495
10630TIP3    H153305   1.883   4.396  10.376  0.8020  0.3534  4.2306
10630TIP3    H253306   1.824   4.535  10.363  0.3915 -0.1181 -0.2896
10631TIP3   OH253307   0.453   0.175   3.487 -0.4987  0.0025 -0.2363
10631TIP3    H153308   0.511   0.120   3.435 -2.8121 -1.7059 -1.1656
10631TIP3    H253309   0.444   0.127   3.570 -1.1627 -0.1513 -0.3929
10632TIP3   OH253310   5.872   2.647  17.054  0.0008 -0.2961 -0.2882
10632TIP3    H153311   5.861   2.720  16.993 -1.3501 -0.4621 -0.2841
10632TIP3    H253312   5.824   2.575  17.013  0.0770 -0.7500  0.4038
10633TIP3   OH253313   1.676   5.320  14.226 -0.4019 -0.6127  0.2930
10633TIP3    H153314   1.584   5.302  14.244 -0.3591 -0.5285  0.6057
10633TIP3    H253315   1.724   5.256  14.278 -0.2982 -1.6986 -1.0833
10634TIP3   OH253316   1.885   4.593  11.517  0.6403  0.3804  0.4860
10634TIP3    H153317   1.805   4.626  11.557 -0.6264 -0.5778 -1.1067
10634TIP3    H253318   1.907   4.514  11.567 -0.2939 -0.1884  0.0236
10635TIP3   OH253319   6.262   5.746  16.658  0.4293  0.4502  0.3458
10635TIP3    H153320   6.302   5.831  16.639  1.2911 -0.0763 -0.2803
10635TIP3    H253321   6.335   5.693  16.691 -0.2764  0.2092  1.6138
10636TIP3   OH253322   2.516   3.475  16.718  0.4512 -0.0680  0.3524
10636TIP3    H153323   2.448   3.504  16.779  0.5942  0.9750  0.0423
10636TIP3    H253324   2.498   3.382  16.705  0.1405 -0.2036  1.6141
10637TIP3   OH253325   6.180   4.707   5.712  0.4415  0.0853 -0.1194
10637TIP3    H153326   6.156   4.800   5.712  1.2713  0.3738  2.2276
10637TIP3    H253327   6.273   4.706   5.691  0.6908 -0.0775  0.9164
10638TIP3   OH253328   3.952   0.043   3.783 -0.4335 -0.1634  0.3067
10638TIP3    H153329   3.924   0.082   3.700  1.1696  0.5935  0.0822
10638TIP3    H253330   4.046   0.029   3.772 -0.6707 -2.7699  0.9307
10639TIP3   OH253331   0.501   5.196  16.162 -0.4259 -0.3375 -0.4444
10639TIP3    H153332   0.447   5.242  16.226  0.9522 -0.7802  1.1346
10639TIP3    H253333   0.479   5.104  16.174  1.7330 -0.7055  1.4133
10640TIP3   OH253334   6.054   4.200  15.721  0.3037 -0.0721  0.3916
10640TIP3    H153335   5.992   4.165  15.786  1.6091 -0.3590  1.5205
10640TIP3    H253336   5.998   4.244  15.656 -1.2017 -1.7706  0.4539
10641TIP3   OH253337   5.335   1.540   5.053  1.2146 -0.0699  0.3806
10641TIP3    H153338   5.303   1.451   5.068 -0.1014  0.4138  0.4885
10641TIP3    H253339   5.309   1.589   5.131 -0.2934  0.9904 -0.7317
10642TIP3   OH253340   6.039   4.723   5.041 -0.0845 -0.3280 -0.1925
10642TIP3    H153341   6.042   4.674   4.959 -0.5341  0.2861 -0.5857
10642TIP3    H253342   5.951   4.707   5.075  0.5135 -1.6349  0.8504
10643TIP3   OH253343   5.358   4.849  13.083  0.2987 -0.2231 -0.3052
10643TIP3    H153344   5.307   4.864  13.003  0.1893  0.6681 -0.0778
10643TIP3    H253345   5.328   4.764  13.114 -0.1030 -0.3026 -0.8853
10644TIP3   OH253346   5.128   2.338   5.587 -0.4392 -0.3787 -0.5032
10644TIP3    H153347   5.147   2.431   5.603 -0.0909 -0.9463  3.4735
10644TIP3    H253348   5.035   2.335   5.567 -0.3353  0.8480 -1.2516
10645TIP3   OH253349   2.266   5.498  11.656 -0.0024  0.1837  0.1613
10645TIP3    H153350   2.328   5.537  11.594 -1.2667  1.8966 -0.1175
10645TIP3    H253351   2.296   5.408  11.667  2.2894  0.8223 -0.2423
10646TIP3   OH253352   6.607   5.525   2.467 -0.1161 -0.1865  0.6317
10646TIP3    H153353   6.598   5.462   2.395 -0.4096 -0.3601  0.8188
10646TIP3    H253354   6.535   5.587   2.454 -0.2997 -0.3437  0.9044
10647TIP3   OH253355   1.992   4.145  12.042 -0.2582 -0.1506  0.2756
10647TIP3    H153356   1.903   4.113  12.026  0.2431 -1.7279  0.5423
10647TIP3    H253357   1.980   4.239  12.060 -1.9389 -0.4655  1.0139
10648TIP3   OH253358   1.188   6.275   0.043 -0.1503  0.2369 -0.0490
10648TIP3    H153359   1.243   6.197   0.041 -1.9410 -1.0764 -0.8770
10648TIP3    H253360   1.227   6.334  -0.022  0.5611 -0.4404 -0.2476
10649TIP3   OH253361   6.158   2.243   0.878  0.5180 -0.2980 -0.4577
10649TIP3    H153362   6.238   2.198   0.850 -0.4636 -1.0836 -2.1218
10649TIP3    H253363   6.166   2.330   0.839 -0.5344 -1.1768 -2.7871
10650TIP3   OH253364   3.370   5.972   2.810  0.3420 -0.3175  0.3777
10650TIP3    H153365   3.454   5.960   2.853  1.1779 -0.8263 -1.3074
10650TIP3    H253366   3.391   6.011   2.726 -1.1945  0.3022  0.2494
10651TIP3   OH253367   4.806   2.650   3.019  0.1264 -0.1744  0.0478
10651TIP3    H153368   4.726   2.597   3.019  0.7359 -1.1571 -1.2507
10651TIP3    H253369   4.808   2.690   3.106 -2.5782  1.1407 -0.3745
10652TIP3   OH253370   3.159   4.512  15.974 -0.4491  0.8608  0.0982
10652TIP3    H153371   3.083   4.470  16.014 -0.2643  0.4401  0.0209
10652TIP3    H253372   3.178   4.587  16.030 -1.8504  1.8738 -0.7329
10653TIP3   OH253373   4.470   2.185  12.526 -0.5739  0.1092  0.5161
10653TIP3    H153374   4.448   2.092  12.519  0.7211 -0.0694 -2.4933
10653TIP3    H253375   4.407   2.229  12.468 -1.1853  1.1685  1.9221
10654TIP3   OH253376   3.901   1.879  11.758 -0.6765  0.4123  0.2245
10654TIP3    H153377   3.995   1.863  11.748 -0.8470 -0.6361  0.2546
10654TIP3    H253378   3.892   1.914  11.847 -0.4421 -0.6234  0.6725
10655TIP3   OH253379   1.513   0.371  16.965 -0.1995 -0.0841 -0.3467
10655TIP3    H153380   1.599   0.329  16.973  0.8244  1.8637 -0.7008
10655TIP3    H253381   1.463   0.338  17.040  1.8275  0.9386  1.5412
10656TIP3   OH253382   0.042   3.334   4.622  0.0236 -0.1167  0.4676
10656TIP3    H153383  -0.023   3.404   4.613  1.2366  0.8665 -1.1080
10656TIP3    H253384   0.126   3.379   4.622  0.8451 -1.5734 -0.6949
10657TIP3   OH253385   4.377   2.167  14.004  0.3008  0.1008  0.1724
10657TIP3    H153386   4.298   2.220  14.015 -0.0164 -0.5646  1.1751
10657TIP3    H253387   4.374   2.140  13.912 -0.5103  0.2824  0.1354
10658TIP3   OH253388   5.162   2.866  16.109 -0.3422 -0.1497  0.4629
10658TIP3    H153389   5.225   2.817  16.162 -0.2540  0.3905  0.8696
10658TIP3    H253390   5.147   2.810  16.033  1.5576  0.2216 -0.2524
10659TIP3   OH253391   4.922   1.507  11.393 -0.3468  0.3604 -0.2954
10659TIP3    H153392   4.998   1.556  11.360 -0.6348  0.8152 -0.2899
10659TIP3    H253393   4.896   1.452  11.320 -0.1852  0.4139 -0.3960
10660TIP3   OH253394   1.845   2.177  12.427 -0.2467  0.4029  0.1647
10660TIP3    H153395   1.835   2.266  12.460  0.2021  1.1252 -1.5209
10660TIP3    H253396   1.795   2.123  12.488 -1.6953  1.9727  0.4438
10661TIP3   OH253397   3.483   3.904  15.307  0.0394 -0.1421 -0.7270
10661TIP3    H153398   3.468   3.998  15.308 -2.2287 -0.4360  0.2914
10661TIP3    H253399   3.562   3.892  15.359 -0.7997  1.0947  0.9330
10662TIP3   OH253400   0.923   5.597   1.369 -0.6826 -0.4587 -0.2071
10662TIP3    H153401   0.949   5.687   1.347  2.2600 -1.1732 -0.1059
10662TIP3    H253402   0.847   5.608   1.426  0.2239  2.0642  0.6889
10663TIP3   OH253403   4.325   4.191  12.041 -0.5780 -0.4748  0.3605
10663TIP3    H153404   4.255   4.251  12.014 -0.9285 -0.2098  1.7718
10663TIP3    H253405   4.315   4.116  11.983 -1.9859 -0.3984  0.4548
10664TIP3   OH253406   2.872   2.981   5.216 -0.4090  0.0125 -0.3232
10664TIP3    H153407   2.883   2.957   5.124 -3.4911  1.0158 -1.0478
10664TIP3    H253408   2.892   3.074   5.219  1.5234 -0.3776  0.4742
10665TIP3   OH253409   1.854   6.012  14.254  0.7952 -0.0780 -0.3363
10665TIP3    H153410   1.910   6.036  14.327 -0.6999 -0.2863  0.9235
10665TIP3    H253411   1.880   5.923  14.231 -0.0051 -0.7544  1.2508
10666TIP3   OH253412   0.482   3.074   4.762  0.0830  0.7303 -0.5268
10666TIP3    H153413   0.426   3.114   4.828 -0.1806  1.4011 -1.1451
10666TIP3    H253414   0.502   3.145   4.701  0.3284  0.1263 -1.1605
10667TIP3   OH253415   5.915   3.700  12.374  0.8112 -0.0712 -0.2687
10667TIP3    H153416   5.844   3.640  12.351 -0.1087  1.3407 -1.2582
10667TIP3    H253417   5.993   3.661  12.335  0.2332 -0.5852 -0.9389
10668TIP3   OH253418   1.303   3.176   1.555  0.4451 -0.1939 -0.2044
10668TIP3    H153419   1.313   3.083   1.575 -1.4519 -0.4715 -0.3753
10668TIP3    H253420   1.218   3.199   1.591  0.6022  1.3394 -0.7420
10669TIP3   OH253421   5.570   6.228  13.109  0.6474 -0.4249 -0.1438
10669TIP3    H153422   5.587   6.311  13.153  3.1853 -0.5471 -0.7430
10669TIP3    H253423   5.561   6.164  13.179 -0.8893  0.2543  0.3052
10670TIP3   OH253424   5.714   1.476   0.885  0.6801  0.3201 -0.8083
10670TIP3    H153425   5.756   1.405   0.933 -0.1283  0.9806  0.9385
10670TIP3    H253426   5.740   1.555   0.932 -0.0034  1.0045 -1.5602
10671TIP3   OH253427   5.805   0.704  13.319  0.0819  0.3351  0.2164
10671TIP3    H153428   5.806   0.712  13.223  0.0086 -1.1946  0.0549
10671TIP3    H253429   5.712   0.705  13.341  0.1302  2.0662  0.4358
10672TIP3   OH253430   1.974   0.211   0.175  0.2491  0.3528  0.4648
10672TIP3    H153431   1.987   0.302   0.203  0.6671  0.8566 -1.2860
10672TIP3    H253432   1.884   0.190   0.202  0.3502  1.0775  1.3970
10673TIP3   OH253433   4.041   6.660  16.269  0.5568 -0.4888  0.2400
10673TIP3    H153434   4.043   6.654  16.173  0.7577  0.6180  0.1649
10673TIP3    H253435   3.948   6.668  16.290  0.5652  0.0129  0.0857
10674TIP3   OH253436   6.637   4.365   4.870 -0.1202  0.0517 -0.1399
10674TIP3    H153437   6.719   4.328   4.901  0.4450  2.8346  2.0932
10674TIP3    H253438   6.574   4.293   4.873  1.2540 -1.1522  2.3426
10675TIP3   OH253439   3.905   2.560   4.607 -0.2027 -0.2081  0.4348
10675TIP3    H153440   3.844   2.500   4.651  0.2999 -1.1640 -0.1383
10675TIP3    H253441   3.875   2.561   4.516  1.5956 -2.0232 -0.2420
10676TIP3   OH253442   0.369   0.459  10.987  0.3124 -0.0512 -0.1267
10676TIP3    H153443   0.403   0.445  11.076 -0.1328 -0.4131 -0.0096
10676TIP3    H253444   0.297   0.522  10.999  1.6141  1.5913 -0.5129
10677TIP3   OH253445   4.285   5.376   4.807  0.1571  0.0380 -0.3021
10677TIP3    H153446   4.290   5.304   4.744  1.2630 -0.3868  0.2329
10677TIP3    H253447   4.199   5.367   4.848  0.3430 -1.0921 -0.1254
10678TIP3   OH253448   0.653   2.734  16.442 -0.1973  0.4822 -0.6778
10678TIP3    H153449   0.657   2.810  16.501  0.6664 -1.4998  1.9915
10678TIP3    H253450   0.730   2.744  16.385  0.8205  0.8436  0.7047
10679TIP3   OH253451   4.178   5.311   2.180 -0.4212 -0.1767  0.3032
10679TIP3    H153452   4.140   5.323   2.267 -4.1318 -2.2578 -0.7966
10679TIP3    H253453   4.105   5.281   2.126  2.2834 -1.6009 -2.9236
10680TIP3   OH253454   5.752   0.457   0.970 -0.1832  0.3790  0.1260
10680TIP3    H153455   5.826   0.462   1.031  0.1797  2.1205 -0.3896
10680TIP3    H253456   5.696   0.389   1.006  1.7902 -1.2073  0.3782
10681TIP3   OH253457   4.887   5.576  12.295 -0.4646  0.1864 -0.2115
10681TIP3    H153458   4.855   5.529  12.372  0.1794  0.9548  0.5531
10681TIP3    H253459   4.982   5.564  12.296 -0.3357  1.0672 -0.2744
10682TIP3   OH253460   0.081   1.088  15.560 -0.1017  0.0797 -0.2010
10682TIP3    H153461   0.083   1.179  15.529 -2.3950  0.2422 -0.0561
10682TIP3    H253462   0.013   1.087  15.627  0.1503 -1.6728  0.0678
10683TIP3   OH253463   4.151   3.066   2.713 -0.0654  0.1843  0.2579
10683TIP3    H153464   4.244   3.055   2.692  0.2485  1.1546  1.0655
10683TIP3    H253465   4.107   3.053   2.629  0.8471  0.2486 -0.2521
10684TIP3   OH253466   1.509   6.696  12.468  0.1957 -0.1296  0.1714
10684TIP3    H153467   1.498   6.667  12.378 -0.9946 -0.4718  0.4117
10684TIP3    H253468   1.478   6.622  12.521  1.8004 -0.3266  0.8969
10685TIP3   OH253469   0.148   5.408   3.521 -0.1771 -0.2092  0.5461
10685TIP3    H153470   0.133   5.348   3.595 -0.3612 -0.7193  0.0985
10685TIP3    H253471   0.102   5.488   3.546 -1.2662 -0.7946  0.4485
10686TIP3   OH253472   0.073   6.786  12.207 -0.7059 -0.1836 -0.9100
10686TIP3    H153473   0.098   6.833  12.128 -0.1087 -0.6626 -1.0105
10686TIP3    H253474   0.034   6.704  12.175  0.2353 -0.7264 -0.7106
10687TIP3   OH253475   2.318   1.360  14.225 -0.0408  0.0107  0.4162
10687TIP3    H153476   2.305   1.267  14.208  1.2273 -0.1929  0.4690
10687TIP3    H253477   2.410   1.368  14.249 -0.5468  1.0144  2.2631
10688TIP3   OH253478   4.351   1.108  16.551 -0.5794 -0.3629  0.2459
10688TIP3    H153479   4.440   1.119  16.518 -0.2304 -0.2851  1.1618
10688TIP3    H253480   4.342   1.178  16.617 -2.0951  1.0381 -1.3473
10689TIP3   OH253481   0.055   2.470  15.908  1.0354  0.7965 -0.0075
10689TIP3    H153482   0.091   2.441  15.992  1.8754  0.7624 -0.3785
10689TIP3    H253483   0.065   2.565  15.909  0.4960  0.8551  0.1793
10690TIP3   OH253484   1.825   4.290   5.115  0.4620  0.0376  0.2309
10690TIP3    H153485   1.839   4.195   5.111  0.0866  0.0132 -0.5059
10690TIP3    H253486   1.810   4.316   5.025  2.2741  1.0739  0.1800
10691TIP3   OH253487   0.792   3.374   1.406  0.2133 -0.3380  0.2415
10691TIP3    H153488   0.767   3.398   1.317  1.2914  1.2376  0.3146
10691TIP3    H253489   0.713   3.388   1.458 -0.0612 -0.0138 -0.2593
10692TIP3   OH253490   4.861   6.050   5.896  0.3344 -0.9742 -0.4287
10692TIP3    H153491   4.944   6.089   5.921  0.1193 -0.0323 -1.1454
10692TIP3    H253492   4.869   6.034   5.802 -0.4141 -0.5527 -0.5758
10693TIP3   OH253493   4.697   1.920   4.941 -1.3655 -0.3460 -0.4343
10693TIP3    H153494   4.603   1.923   4.922 -1.1251  0.0277 -1.7059
10693TIP3    H253495   4.714   1.829   4.965 -1.9880 -0.5058 -0.5791
10694TIP3   OH253496   1.066   6.122   5.594  0.6531  0.0904  0.0825
10694TIP3    H153497   1.156   6.124   5.627 -0.0783  0.9033  2.1824
10694TIP3    H253498   1.012   6.144   5.670 -1.2695  0.5551 -1.3512
10695TIP3   OH253499   3.912   5.905   6.561 -0.4821  0.1579  0.4727
10695TIP3    H153500   3.903   5.989   6.605  0.3741  0.9449 -0.7848
10695TIP3    H253501   3.823   5.878   6.541 -0.7169  1.3949 -0.2292
10696TIP3   OH253502   0.716   3.201   3.616 -0.2859  0.2853  0.1457
10696TIP3    H153503   0.739   3.146   3.541  1.4826  1.5643 -0.3265
10696TIP3    H253504   0.635   3.244   3.591 -0.7145 -0.7238 -0.2292
10697TIP3   OH253505   5.242   0.982  14.908  0.1843 -0.2006 -0.0120
10697TIP3    H153506   5.315   1.004  14.850 -0.1918  0.8823 -0.0957
10697TIP3    H253507   5.164   0.994  14.855 -0.3072  2.6813  1.1634
10698TIP3   OH253508   6.695   4.435   1.277  0.4199  0.5873  0.3022
10698TIP3    H153509   6.739   4.495   1.337  1.0104 -0.0406  0.5052
10698TIP3    H253510   6.601   4.451   1.292  0.5576  0.4249  1.4003
10699TIP3   OH253511   2.799   3.425   0.747  0.0929  0.0145  0.0981
10699TIP3    H153512   2.737   3.424   0.674 -0.4895  2.7651  0.4065
10699TIP3    H253513   2.744   3.415   0.825  0.5320 -1.3446  0.2600
10700TIP3   OH253514   5.280   2.602  10.967  0.2184  0.2691  0.6890
10700TIP3    H153515   5.207   2.662  10.973  1.3403  1.7824 -0.1020
10700TIP3    H253516   5.358   2.656  10.980  1.2797 -0.9722 -0.1191
10701TIP3   OH253517   4.886   4.015  12.413 -0.4785 -0.1252 -0.0294
10701TIP3    H153518   4.837   3.996  12.493 -2.0283  0.6555 -0.7463
10701TIP3    H253519   4.851   3.954  12.348  0.5696 -0.5668 -0.1984
10702TIP3   OH253520   1.020   2.658   4.325 -0.4140 -0.2484 -0.2614
10702TIP3    H153521   1.064   2.725   4.272 -0.6846  0.2824  0.1856
10702TIP3    H253522   1.090   2.597   4.349 -0.2457 -0.3693 -1.0322
10703TIP3   OH253523   0.020   2.054  14.770 -0.1696 -0.3508  0.0582
10703TIP3    H153524  -0.074   2.040  14.775  0.1533 -3.3406 -0.5519
10703TIP3    H253525   0.052   2.039  14.859  0.0108 -2.3353 -0.3093
10704TIP3   OH253526   4.545   1.408   4.514  0.2980 -0.1945  0.5823
10704TIP3    H153527   4.478   1.476   4.523 -1.2771 -1.6744  0.5591
10704TIP3    H253528   4.612   1.448   4.459 -0.0307  1.7087  1.4841
10705TIP3   OH253529   4.804   5.271   2.875  0.1247  0.3254  0.1983
10705TIP3    H153530   4.877   5.323   2.909  1.2000 -0.5196 -0.7182
10705TIP3    H253531   4.843   5.219   2.805 -1.7999  1.3225 -1.7147
10706TIP3   OH253532   3.847   1.965   4.594  0.5919 -0.0989  0.0925
10706TIP3    H153533   3.926   1.991   4.547 -0.4124 -1.8373 -2.8194
10706TIP3    H253534   3.837   1.872   4.574 -1.7229 -0.1365  1.1102
10707TIP3   OH253535   0.159   0.064  14.330 -0.1901 -0.4998 -0.1184
10707TIP3    H153536   0.162   0.156  14.306  1.7194 -0.5142 -0.0996
10707TIP3    H253537   0.126   0.020  14.252  0.9526  0.0031 -0.9141
10708TIP3   OH253538   4.453   0.576   1.768 -0.7198 -0.6649 -0.5327
10708TIP3    H153539   4.547   0.560   1.775 -0.3346  1.3125 -0.5586
10708TIP3    H253540   4.444   0.636   1.693 -1.2743  3.5758  2.5285
10709TIP3   OH253541   5.653   0.158  16.846  0.3024 -0.1472 -0.1264
10709TIP3    H153542   5.618   0.152  16.935  1.2719  2.6488  0.5670
10709TIP3    H253543   5.655   0.068  16.815 -2.7871 -0.9695  1.5642
10710TIP3   OH253544   0.218   1.903   4.391  0.0636 -0.2337 -0.1104
10710TIP3    H153545   0.270   1.837   4.438  0.0129  0.9401  1.6667
10710TIP3    H253546   0.139   1.914   4.444  0.0634  1.2279 -0.3747
10711TIP3   OH253547   0.383   3.995   6.256 -0.3875 -0.2766 -0.5155
10711TIP3    H153548   0.428   3.918   6.221 -0.8806 -1.2530  0.9000
10711TIP3    H253549   0.355   3.969   6.344  0.5881  1.9836  0.5602
10712TIP3   OH253550   1.841   2.054  11.124  0.0393 -0.1910 -0.3532
10712TIP3    H153551   1.816   2.007  11.045  1.0841  1.3750 -1.6801
10712TIP3    H253552   1.767   2.113  11.141 -0.2400 -0.6155 -0.0602
10713TIP3   OH253553   2.315   1.566   2.840  0.2504 -0.1151 -0.0842
10713TIP3    H153554   2.395   1.516   2.858 -0.3058 -0.9883  0.0193
10713TIP3    H253555   2.295   1.611   2.922  0.7566  0.2898 -0.1785
10714TIP3   OH253556   2.808   2.513   2.427  0.1388 -0.6703 -0.0339
10714TIP3    H153557   2.847   2.446   2.371  1.9946 -0.3970  0.8740
10714TIP3    H253558   2.880   2.572   2.448 -0.4145 -0.8582  2.7932
10715TIP3   OH253559   2.513   4.761  11.682  0.3249  0.0602 -0.0685
10715TIP3    H153560   2.571   4.720  11.746  0.9814 -1.1409 -1.4011
10715TIP3    H253561   2.437   4.702  11.677  0.2870  0.1366 -0.4156
10716TIP3   OH253562   0.471   0.453   0.898 -0.2521  0.1800 -0.2430
10716TIP3    H153563   0.441   0.480   0.985 -1.0545 -1.5449  0.0711
10716TIP3    H253564   0.414   0.501   0.837  0.8957  2.0737  0.1063
10717TIP3   OH253565   6.796   3.360  14.697  0.1186  0.5482 -0.2259
10717TIP3    H153566   6.763   3.322  14.616 -0.9979  0.2046  0.3752
10717TIP3    H253567   6.777   3.295  14.764  0.3024  1.1743  0.4520
10718TIP3   OH253568   4.885   4.324  13.853 -0.4283  0.0111 -0.0012
10718TIP3    H153569   4.961   4.381  13.843 -0.4814  0.1554  0.3834
10718TIP3    H253570   4.909   4.267  13.926 -1.6180  1.6320  1.7679
10719TIP3   OH253571   0.010   3.366   3.601  0.2024  0.1897  0.3777
10719TIP3    H153572  -0.042   3.346   3.679  2.5096  0.1366  2.0043
10719TIP3    H253573   0.035   3.280   3.568  0.1311  0.2288  0.2233
10720TIP3   OH253574   2.249   5.491  13.368  0.0908  0.1044 -0.1779
10720TIP3    H153575   2.298   5.411  13.387 -0.3425 -0.3764 -0.9790
10720TIP3    H253576   2.157   5.465  13.377 -0.0427  1.1719  2.0009
10721TIP3   OH253577   5.831   5.100  16.528 -0.3062  0.1604 -0.0323
10721TIP3    H153578   5.803   5.109  16.619 -0.1682 -1.2003  0.1746
10721TIP3    H253579   5.910   5.153  16.522  0.1605 -0.3970  0.8804
10722TIP3   OH253580   5.360   4.557   0.403 -0.0055 -0.0386 -0.4016
10722TIP3    H153581   5.276   4.516   0.381  1.4355 -3.3551 -0.2841
10722TIP3    H253582   5.341   4.607   0.483 -1.2699 -3.5857  1.7409
10723TIP3   OH253583   4.215   2.785   3.113  0.0332 -0.2494 -0.2430
10723TIP3    H153584   4.165   2.804   3.033  0.3902 -0.9035 -0.6298
10723TIP3    H253585   4.224   2.870   3.156  0.4622  0.2491 -1.2715
10724TIP3   OH253586   4.171   0.365   5.796 -0.3163  1.0566 -0.1714
10724TIP3    H153587   4.096   0.360   5.855  0.3796  1.1658  0.7493
10724TIP3    H253588   4.186   0.275   5.767 -0.9161  1.0653 -0.5045
10725TIP3   OH253589   2.698   0.492  16.152 -0.4970  0.6451 -1.1654
10725TIP3    H153590   2.698   0.490  16.248  2.4988  0.7352 -1.0867
10725TIP3    H253591   2.682   0.584  16.130  1.6768  1.2073 -0.6029
10726TIP3   OH253592   3.384   5.520   4.073 -0.0620  0.1366 -0.0413
10726TIP3    H153593   3.366   5.468   4.151  1.4472 -0.5290 -0.0979
10726TIP3    H253594   3.308   5.578   4.064  0.0225  0.7143  2.3053
10727TIP3   OH253595   1.075   1.698  14.199 -0.2345 -0.0949 -0.5987
10727TIP3    H153596   1.128   1.619  14.212 -0.4579 -0.5341 -2.1509
10727TIP3    H253597   1.013   1.674  14.130 -0.3002  1.4382 -1.1045
10728TIP3   OH253598   4.942   4.665  13.179 -0.5166  0.0247 -0.4537
10728TIP3    H153599   5.018   4.630  13.132  0.1255  0.1011  0.4955
10728TIP3    H253600   4.964   4.756  13.196 -2.2345  1.0437 -3.0220
10729TIP3   OH253601   0.195   4.908  12.598 -0.1860 -0.3386 -0.4874
10729TIP3    H153602   0.202   4.883  12.690  0.8322  1.0542 -0.1626
10729TIP3    H253603   0.282   4.892  12.562 -0.2696  0.1686 -0.9274
10730TIP3   OH253604   4.646   5.540  14.175 -0.3159 -0.4100  0.5566
10730TIP3    H153605   4.578   5.558  14.110  0.3350 -1.9288 -0.5979
10730TIP3    H253606   4.598   5.498  14.247 -0.8081 -0.1638  0.3798
10731TIP3   OH253607   6.218   6.633   2.403  0.2236 -0.0329 -0.4709
10731TIP3    H153608   6.185   6.553   2.445  2.1779 -1.1741 -0.9506
10731TIP3    H253609   6.262   6.680   2.474  1.2162 -0.6378 -0.6698
10732TIP3   OH253610   1.655   5.590   4.949 -0.0007  0.1095 -0.0410
10732TIP3    H153611   1.618   5.537   4.878  0.5770 -0.7240  0.2766
10732TIP3    H253612   1.605   5.565   5.027 -0.7450  1.1442 -0.1566
10733TIP3   OH253613   3.115   5.524  12.474  0.1937  0.3636  0.0598
10733TIP3    H153614   3.073   5.606  12.445  0.5014  0.8687  1.0244
10733TIP3    H253615   3.193   5.552  12.521  1.4586 -0.5616 -1.4051
10734TIP3   OH253616   0.473   1.465  13.509 -0.7354  0.4531  0.0655
10734TIP3    H153617   0.440   1.488  13.422 -0.0606 -1.8328 -0.8637
10734TIP3    H253618   0.423   1.387  13.533  1.3917 -0.9602  0.1805
10735TIP3   OH253619   3.006   3.457  13.886 -0.0762  0.6076 -0.0054
10735TIP3    H153620   2.933   3.411  13.927 -0.5981  0.3147 -1.2146
10735TIP3    H253621   2.969   3.540  13.857  0.2688  0.7787  0.0339
10736TIP3   OH253622   5.761   0.034  13.413  0.5187 -0.1836  0.1737
10736TIP3    H153623   5.805   0.066  13.334  0.5396 -0.1051  0.2164
10736TIP3    H253624   5.755   0.111  13.469  1.7214 -0.5250  0.8061
10737TIP3   OH253625   4.291   3.063  14.366  0.1559  0.4293 -0.0521
10737TIP3    H153626   4.291   3.154  14.396 -0.4416  0.2148  0.6108
10737TIP3    H253627   4.300   3.070  14.271 -0.7092  1.2158 -0.0969
10738TIP3   OH253628   1.369   4.941   4.503  0.2006  0.3199  0.3732
10738TIP3    H153629   1.355   4.854   4.540 -0.7688  1.1439  2.0363
10738TIP3    H253630   1.333   4.935   4.415 -0.5167 -0.7619  0.7229
10739TIP3   OH253631   1.117   1.276  14.336  0.4420 -0.0114  0.0320
10739TIP3    H153632   1.054   1.208  14.357  0.9815 -0.1504  1.2902
10739TIP3    H253633   1.069   1.358  14.348  0.1118 -0.1439 -0.3752
10740TIP3   OH253634   1.437   2.078  14.335 -0.2599  0.0679 -0.4610
10740TIP3    H153635   1.522   2.069  14.292 -0.1824  1.1576 -0.5748
10740TIP3    H253636   1.387   2.002  14.306  0.2136  0.1195 -1.4668
10741TIP3   OH253637   4.261   6.731   5.889 -0.2740  0.0165 -0.2596
10741TIP3    H153638   4.182   6.770   5.926  1.4702  1.7512  1.8875
10741TIP3    H253639   4.283   6.660   5.949  0.9819  0.9676  0.4370
10742TIP3   OH253640   2.201   0.816   3.397  0.1995  0.2366  0.1567
10742TIP3    H153641   2.227   0.752   3.332 -2.0157 -1.4646  0.8152
10742TIP3    H253642   2.136   0.871   3.352  0.8504  0.9894  0.1000
10743TIP3   OH253643   6.572   5.266   3.104  0.1047 -0.0496 -0.2422
10743TIP3    H153644   6.635   5.332   3.134  1.0911 -1.2596  0.4650
10743TIP3    H253645   6.605   5.238   3.019  1.2622 -1.5394  0.6492
10744TIP3   OH253646   4.310   3.858   0.039 -0.1536 -0.2918  0.2217
10744TIP3    H153647   4.222   3.819   0.036  0.6168 -2.2391  1.0320
10744TIP3    H253648   4.308   3.925  -0.029 -1.9804 -0.9402 -0.4502
10745TIP3   OH253649   4.647   4.751   1.568  0.1656 -0.0850 -0.3454
10745TIP3    H153650   4.676   4.682   1.508 -0.3613 -0.2179 -0.4541
10745TIP3    H253651   4.666   4.833   1.522 -1.0588 -0.1997 -1.1007
10746TIP3   OH253652   5.638   3.380  15.960 -0.5140 -0.2632  0.6968
10746TIP3    H153653   5.661   3.291  15.935  3.0018  0.7015 -0.0462
10746TIP3    H253654   5.600   3.418  15.881  0.9378 -0.2046  0.0161
10747TIP3   OH253655   4.660   1.781  16.038  0.1487 -0.6806  0.1118
10747TIP3    H153656   4.585   1.837  16.018  0.4586 -0.4361 -0.4096
10747TIP3    H253657   4.625   1.712  16.094 -0.1825  0.1824  0.9909
10748TIP3   OH253658   0.183   1.649   5.496 -0.0398  0.2753  0.2375
10748TIP3    H153659   0.209   1.676   5.408  0.5094  0.2192  0.3775
10748TIP3    H253660   0.090   1.673   5.503  0.0524  0.7520 -0.1714
10749TIP3   OH253661   2.709   4.757   4.823  0.1771  0.1112 -0.4625
10749TIP3    H153662   2.624   4.717   4.807  0.0583  0.5566 -0.9551
10749TIP3    H253663   2.730   4.804   4.742  2.6790 -3.1215 -1.9579
10750TIP3   OH253664   2.060   0.045   1.323 -1.0724  0.4544 -0.5218
10750TIP3    H153665   2.014   0.046   1.407 -4.2679 -0.6935 -2.0906
10750TIP3    H253666   2.117  -0.032   1.327 -1.8836 -0.1155  0.2673
10751TIP3   OH253667   4.015   3.419  15.983 -0.5177 -0.8927 -0.0016
10751TIP3    H153668   3.925   3.420  15.950 -0.5846 -1.5485  0.1584
10751TIP3    H253669   4.059   3.489  15.934 -1.0957 -0.6110 -0.1234
10752TIP3   OH253670   2.794   3.753   4.498 -0.4709  0.4777 -0.0051
10752TIP3    H153671   2.830   3.813   4.433 -2.0002 -1.7890 -3.2321
10752TIP3    H253672   2.700   3.768   4.496 -0.6787 -0.5800  0.6933
10753TIP3   OH253673   3.214   2.460   2.266 -0.1790 -0.0137 -0.4552
10753TIP3    H153674   3.234   2.537   2.213 -0.6423  0.0685 -0.5115
10753TIP3    H253675   3.232   2.386   2.208  0.7459  0.0268 -0.2423
10754TIP3   OH253676   5.186   4.200   1.880 -0.9019 -0.6602 -0.5183
10754TIP3    H153677   5.108   4.242   1.845 -0.2742  0.3365 -0.7715
10754TIP3    H253678   5.238   4.273   1.917 -0.0836 -1.2929 -0.3850
10755TIP3   OH253679   3.501   5.446   1.988 -0.1818 -0.2331 -0.4589
10755TIP3    H153680   3.405   5.439   1.987 -0.4286  2.4073 -1.1544
10755TIP3    H253681   3.526   5.414   2.075 -1.7189 -0.4977 -0.0814
10756TIP3   OH253682   2.443   5.627  15.401 -0.0692 -0.2662  0.0439
10756TIP3    H153683   2.414   5.710  15.362  1.2312  0.4960  0.6209
10756TIP3    H253684   2.439   5.564  15.330 -1.5026  0.1828 -0.2968
10757TIP3   OH253685   6.573   5.233  10.159  0.1819 -0.1207  0.9090
10757TIP3    H153686   6.599   5.141  10.154  2.0259  0.3613  0.8142
10757TIP3    H253687   6.584   5.257  10.251  1.2473  0.3908  0.6674
10758TIP3   OH253688   1.938   4.280  12.818  0.3647 -0.1883  0.3361
10758TIP3    H153689   1.961   4.227  12.741  0.4736  1.7509 -1.0619
10758TIP3    H253690   2.020   4.325  12.841 -0.2450  1.1721 -0.0412
10759TIP3   OH253691   3.173   0.326  14.746  0.6197 -0.3173  0.2479
10759TIP3    H153692   3.084   0.338  14.778 -0.3573 -1.3415 -1.8789
10759TIP3    H253693   3.184   0.231  14.739  2.0030 -0.2201  0.7692
10760TIP3   OH253694   4.288   1.330  12.830  0.0642  0.4225 -0.3855
10760TIP3    H153695   4.311   1.240  12.852  1.6484  0.8899 -0.0358
10760TIP3    H253696   4.220   1.322  12.763 -0.6345 -1.0212  0.4689
10761TIP3   OH253697   4.517   0.039  13.677 -0.0228  0.5200 -0.3550
10761TIP3    H153698   4.599  -0.010  13.685 -0.9314 -1.1075 -0.4664
10761TIP3    H253699   4.522   0.105  13.746  0.8004 -0.4578  0.5660
10762TIP3   OH253700   4.938   6.231  13.154 -0.2477 -1.0717 -0.3484
10762TIP3    H153701   4.870   6.238  13.222 -0.6666 -1.1925 -0.7521
10762TIP3    H253702   5.015   6.198  13.201  0.0681  0.7130  0.4548
10763TIP3   OH253703   6.521   3.523  12.761  0.1173  0.2073  0.4601
10763TIP3    H153704   6.585   3.488  12.699  1.2001 -1.1229  2.2151
10763TIP3    H253705   6.516   3.456  12.829 -1.6007  1.2607  1.4234
10764TIP3   OH253706   2.192   5.718   1.422 -0.5591 -0.0579  0.4889
10764TIP3    H153707   2.177   5.748   1.512 -2.5544 -1.4806  0.6983
10764TIP3    H253708   2.183   5.623   1.428  0.2048 -0.2520 -1.0783
10765TIP3   OH253709   4.064   3.900  16.270 -0.0190 -0.2601  1.5159
10765TIP3    H153710   4.156   3.917  16.290  0.1938 -1.4137  1.5794
10765TIP3    H253711   4.066   3.842  16.194 -0.7383  0.8369  0.6466
10766TIP3   OH253712   0.091   1.572   0.124  1.1269  0.7559  0.4679
10766TIP3    H153713   0.109   1.487   0.164 -0.6350  1.7031  3.5291
10766TIP3    H253714  -0.002   1.570   0.102  1.0654  1.8741  0.5521
10767TIP3   OH253715   5.942   6.182   4.307  0.0953  0.1299 -0.4448
10767TIP3    H153716   5.988   6.248   4.255  0.5619  0.5032  0.4114
10767TIP3    H253717   5.982   6.099   4.283  0.0484  0.2533 -0.9545
10768TIP3   OH253718   0.713   6.365  14.369 -0.5229  0.5107 -0.0452
10768TIP3    H153719   0.748   6.453  14.353 -0.3934  0.4328 -0.2024
10768TIP3    H253720   0.720   6.353  14.463  2.4354 -0.5252 -0.2895
10769TIP3   OH253721   3.105   2.834   2.533  0.4051 -0.2409 -0.1300
10769TIP3    H153722   3.030   2.849   2.475  0.2837  0.2479  0.1491
10769TIP3    H253723   3.074   2.766   2.593 -0.4518  1.1734  1.0892
10770TIP3   OH253724   0.595   4.641   0.534 -0.0754  0.2876 -0.2686
10770TIP3    H153725   0.646   4.627   0.455 -0.8199 -0.5376 -0.6236
10770TIP3    H253726   0.657   4.679   0.597  0.7102  0.2301 -0.9910
10771TIP3   OH253727   2.593   4.374   1.646 -0.2231 -0.0191  0.1980
10771TIP3    H153728   2.644   4.400   1.723 -0.7556  0.7776  0.2875
10771TIP3    H253729   2.525   4.441   1.638 -1.2641 -1.0698  0.0718
10772TIP3   OH253730   2.061   0.568  16.923  0.2580 -0.5175 -0.3532
10772TIP3    H153731   2.133   0.583  16.861 -1.7216  0.5493 -2.5389
10772TIP3    H253732   1.985   0.550  16.868 -1.4701 -0.3474  1.8279
10773TIP3   OH253733   5.585   6.743  16.674 -0.3482  0.2821 -0.8654
10773TIP3    H153734   5.594   6.654  16.707  0.0782  1.1116  1.4472
10773TIP3    H253735   5.514   6.739  16.611 -0.8464 -1.5561 -0.2291
10774TIP3   OH253736   0.172   3.541  15.629  0.3913 -0.5025 -0.1506
10774TIP3    H153737   0.224   3.547  15.709  1.8943 -0.8998 -1.0412
10774TIP3    H253738   0.200   3.458  15.590  1.1736  0.5925 -2.0418
10775TIP3   OH253739   2.162   5.527   2.333  0.4063 -0.0915  0.7384
10775TIP3    H153740   2.114   5.519   2.250  1.3365  0.9669  0.0669
10775TIP3    H253741   2.106   5.582   2.388  0.1436 -0.1465  0.5283
10776TIP3   OH253742   5.371   1.406  15.238 -0.7739  0.2511 -0.5596
10776TIP3    H153743   5.368   1.342  15.309  1.7047 -0.4104 -0.9451
10776TIP3    H253744   5.300   1.381  15.180 -0.8996 -1.1048  0.1448
10777TIP3   OH253745   2.816   5.180   5.229 -0.0207 -0.0122  0.2495
10777TIP3    H153746   2.906   5.195   5.200 -0.1329 -0.0974 -0.1483
10777TIP3    H253747   2.794   5.094   5.195 -0.6057  0.4347 -0.5522
10778TIP3   OH253748   2.470   4.010  16.226 -0.2972 -0.0266  0.0698
10778TIP3    H153749   2.550   4.060  16.244  0.7337 -2.3432  2.5328
10778TIP3    H253750   2.400   4.074  16.234  1.0595  1.3892  1.5010
10779TIP3   OH253751   6.676   1.188  11.275 -0.6481 -0.2015  0.3110
10779TIP3    H153752   6.626   1.227  11.203  1.3203  0.4878 -0.7696
10779TIP3    H253753   6.749   1.144  11.232  1.5561  1.6769  1.9108
10780TIP3   OH253754   2.975   5.248  15.786 -0.0330 -0.4268 -0.0701
10780TIP3    H153755   3.037   5.175  15.783 -0.3920 -0.7282 -0.1373
10780TIP3    H253756   2.956   5.266  15.694 -0.8834 -1.0517 -0.0306
10781TIP3   OH253757   1.079   4.623   1.062 -0.3186 -0.6208  0.3748
10781TIP3    H153758   1.004   4.669   1.024  1.1132  2.9552  1.4642
10781TIP3    H253759   1.045   4.583   1.141 -1.5201 -1.0009 -0.3037
10782TIP3   OH253760   3.336   5.499   0.846  0.7079 -0.1921  0.7836
10782TIP3    H153761   3.308   5.417   0.804  1.3550 -1.2667  2.3713
10782TIP3    H253762   3.337   5.563   0.774 -2.5693 -0.8344  0.0183
10783TIP3   OH253763   2.099   4.779  15.839  0.4800  0.2077 -0.0015
10783TIP3    H153764   2.161   4.707  15.854 -0.3263 -0.5514 -0.2717
10783TIP3    H253765   2.110   4.836  15.915  1.0842 -0.2305  0.2458
10784TIP3   OH253766   0.097   6.565   2.059 -0.6044  0.3452 -0.8572
10784TIP3    H153767   0.033   6.575   2.129  0.1466 -1.3361  0.1270
10784TIP3    H253768   0.051   6.518   1.990 -0.7423  0.1342 -0.6213
10785TIP3   OH253769   6.075   6.139  11.307  0.2323  0.2222 -0.4616
10785TIP3    H153770   6.128   6.189  11.369  1.3528 -1.5434  0.0778
10785TIP3    H253771   6.122   6.144  11.224 -0.1334  0.7902 -0.6414
10786TIP3   OH253772   3.596   3.048   0.728  0.0455  0.1021 -0.5966
10786TIP3    H153773   3.656   3.025   0.799  0.6028  1.4069 -0.6152
10786TIP3    H253774   3.635   3.010   0.650  1.4250  1.7544 -0.7689
10787TIP3   OH253775   0.242   6.179  14.502  0.4512  0.4069 -0.1400
10787TIP3    H153776   0.227   6.250  14.564  0.4665 -1.3397  1.9869
10787TIP3    H253777   0.278   6.221  14.424  1.2585  2.5971  1.3493
10788TIP3   OH253778   2.608   6.805   3.707 -0.5879 -0.2487 -0.1213
10788TIP3    H153779   2.537   6.747   3.678 -0.7106 -0.4986  0.6433
10788TIP3    H253780   2.607   6.796   3.803 -0.0020  0.3126 -0.0645
10789TIP3   OH253781   4.879   5.611  11.735  0.4132 -0.8296 -0.0836
10789TIP3    H153782   4.930   5.569  11.804 -0.8808 -0.5626  1.0740
10789TIP3    H253783   4.788   5.592  11.758 -0.1096  0.7756 -0.7335
10790TIP3   OH253784   0.857   6.376  12.667  0.6708  0.6611 -0.1551
10790TIP3    H153785   0.805   6.404  12.743 -0.4347 -0.4587 -0.4506
10790TIP3    H253786   0.802   6.397  12.592 -0.4210 -2.4607 -0.3848
10791TIP3   OH253787   2.996   2.685  16.027  0.1741  0.4596 -0.0996
10791TIP3    H153788   3.030   2.707  16.113  0.1588  1.8770 -0.4307
10791TIP3    H253789   2.935   2.756  16.006  1.3542  1.0105 -1.9247
10792TIP3   OH253790   6.603   6.461   4.858 -0.1061  0.3279  0.8057
10792TIP3    H153791   6.596   6.383   4.803 -0.8320  0.3118  0.9028
10792TIP3    H253792   6.605   6.534   4.796 -0.8465  0.3049  0.7395
10793TIP3   OH253793   1.178   0.947  14.028  0.6998 -0.5704 -0.1968
10793TIP3    H153794   1.117   0.874  14.020  0.4445 -0.3510 -0.2477
10793TIP3    H253795   1.239   0.935  13.955  0.4780 -0.5642 -0.3834
10794TIP3   OH253796   4.441   3.276   2.538 -0.0963 -0.3829  0.0084
10794TIP3    H153797   4.422   3.192   2.496 -1.3155 -0.8105  1.3372
10794TIP3    H253798   4.426   3.341   2.469 -0.2172 -1.1819 -0.7359
10795TIP3   OH253799   4.488   1.928  13.228  0.1189  0.0962  0.2443
10795TIP3    H153800   4.547   1.928  13.153 -0.3428  0.7180 -0.1237
10795TIP3    H253801   4.428   1.855  13.212  0.3442 -0.0969  0.2726
10796TIP3   OH253802   6.104   2.208  14.914  0.2338  0.0168 -0.3901
10796TIP3    H153803   6.162   2.211  14.990 -0.8570 -1.0075  0.5229
10796TIP3    H253804   6.129   2.284  14.862  0.1458  1.5298  1.6344
10797TIP3   OH253805   1.765   1.101   6.242 -0.3139 -0.0771  0.1165
10797TIP3    H153806   1.802   1.186   6.262  0.9160 -0.1728 -1.5623
10797TIP3    H253807   1.673   1.119   6.221 -0.2474  0.7263  0.4873
10798TIP3   OH253808   3.251   0.509  15.568 -0.0451 -0.0843  0.0622
10798TIP3    H153809   3.345   0.525  15.560 -0.3724  2.6223  0.6250
10798TIP3    H253810   3.223   0.487  15.479  1.2416 -2.1425  0.0975
10799TIP3   OH253811   5.638   0.157  10.941  0.9175 -0.3506 -0.4004
10799TIP3    H153812   5.636   0.242  10.986 -2.1167  0.0811 -1.1425
10799TIP3    H253813   5.665   0.179  10.851 -2.0749  0.3329 -1.2515
10800TIP3   OH253814   1.195   2.921   4.333 -0.1229 -0.3316  0.5423
10800TIP3    H153815   1.205   2.922   4.238 -2.7722  1.3159  0.1803
10800TIP3    H253816   1.282   2.942   4.367  0.5404  0.5697 -1.5659
10801TIP3   OH253817   5.538   6.493  16.482  0.3061 -0.2407 -0.2200
10801TIP3    H153818   5.559   6.405  16.452 -0.7719 -0.0803 -1.5203
10801TIP3    H253819   5.442   6.497  16.478  0.3623  1.0840 -0.4491
10802TIP3   OH253820   0.698   4.830   2.652  0.0916 -0.1875 -0.7899
10802TIP3    H153821   0.667   4.789   2.571 -2.2574  0.1318 -0.1230
10802TIP3    H253822   0.629   4.813   2.716  0.4932  2.0820  0.3567
10803TIP3   OH253823   6.700   6.509  16.540  0.7935 -0.0418 -0.3590
10803TIP3    H153824   6.762   6.514  16.467  1.2225  1.5960  0.0651
10803TIP3    H253825   6.712   6.592  16.587 -1.5407  0.2211 -0.1132
10804TIP3   OH253826   4.756   2.149   0.021  0.2714  0.5869  0.2309
10804TIP3    H153827   4.709   2.067   0.004 -0.0351  1.1307 -1.8565
10804TIP3    H253828   4.830   2.123   0.076 -0.2152 -0.9791  0.1966
10805TIP3   OH253829   4.494   6.192  12.888  0.4514 -0.1390  0.3686
10805TIP3    H153830   4.549   6.130  12.936  0.5056 -0.6236 -0.3101
10805TIP3    H253831   4.415   6.143  12.868  1.3225 -0.7273 -2.0075
10806TIP3   OH253832   2.095   5.324   4.780  0.5886 -0.2442 -0.1916
10806TIP3    H153833   2.018   5.345   4.728  0.7785  1.0178  0.0068
10806TIP3    H253834   2.091   5.383   4.855  2.2641  0.5853 -0.7067
10807TIP3   OH253835   5.943   4.974  16.277  0.9765  0.4003 -0.4906
10807TIP3    H153836   5.903   4.990  16.363  0.0598 -0.7867 -0.6706
10807TIP3    H253837   6.037   4.977  16.294  0.8726 -1.7950  1.0063
10808TIP3   OH253838   6.336   2.733   4.311  0.3580  0.1347  0.4904
10808TIP3    H153839   6.351   2.666   4.244  1.7935  0.9334 -0.0175
10808TIP3    H253840   6.405   2.797   4.297  0.3613  0.6047  2.3996
10809TIP3   OH253841   5.925   3.966  11.972  0.5026  0.5589  0.5543
10809TIP3    H153842   5.999   3.905  11.980  0.6730  0.6611 -0.1437
10809TIP3    H253843   5.863   3.937  12.039 -0.0237 -1.2662 -0.6415
10810TIP3   OH253844   5.754   5.324  14.129  0.1203 -0.0302  0.6237
10810TIP3    H153845   5.747   5.256  14.062  0.8916  1.5913 -1.2281
10810TIP3    H253846   5.842   5.312  14.165  0.4913  0.3143 -0.1303
10811TIP3   OH253847   1.849   4.621  11.861  0.4015  0.6870  0.2983
10811TIP3    H153848   1.807   4.542  11.826  2.3345  0.1772 -1.0306
10811TIP3    H253849   1.928   4.631  11.808  0.5648  3.1392  0.9012
10812TIP3   OH253850   3.764   0.927  12.807  0.2778 -0.4335  0.1869
10812TIP3    H153851   3.694   0.963  12.753  1.1099  2.2800  0.7321
10812TIP3    H253852   3.784   0.997  12.870  1.5848 -2.1931  1.8596
10813TIP3   OH253853   4.471   0.566  13.966  0.0654  0.0107  0.1515
10813TIP3    H153854   4.387   0.535  14.000  0.2573 -0.3718  0.2791
10813TIP3    H253855   4.450   0.647  13.920 -0.6592 -1.0428 -1.4346
10814TIP3   OH253856   4.498   3.564  13.729  0.0626 -0.4234 -0.0431
10814TIP3    H153857   4.425   3.619  13.699  0.5936  1.2213  1.4597
10814TIP3    H253858   4.491   3.484  13.677 -0.7357  1.0594 -2.3992
10815TIP3   OH253859   2.326   1.406   1.963 -0.1377  0.1623 -0.0833
10815TIP3    H153860   2.384   1.452   1.902 -0.4491 -0.2016 -0.6633
10815TIP3    H253861   2.255   1.373   1.909 -0.1863 -0.5686  0.4033
10816TIP3   OH253862   2.367   2.721   1.100 -0.1270 -0.5999 -0.2860
10816TIP3    H153863   2.307   2.785   1.139 -1.1790 -2.0532  0.5446
10816TIP3    H253864   2.448   2.771   1.086 -1.2423  1.2095 -0.7420
10817TIP3   OH253865   6.210   4.884   0.212  0.6309  0.4276 -0.1432
10817TIP3    H153866   6.283   4.946   0.212  0.5403  0.5592  1.2700
10817TIP3    H253867   6.247   4.804   0.175  0.8056  1.2199 -1.7852
10818TIP3   OH253868   1.064   4.884   4.797  0.0297  0.3424  0.0886
10818TIP3    H153869   1.015   4.956   4.755 -1.0382  0.6830  1.8264
10818TIP3    H253870   1.153   4.918   4.805 -0.1386  0.9221 -0.3592
10819TIP3   OH253871   2.786   6.149   4.022  0.2080  0.7653  0.1985
10819TIP3    H153872   2.837   6.124   3.945  0.2038 -0.6040  0.6113
10819TIP3    H253873   2.705   6.186   3.987 -0.2700 -0.8538 -0.4871
10820TIP3   OH253874   6.528   4.867  16.444  0.6133  0.4141 -0.1291
10820TIP3    H153875   6.546   4.774  16.454  1.0019  0.5924  0.9068
10820TIP3    H253876   6.505   4.877  16.351 -1.5516 -1.0421  0.1880
10821TIP3   OH253877   3.867   6.295   1.535 -0.1547  0.0858  0.3187
10821TIP3    H153878   3.901   6.213   1.570 -1.1880 -0.2850  0.4977
10821TIP3    H253879   3.919   6.311   1.457 -0.1730 -0.9364  0.0783
10822TIP3   OH253880   1.337   6.311  12.871  0.0628 -0.7625  0.5052
10822TIP3    H153881   1.253   6.321  12.827 -0.3713 -0.4338  1.3739
10822TIP3    H253882   1.314   6.291  12.962  0.9221 -0.4380  0.8101
10823TIP3   OH253883   6.266   2.353  13.818 -0.2540  0.6213  0.1466
10823TIP3    H153884   6.188   2.305  13.848 -1.4273  2.7840  0.7441
10823TIP3    H253885   6.234   2.410  13.748  1.3886 -0.3836 -1.5305
10824TIP3   OH253886   2.661   2.722  14.808 -0.3049 -0.1655 -0.3210
10824TIP3    H153887   2.750   2.739  14.775 -0.3334 -1.3166 -1.0813
10824TIP3    H253888   2.605   2.730  14.731 -0.6218 -1.0992 -0.2059
10825TIP3   OH253889   3.359   5.344   4.289 -0.2304  0.2760 -0.3745
10825TIP3    H153890   3.380   5.337   4.382  1.9757  1.3355 -0.7206
10825TIP3    H253891   3.367   5.254   4.256 -0.7957 -0.0665  0.3965
10826TIP3   OH253892   1.552   5.398  10.646  0.3508  0.0463  0.0572
10826TIP3    H153893   1.489   5.332  10.618  0.3157  0.4092 -0.7634
10826TIP3    H253894   1.627   5.387  10.587 -0.2020  1.5883 -0.9874
10827TIP3   OH253895   6.503   3.637   5.076  0.2611 -0.5342  0.8940
10827TIP3    H153896   6.533   3.566   5.132 -0.3135 -0.8752  0.7726
10827TIP3    H253897   6.408   3.631   5.077  0.2357 -1.1091 -0.8035
10828TIP3   OH253898   5.401   0.834   4.552  0.1161  0.3682 -0.0790
10828TIP3    H153899   5.468   0.847   4.620  0.0534  0.4640 -0.0358
10828TIP3    H253900   5.367   0.922   4.535  0.2978  0.3759 -0.4040
10829TIP3   OH253901   1.537   0.746  11.112  0.6495  0.2417 -0.0996
10829TIP3    H153902   1.515   0.718  11.201  0.3396 -1.5945 -0.7152
10829TIP3    H253903   1.462   0.799  11.084 -0.1118 -0.7081  0.0957
10830TIP3   OH253904   5.335   6.723  11.880 -0.0281 -0.3032 -0.0993
10830TIP3    H153905   5.378   6.666  11.943  0.4009  0.4765  0.3167
10830TIP3    H253906   5.243   6.697  11.883  0.2176 -1.2211 -0.1867
10831TIP3   OH253907   5.476   5.528  16.499 -0.0534  0.4615  0.6425
10831TIP3    H153908   5.515   5.465  16.560 -0.5168 -0.7010 -0.2204
10831TIP3    H253909   5.381   5.516  16.509 -0.1378  0.0410 -0.4867
10832TIP3   OH253910   3.602   3.784  13.289  0.4649  0.4555  0.5362
10832TIP3    H153911   3.633   3.694  13.303 -1.3987 -0.2804  0.1051
10832TIP3    H253912   3.562   3.809  13.373  1.9534  1.3458  1.0341
10833TIP3   OH253913   3.505   5.823  16.689  0.1160 -0.5720  0.6620
10833TIP3    H153914   3.576   5.884  16.666  0.7246 -1.2724  0.6478
10833TIP3    H253915   3.467   5.860  16.769 -2.0545  1.9363 -1.3165
10834TIP3   OH253916   0.710   5.583  13.510  0.3611 -0.4345  0.5374
10834TIP3    H153917   0.754   5.666  13.494 -1.9527  0.7617 -0.1268
10834TIP3    H253918   0.771   5.517  13.477  1.3602  1.1508 -0.9829
10835TIP3   OH253919   3.020   1.393  15.346 -0.1927 -0.2157  0.5607
10835TIP3    H153920   3.109   1.425  15.352 -0.0006 -0.7596  0.6975
10835TIP3    H253921   3.025   1.316  15.290 -0.7834  0.4524 -0.4565
10836TIP3   OH253922   2.096   0.258  16.779  0.1679 -0.5456  0.2081
10836TIP3    H153923   2.072   0.349  16.799  1.0577 -0.5935  1.6742
10836TIP3    H253924   2.191   0.261  16.767  0.0824 -1.1342 -0.7365
10837TIP3   OH253925   4.189   4.871  11.698  0.0697  0.5745  0.3137
10837TIP3    H153926   4.121   4.934  11.722  0.6653  0.8911  1.2372
10837TIP3    H253927   4.271   4.921  11.702  0.3305  0.3133 -1.2040
10838TIP3   OH253928   6.061   2.422  11.140  0.4113  0.0454  0.1119
10838TIP3    H153929   6.156   2.426  11.149  0.2572  1.4565  1.5959
10838TIP3    H253930   6.041   2.486  11.071  0.4847  0.3346  0.3569
10839TIP3   OH253931   3.177   5.024   3.580 -0.3030 -0.0523  0.0558
10839TIP3    H153932   3.084   5.010   3.596 -0.4308  0.3493 -0.3215
10839TIP3    H253933   3.188   5.119   3.579 -0.2763 -0.0396 -2.0134
10840TIP3   OH253934   2.098   4.119   5.286 -0.0102  0.0184 -0.3623
10840TIP3    H153935   2.166   4.175   5.248 -0.8351  1.1539 -0.1979
10840TIP3    H253936   2.043   4.094   5.211  1.1442 -1.7702 -0.6770
10841TIP3   OH253937   1.578   4.638  10.921  0.2571  0.1604  0.1513
10841TIP3    H153938   1.625   4.680  10.993  0.8119  1.6774 -1.0493
10841TIP3    H253939   1.613   4.678  10.842 -0.7990 -0.9941 -0.9534
10842TIP3   OH253940   0.529   5.893   3.017  0.5851 -0.1972 -0.4616
10842TIP3    H153941   0.608   5.904   2.965  0.0373  2.9288 -0.7920
10842TIP3    H253942   0.540   5.951   3.092  0.0128 -2.2910  1.3724
10843TIP3   OH253943   3.289   1.188   2.722  0.3547  0.6536 -0.0348
10843TIP3    H153944   3.381   1.168   2.708  0.4038  0.9158 -0.0874
10843TIP3    H253945   3.269   1.258   2.660  0.1183  0.5932 -0.0290
10844TIP3   OH253946   2.543   1.966  11.580 -0.5783  0.3795 -0.6173
10844TIP3    H153947   2.605   1.893  11.574 -0.8960  0.0848 -0.3676
10844TIP3    H253948   2.593   2.043  11.551 -0.0267  0.1931 -0.1752
10845TIP3   OH253949   4.014   0.173  15.705  0.0054 -0.0165  0.2582
10845TIP3    H153950   4.105   0.201  15.692 -0.2808  0.5946 -0.4864
10845TIP3    H253951   3.971   0.189  15.621 -0.4000 -1.8943  0.0654
10846TIP3   OH253952   2.028   5.232   2.649 -0.0948  0.7881 -0.0937
10846TIP3    H153953   2.083   5.310   2.660  0.3766  0.5803 -0.8798
10846TIP3    H253954   2.089   5.159   2.660 -0.4056  0.5419 -0.0199
10847TIP3   OH253955   4.188   6.811   3.482 -0.3557 -0.1755 -0.9832
10847TIP3    H153956   4.168   6.841   3.571  0.5843  0.7464 -1.0613
10847TIP3    H253957   4.176   6.716   3.486  0.6827 -0.2825  0.4220
10848TIP3   OH253958   3.593   5.940  11.702  0.3322  0.2204  0.0463
10848TIP3    H153959   3.686   5.956  11.687  0.7916 -2.3225 -0.2735
10848TIP3    H253960   3.559   5.913  11.617  0.7607 -4.6958  1.1460
10849TIP3   OH253961   1.399   1.221  12.813  0.4112 -0.3003  0.1720
10849TIP3    H153962   1.420   1.150  12.874  1.4488 -0.5273 -0.4431
10849TIP3    H253963   1.432   1.300  12.856 -1.0708 -0.1122  1.0271
10850TIP3   OH253964   0.715   6.024   5.137  0.5112  0.1284  0.6108
10850TIP3    H153965   0.680   6.097   5.085  0.9180 -0.5005 -0.5951
10850TIP3    H253966   0.707   6.053   5.228 -2.8000  0.1495  0.4252
10851TIP3   OH253967   5.088   2.730  15.890 -0.4013 -0.0342 -0.3810
10851TIP3    H153968   5.062   2.643  15.923 -0.9175  0.1164 -0.3823
10851TIP3    H253969   5.012   2.760  15.840 -1.0359  1.2966  1.3043
10852TIP3   OH253970   6.423   4.721   3.598 -0.0629 -0.2266 -0.1739
10852TIP3    H153971   6.343   4.705   3.649  0.0928  1.1390  0.5397
10852TIP3    H253972   6.407   4.677   3.515 -1.1814 -0.7521  0.2883
10853TIP3   OH253973   4.461   4.204  11.767 -0.4505 -0.3032  0.8287
10853TIP3    H153974   4.457   4.246  11.853 -1.5015  1.1066  0.1340
10853TIP3    H253975   4.370   4.183  11.747 -0.2999  0.0329 -0.2426
10854TIP3   OH253976   2.105   0.326   2.683 -0.1666  0.5632 -0.1756
10854TIP3    H153977   2.179   0.367   2.637  0.7534 -0.7344  0.0941
10854TIP3    H253978   2.029   0.378   2.656  0.6559  1.1793 -1.4402
10855TIP3   OH253979   2.310   2.560   5.657  0.3780 -0.3515  0.1652
10855TIP3    H153980   2.368   2.490   5.629 -0.1385 -0.7520  0.0954
10855TIP3    H253981   2.231   2.550   5.603 -0.0046 -0.1886  0.6862
10856TIP3   OH253982   5.988   5.063  10.430 -0.2249  0.3450  0.4484
10856TIP3    H153983   6.030   5.149  10.422  0.1987  0.1832  0.8487
10856TIP3    H253984   6.039   5.007  10.370 -2.3123  0.9865 -2.1181
10857TIP3   OH253985   5.535   6.214   5.124  0.1952 -0.0263 -0.6514
10857TIP3    H153986   5.555   6.161   5.201  1.5986  1.2634 -0.0892
10857TIP3    H253987   5.521   6.149   5.054 -2.0202 -1.2525  0.8277
10858TIP3   OH253988   3.605   0.289  13.134  0.6600  0.7190  1.3200
10858TIP3    H153989   3.529   0.232  13.124  0.4007  1.1503  0.8082
10858TIP3    H253990   3.679   0.234  13.109  0.4461  0.5000  1.1642
10859TIP3   OH253991   2.486   6.483   6.113  0.2573 -0.0289  0.2281
10859TIP3    H153992   2.399   6.518   6.095  0.9044  0.2466 -2.7078
10859TIP3    H253993   2.540   6.560   6.130  0.4238 -0.0353 -0.2759
10860TIP3   OH253994   2.418   4.774   6.085 -0.5131  0.1281 -0.4393
10860TIP3    H153995   2.493   4.825   6.116  0.3471 -0.5217 -1.3497
10860TIP3    H253996   2.356   4.774   6.158  1.1773 -0.9107  1.0738
10861TIP3   OH253997   5.788   1.851   5.729  0.0466 -0.4231  0.3705
10861TIP3    H153998   5.760   1.760   5.739 -2.2951  0.3824  2.1289
10861TIP3    H253999   5.706   1.900   5.722  0.8148  2.0522  4.8845
10862TIP3   OH254000   5.117   0.794   2.866 -0.5463 -0.3231 -0.1702
10862TIP3    H154001   5.047   0.762   2.923  1.0005 -1.3050  1.2639
10862TIP3    H254002   5.164   0.715   2.838  2.0863  0.4394  1.7450
10863TIP3   OH254003   6.012   5.574  14.552  0.0351 -0.1794 -0.4893
10863TIP3    H154004   6.064   5.609  14.479 -0.7767  0.8615 -0.5927
10863TIP3    H254005   6.054   5.610  14.630  0.1918 -0.3255 -0.5052
10864TIP3   OH254006   1.664   5.928   1.969 -0.5954 -0.0657 -0.0449
10864TIP3    H154007   1.600   5.993   1.999  2.2989  3.5897 -1.1159
10864TIP3    H254008   1.670   5.943   1.875  1.5792 -0.4864 -0.0096
10865TIP3   OH254009   5.641   2.962   5.753  0.4374  0.7744 -0.3599
10865TIP3    H154010   5.645   2.926   5.842 -0.6180  2.3679  0.3776
10865TIP3    H254011   5.568   2.916   5.712  1.1230 -0.1892 -0.5338
10866TIP3   OH254012   6.575   5.037  15.162  0.0862 -0.5464  0.4110
10866TIP3    H154013   6.640   4.974  15.132 -0.8696 -0.7127 -1.4800
10866TIP3    H254014   6.520   4.988  15.223  0.0867 -1.2168 -0.1115
10867TIP3   OH254015   2.537   1.591  12.585 -0.0037 -0.2611 -0.2763
10867TIP3    H154016   2.611   1.571  12.528  0.7152  0.8103  0.2358
10867TIP3    H254017   2.462   1.551  12.542  0.4621  0.7224 -2.1119
10868TIP3   OH254018   4.936   1.735   5.026 -0.3867  0.3325 -0.4235
10868TIP3    H154019   4.898   1.746   5.113 -2.2960  0.2508 -1.1954
10868TIP3    H254020   4.938   1.824   4.989 -0.3186  0.2641 -0.5859
10869TIP3   OH254021   1.771   2.376  15.372 -0.3493  0.2959  0.5549
10869TIP3    H154022   1.839   2.365  15.438 -3.0535 -0.4203  3.4584
10869TIP3    H254023   1.708   2.435  15.412 -1.7973  0.4181 -1.7219
10870TIP3   OH254024   1.211   0.348  15.213  0.0953 -0.1344 -0.1206
10870TIP3    H154025   1.279   0.283  15.228  1.9942  2.0987  1.7475
10870TIP3    H254026   1.242   0.398  15.137  0.5156  0.7816  0.6315
10871TIP3   OH254027   3.069   5.859   3.142 -0.2123 -0.5370  0.2449
10871TIP3    H154028   3.150   5.808   3.147 -0.2802 -0.5478  3.4924
10871TIP3    H254029   3.093   5.937   3.091  3.0553  1.2118  3.8834
10872TIP3   OH254030   0.213   0.446  16.926  0.4161 -0.5689  0.5218
10872TIP3    H154031   0.164   0.527  16.928  1.1653 -0.1086  1.6940
10872TIP3    H254032   0.147   0.377  16.918 -0.1658  0.1670 -1.5609
10873TIP3   OH254033   4.560   4.494   5.139  0.6325 -0.5245  0.1835
10873TIP3    H154034   4.543   4.484   5.045  2.0527 -0.9444 -0.0487
10873TIP3    H254035   4.609   4.416   5.162 -1.2401 -1.3328  1.7045
10874TIP3   OH254036   1.614   2.902   1.642 -0.3166  0.1470 -0.8323
10874TIP3    H154037   1.605   2.942   1.728  1.5901 -1.5839  0.2751
10874TIP3    H254038   1.527   2.866   1.623 -0.8570  0.8566  0.2002
10875TIP3   OH254039   3.665   6.467   4.866 -0.5211 -0.3157  0.5482
10875TIP3    H154040   3.668   6.437   4.776 -1.5419  1.3583 -0.0973
10875TIP3    H254041   3.573   6.458   4.892 -0.3605 -0.1835  1.1915
10876TIP3   OH254042   6.592   2.061   1.368 -0.0558 -0.0970 -0.2074
10876TIP3    H154043   6.607   2.052   1.274  0.4143  2.4373 -0.4427
10876TIP3    H254044   6.619   2.150   1.388  1.5152 -1.0848  2.6821
10877TIP3   OH254045   5.371   0.938  12.030  0.3246  0.4397  0.6178
10877TIP3    H154046   5.374   0.979  12.116  0.5113 -1.9002  1.7929
10877TIP3    H254047   5.288   0.967  11.992 -0.6418  0.0854  2.3680
10878TIP3   OH254048   2.646   6.154  16.743 -0.2667  0.4872 -0.4383
10878TIP3    H154049   2.591   6.091  16.789  0.2674  0.9551  0.9058
10878TIP3    H254050   2.652   6.121  16.653 -1.0508 -0.6595 -0.0857
10879TIP3   OH254051   6.700   3.721   3.857 -0.1519 -0.2116  0.2064
10879TIP3    H154052   6.738   3.647   3.905 -0.4474 -0.7943 -0.4425
10879TIP3    H254053   6.775   3.775   3.834  0.2649 -1.1293 -0.6905
10880TIP3   OH254054   2.094   1.464   3.842 -0.2136 -0.3109  0.6896
10880TIP3    H154055   2.158   1.420   3.898  0.2412  0.9080  1.1634
10880TIP3    H254056   2.011   1.423   3.863  0.4067 -1.9675  0.0291
10881TIP3   OH254057   4.310   2.832   5.431  0.5645 -0.3134  0.1759
10881TIP3    H154058   4.289   2.925   5.432 -0.5384 -0.4947 -2.0650
10881TIP3    H254059   4.336   2.813   5.522 -1.5179  1.6227  1.2670
10882TIP3   OH254060   3.931   4.608  15.490  0.1433  0.1550  0.0254
10882TIP3    H154061   3.936   4.621  15.585 -1.5750  1.6563 -0.0448
10882TIP3    H254062   3.983   4.679  15.453 -1.2658  1.1293 -0.1691
10883TIP3   OH254063   2.300   0.154  15.999  0.7698 -0.4947  0.2850
10883TIP3    H154064   2.241   0.184  16.068  0.9587  0.9411 -0.1470
10883TIP3    H254065   2.330   0.068  16.029 -1.4263 -1.2151  0.5716
10884TIP3   OH254066   5.947   6.549  16.716  0.0571 -0.3816  0.0236
10884TIP3    H154067   5.888   6.483  16.751  0.4127 -0.5831  0.2535
10884TIP3    H254068   6.005   6.570  16.789  0.7014 -0.6791 -0.3961
10885TIP3   OH254069   4.916   2.099  14.062 -0.3013 -0.3386  0.1079
10885TIP3    H154070   4.896   2.064  14.149  0.7684  1.5209  1.1657
10885TIP3    H254071   4.834   2.088  14.013 -0.9357 -1.3996  1.3221
10886TIP3   OH254072   2.821   4.440  16.270 -0.4758  0.2491  0.0505
10886TIP3    H154073   2.859   4.427  16.183 -0.7263 -1.6669  0.1782
10886TIP3    H254074   2.782   4.355  16.292 -0.5930  0.7500  1.9516
10887TIP3   OH254075   5.960   2.511  15.354  0.0974 -0.8428  0.6547
10887TIP3    H154076   6.010   2.519  15.273  0.8814 -0.9714  1.1211
10887TIP3    H254077   5.883   2.459  15.329 -0.5232  0.4951 -0.3734
10888TIP3   OH254078   0.130   1.362   4.482  0.0490  0.2101  0.1049
10888TIP3    H154079   0.063   1.385   4.546 -0.5472  0.3093 -0.5536
10888TIP3    H254080   0.099   1.281   4.442  1.1863 -0.7225  1.0267
10889TIP3   OH254081   2.437   1.131  13.109  0.2744  0.1105 -0.0966
10889TIP3    H154082   2.531   1.143  13.100  0.2211 -0.1774 -1.1873
10889TIP3    H254083   2.426   1.071  13.182  0.9922 -0.6933 -0.6390
10890TIP3   OH254084   4.824   6.184   1.817  0.5606 -0.4029 -0.1440
10890TIP3    H154085   4.736   6.198   1.782  0.3856 -3.4463 -1.2100
10890TIP3    H254086   4.830   6.243   1.892 -1.3752  1.8273 -1.6130
10891TIP3   OH254087   6.446   6.295   1.430 -0.4395 -0.7362  0.9119
10891TIP3    H154088   6.483   6.309   1.517 -1.9765  2.1434  1.2498
10891TIP3    H254089   6.361   6.338   1.434  0.3366  1.5405 -2.6011
10892TIP3   OH254090   2.460   4.106   5.751  0.1886  0.1094 -0.3807
10892TIP3    H154091   2.420   4.140   5.831 -2.3632 -0.1393 -1.4754
10892TIP3    H254092   2.489   4.018   5.774  0.5073  0.4476  0.5605
10893TIP3   OH254093   4.877   3.808   5.550 -0.0245 -0.1157 -0.6246
10893TIP3    H154094   4.878   3.775   5.460  1.4344 -1.7528 -0.0697
10893TIP3    H254095   4.919   3.894   5.544  2.2110 -1.1584 -1.2612
10894TIP3   OH254096   6.686   4.122  13.020  0.2021  0.2809 -0.5117
10894TIP3    H154097   6.713   4.186  13.086  2.2626  0.1479 -1.1460
10894TIP3    H254098   6.645   4.175  12.952 -0.3381  0.6259  0.0741
10895TIP3   OH254099   5.970   1.009  16.648  0.1876 -0.8418  1.1569
10895TIP3    H154100   6.049   1.056  16.673 -0.0763 -0.7405  1.8430
10895TIP3    H254101   6.000   0.925  16.615  0.7320  0.1454 -0.9926
10896TIP3   OH254102   5.286   0.811  13.810 -0.6417  0.1900  0.4774
10896TIP3    H154103   5.307   0.773  13.725  1.1392 -1.7451  1.6699
10896TIP3    H254104   5.239   0.741  13.856 -0.6842  0.8251  1.4257
10897TIP3   OH254105   4.795   0.352  11.299  0.2784 -0.1580 -0.8159
10897TIP3    H154106   4.831   0.288  11.239 -0.9131 -0.7198 -0.9643
10897TIP3    H254107   4.812   0.316  11.386  1.0089  0.1113 -0.8395
10898TIP3   OH254108   3.610   1.677   6.410 -0.0668 -0.3054  0.0300
10898TIP3    H154109   3.636   1.678   6.318  0.0264 -2.2215 -0.0014
10898TIP3    H254110   3.689   1.706   6.457  1.6574 -3.9944 -0.2227
10899TIP3   OH254111   3.220   1.464   0.410  0.1826  0.0622 -0.4965
10899TIP3    H154112   3.170   1.393   0.450  1.1733  0.4212  1.4734
10899TIP3    H254113   3.172   1.543   0.433 -0.2732  0.1492 -1.6818
10900TIP3   OH254114   3.774   3.775   4.518 -0.1965  0.5913 -0.9629
10900TIP3    H154115   3.701   3.738   4.469  1.7758 -0.9884 -2.9255
10900TIP3    H254116   3.817   3.835   4.457 -0.7031  2.7768  0.6997
10901TIP3   OH254117   5.942   5.876   0.518 -0.2792 -0.1819  0.4215
10901TIP3    H154118   5.895   5.864   0.600  0.4561  1.6397  1.1612
10901TIP3    H254119   6.034   5.872   0.543 -0.0468 -0.5189 -0.4723
10902TIP3   OH254120   6.564   6.724   2.962 -0.2102 -0.1268 -0.1968
10902TIP3    H154121   6.627   6.729   2.890  0.4309  2.1379  0.4266
10902TIP3    H254122   6.602   6.781   3.030 -2.1013 -0.0759  0.8632
10903TIP3   OH254123   4.267   1.686  14.852  0.1884 -0.3840  0.1233
10903TIP3    H154124   4.314   1.610  14.818 -0.9914 -0.7441 -0.7682
10903TIP3    H254125   4.229   1.656  14.935  0.5381 -0.4501  0.2628
10904TIP3   OH254126   2.219   3.870  12.261 -0.5127  0.0241 -0.0697
10904TIP3    H154127   2.211   3.964  12.280 -0.2760  0.0546 -0.1203
10904TIP3    H254128   2.289   3.840  12.318  2.1387  0.6724 -2.7411
10905TIP3   OH254129   4.258   5.285   4.348 -0.1474  0.3313  0.4685
10905TIP3    H154130   4.186   5.324   4.395 -1.1095  0.7452 -1.2539
10905TIP3    H254131   4.217   5.229   4.282  1.0452  1.0106 -0.9292
10906TIP3   OH254132   1.759   3.562   0.682  0.1071  0.3329 -0.2807
10906TIP3    H154133   1.758   3.631   0.748  2.1984  2.1212 -1.9825
10906TIP3    H254134   1.831   3.504   0.708 -0.5516 -0.2886  0.2112
10907TIP3   OH254135   4.067   5.340  13.729 -0.1704  0.1524  0.0135
10907TIP3    H154136   3.972   5.342  13.739 -0.3469 -0.4413 -1.2900
10907TIP3    H254137   4.083   5.267  13.669  1.0504  0.6872 -0.3450
10908TIP3   OH254138   1.096   4.542  15.270  0.1495  0.7606 -0.2074
10908TIP3    H154139   1.157   4.611  15.246  0.3959  1.6822  2.7909
10908TIP3    H254140   1.117   4.520  15.361 -0.2501 -2.9417 -0.8239
10909TIP3   OH254141   3.114   4.420  10.942 -0.2869  0.0598  0.6108
10909TIP3    H154142   3.140   4.378  10.860 -0.1978  1.2513  0.0156
10909TIP3    H254143   3.021   4.440  10.930 -0.2092  0.4714  0.6916
10910TIP3   OH254144   1.700   3.622  11.226 -0.3639  0.4619  0.3640
10910TIP3    H154145   1.776   3.679  11.233 -1.2201  1.4953  1.6162
10910TIP3    H254146   1.721   3.562  11.154  0.5660  2.3481 -0.9975
10911TIP3   OH254147   0.374   4.728   5.148  0.7861  0.2196  0.3036
10911TIP3    H154148   0.433   4.797   5.180  0.0754  1.4935 -1.0240
10911TIP3    H254149   0.372   4.741   5.053 -0.9207 -0.3686  0.2374
10912TIP3   OH254150   0.432   0.947  11.516 -0.2443 -0.4936  0.1773
10912TIP3    H154151   0.406   1.011  11.450 -0.4371 -2.6200 -1.9610
10912TIP3    H254152   0.510   0.904  11.480 -0.2843 -1.6599  1.3636
10913TIP3   OH254153   2.988   5.796   6.602  0.3021  0.0203 -0.4189
10913TIP3    H154154   2.994   5.876   6.549 -1.5761  0.3415 -0.2241
10913TIP3    H254155   3.010   5.824   6.691 -0.4659  0.3664 -0.3300
10914TIP3   OH254156   5.194   5.595  11.486  0.4148  0.6211  0.0935
10914TIP3    H154157   5.263   5.599  11.552  0.4130  0.1928  0.1210
10914TIP3    H254158   5.237   5.622  11.405  0.3166  1.5749  0.3423
10915TIP3   OH254159   6.364   3.404   0.635 -0.1472  0.0783  0.1503
10915TIP3    H154160   6.365   3.483   0.690  0.2972  0.4090 -0.3246
10915TIP3    H254161   6.395   3.335   0.693 -0.2198  0.3124  0.4760
10916TIP3   OH254162   3.728   5.689   5.828 -0.0960 -0.2060 -0.3114
10916TIP3    H154163   3.749   5.621   5.892  0.7780  0.4779  0.1473
10916TIP3    H254164   3.739   5.646   5.743  2.1487 -0.2259 -0.0789
10917TIP3   OH254165   4.809   2.801  15.855 -0.5061  0.3431  0.2079
10917TIP3    H154166   4.779   2.763  15.937  0.1701  0.3193  0.4475
10917TIP3    H254167   4.737   2.786  15.794 -0.3780 -1.0485  0.3804
10918TIP3   OH254168   5.118   0.274   5.110  0.3308  0.2779 -0.2852
10918TIP3    H154169   5.123   0.183   5.139 -0.5986 -0.1871 -1.5282
10918TIP3    H254170   5.035   0.306   5.144 -0.0338  0.2032 -1.0882
10919TIP3   OH254171   4.989   2.443   3.782 -0.3925  0.0080 -0.2727
10919TIP3    H154172   4.993   2.493   3.701 -0.5181  0.3215 -0.0848
10919TIP3    H254173   5.017   2.504   3.850  3.4492 -1.2325 -0.4889
10920TIP3   OH254174   5.742   5.328   6.551  0.5281  0.3383  0.1934
10920TIP3    H154175   5.784   5.387   6.614  2.3043  0.1594 -0.7612
10920TIP3    H254176   5.712   5.386   6.480 -0.7457  0.4448  0.7915
10921TIP3   OH254177   2.914   3.602  12.067  0.1844  0.1984 -0.8610
10921TIP3    H154178   2.944   3.555  11.990 -1.2811 -1.3585 -0.5480
10921TIP3    H254179   2.986   3.595  12.130  0.1986 -1.2356 -1.0107
10922TIP3   OH254180   3.601   3.929   5.206 -0.2159  0.1881 -0.5818
10922TIP3    H154181   3.587   3.842   5.243 -0.1482  0.4885  0.1607
10922TIP3    H254182   3.520   3.948   5.159  0.0976 -0.6288 -1.4803
10923TIP3   OH254183   6.251   2.796   0.568  0.0755 -0.0343 -0.3827
10923TIP3    H154184   6.327   2.740   0.551  0.0780 -0.1767  0.1051
10923TIP3    H254185   6.187   2.739   0.609 -1.0661 -0.4006 -2.5432
10924TIP3   OH254186   0.540   0.016   1.962  0.1401  0.0167  0.3074
10924TIP3    H154187   0.457  -0.003   1.918  0.7923 -0.9405 -0.5737
10924TIP3    H254188   0.517   0.029   2.054 -0.8090 -1.9177  0.3897
10925TIP3   OH254189   0.003   1.334   5.425 -0.0417 -0.3885  0.0956
10925TIP3    H154190   0.090   1.313   5.394  0.2968  0.7864  0.1862
10925TIP3    H254191   0.007   1.318   5.520  0.2400  0.1497  0.1796
10926TIP3   OH254192   2.141   2.666   1.717 -0.3071  0.0806  0.2908
10926TIP3    H154193   2.119   2.759   1.727 -1.2427 -0.1214  0.2106
10926TIP3    H254194   2.065   2.628   1.673 -0.1003 -0.8034  0.6747
10927TIP3   OH254195   3.868   5.601   6.585  0.2795 -0.1777  0.5092
10927TIP3    H154196   3.898   5.690   6.605 -3.3893  0.9276  1.8261
10927TIP3    H254197   3.866   5.557   6.670 -0.3531 -0.6774  0.2419
10928TIP3   OH254198   3.547   4.107   0.355 -0.1924  0.0967 -0.9166
10928TIP3    H154199   3.617   4.152   0.401 -0.0660 -0.6087 -0.4165
10928TIP3    H254200   3.586   4.026   0.322 -0.8701 -0.5445 -0.2105
10929TIP3   OH254201   0.481   1.309  11.564  0.4703 -0.1910  0.0088
10929TIP3    H154202   0.423   1.257  11.620 -0.2412 -0.0285 -0.5589
10929TIP3    H254203   0.429   1.324  11.485  2.0423 -1.8667 -1.4141
10930TIP3   OH254204   3.342   2.575  12.351  0.7055  0.0657 -0.1884
10930TIP3    H154205   3.373   2.593  12.439  0.3318 -0.1945 -0.0014
10930TIP3    H254206   3.280   2.645  12.332 -0.5873 -0.8631  0.4568
10931TIP3   OH254207   2.828   6.103  11.258 -0.6295 -0.4475  0.6306
10931TIP3    H154208   2.737   6.122  11.281 -0.1348  1.5301  1.1993
10931TIP3    H254209   2.836   6.131  11.167 -0.2449  0.8869  1.0475
10932TIP3   OH254210   3.771   1.715  10.662 -0.0256  0.0455  0.1011
10932TIP3    H154211   3.687   1.747  10.695  0.4411  0.5799  0.8229
10932TIP3    H254212   3.753   1.626  10.632 -0.5794 -0.3438  1.4978
10933TIP3   OH254213   1.990   2.805  11.750  0.2602 -0.7540 -0.5580
10933TIP3    H154214   2.070   2.826  11.798  0.1234 -1.2044 -0.1208
10933TIP3    H254215   1.919   2.825  11.811  0.0809 -1.2633 -0.5904
10934TIP3   OH254216   5.430   6.072   2.634 -0.7850 -0.2094  0.3543
10934TIP3    H154217   5.390   5.993   2.597 -0.0223 -0.2425 -0.4289
10934TIP3    H254218   5.489   6.104   2.566 -0.6567  0.7248  0.8815
10935TIP3   OH254219   1.439   4.293   2.241 -0.1384  0.0617  0.0588
10935TIP3    H154220   1.462   4.306   2.149 -3.4024  0.1712 -0.8958
10935TIP3    H254221   1.422   4.199   2.248 -0.8783  0.1985  0.2301
10936TIP3   OH254222   5.964   0.128  14.941  0.1624 -0.3105  0.2384
10936TIP3    H154223   5.985   0.041  14.976 -0.7978  0.2593  2.4042
10936TIP3    H254224   5.903   0.110  14.869  1.3292 -1.4950 -0.5012
10937TIP3   OH254225   0.695   1.857  13.615  0.5550  0.5315 -0.0468
10937TIP3    H154226   0.688   1.821  13.527  0.1296  0.9529 -0.1868
10937TIP3    H254227   0.634   1.931  13.616 -0.1011 -0.0086  0.8762
10938TIP3   OH254228   3.437   2.855  14.390  0.1992  0.4460  0.2373
10938TIP3    H154229   3.425   2.858  14.485 -1.3606  0.1504  0.0823
10938TIP3    H254230   3.399   2.771  14.364  0.7995  0.4302 -0.6246
10939TIP3   OH254231   5.740   1.142   0.244  0.0804 -0.6868  0.2352
10939TIP3    H154232   5.786   1.130   0.161 -0.3625 -1.4569  0.0851
10939TIP3    H254233   5.719   1.235   0.248  4.0288  0.3449  1.5924
10940TIP3   OH254234   1.627   1.355  14.537 -0.4149 -0.3624  0.0138
10940TIP3    H154235   1.636   1.400  14.621  1.4105  0.4388 -0.5590
10940TIP3    H254236   1.631   1.262  14.559  2.0301 -0.1547  0.6851
10941TIP3   OH254237   4.409   5.827   2.332 -0.0286  0.7010  0.3898
10941TIP3    H154238   4.349   5.884   2.380  1.4216  0.7864  2.2206
10941TIP3    H254239   4.494   5.871   2.340  0.6497 -0.4445 -0.3592
10942TIP3   OH254240   4.912   3.500   2.640 -0.1904 -0.0471  0.0927
10942TIP3    H154241   4.887   3.559   2.711 -0.6192  0.0000 -0.0928
10942TIP3    H254242   4.830   3.457   2.615 -0.3363  0.9704 -1.3158
10943TIP3   OH254243   0.269   4.147  14.900 -0.2109 -0.2108  0.2632
10943TIP3    H154244   0.363   4.156  14.915 -0.4487  0.8258  1.2752
10943TIP3    H254245   0.233   4.124  14.986 -1.2071  2.3238  0.6283
10944TIP3   OH254246   5.782   0.537   3.980  0.3860 -0.1989  0.3673
10944TIP3    H154247   5.800   0.453   3.938 -2.1785 -0.3473 -0.5665
10944TIP3    H254248   5.704   0.570   3.936 -0.0957  1.5434  2.3808
10945TIP3   OH254249   5.068   1.211  16.797 -0.2516 -0.2732 -0.2928
10945TIP3    H154250   5.020   1.251  16.725 -0.1305  0.0347 -0.2057
10945TIP3    H254251   5.046   1.118  16.793 -1.0273 -0.1008 -0.1163
10946TIP3   OH254252   3.400   6.131   6.205 -0.1977 -0.4529  0.6172
10946TIP3    H154253   3.487   6.091   6.212 -0.2652 -0.7269 -0.0243
10946TIP3    H254254   3.341   6.069   6.247 -0.1601 -0.5439  0.5357
10947TIP3   OH254255   5.768   1.446  11.913  0.1266  0.1862  0.4638
10947TIP3    H154256   5.763   1.395  11.994 -2.0792 -1.0077 -0.3385
10947TIP3    H254257   5.680   1.482  11.902  0.5907  0.9443 -1.0032
10948TIP3   OH254258   5.614   2.979  14.051  0.5773  1.1115 -0.1261
10948TIP3    H154259   5.622   2.973  13.956 -0.1279  2.1360 -0.2543
10948TIP3    H254260   5.675   2.913  14.083  0.5807  0.5196 -1.2889
10949TIP3   OH254261   2.230   5.901   5.967  0.4547 -0.3464 -0.2854
10949TIP3    H154262   2.279   5.819   5.970  1.6497  0.3136 -0.9221
10949TIP3    H254263   2.293   5.967   5.994 -0.6835  0.3071  0.8888
10950TIP3   OH254264   2.651   3.237  11.262  0.3665 -0.1751 -0.1935
10950TIP3    H154265   2.575   3.243  11.320  0.5325  0.5849 -0.0336
10950TIP3    H254266   2.665   3.328  11.233  0.7314 -0.4322 -0.8426
10951TIP3   OH254267   3.674   2.540  12.419 -0.1601  0.7571 -0.8933
10951TIP3    H154268   3.713   2.453  12.429  1.7268  1.6244 -0.2554
10951TIP3    H254269   3.594   2.537  12.472 -0.6697 -0.8714 -1.6847
10952TIP3   OH254270   5.978   1.979   3.996  0.1334 -0.3606 -0.0848
10952TIP3    H154271   5.939   1.933   4.071 -0.6031 -0.4956 -0.5431
10952TIP3    H254272   5.989   1.912   3.929  1.4420 -0.3806  0.1343
10953TIP3   OH254273   1.380   3.589  15.566  0.0343 -0.3830  0.1482
10953TIP3    H154274   1.463   3.634  15.580  0.0201 -0.4403  0.4288
10953TIP3    H254275   1.391   3.544  15.482 -0.4897  1.3627 -0.9102
10954TIP3   OH254276   6.551   4.623   4.416 -0.1570  0.2672 -0.8044
10954TIP3    H154277   6.592   4.667   4.490  1.2154 -0.1959 -1.2568
10954TIP3    H254278   6.581   4.532   4.422 -1.1748 -0.1144 -1.1366
10955TIP3   OH254279   2.002   6.471  15.736 -0.8644  0.3366 -0.0644
10955TIP3    H154280   1.997   6.454  15.830  1.1679 -0.3776 -0.0382
10955TIP3    H254281   2.036   6.390  15.698  0.7521  1.4278 -1.0756
10956TIP3   OH254282   2.430   2.407  16.572  0.2010  0.1997  0.0736
10956TIP3    H154283   2.425   2.331  16.514 -1.3600  1.9771 -2.2826
10956TIP3    H254284   2.523   2.413  16.595  0.5594 -1.6194 -0.7367
10957TIP3   OH254285   5.100   1.001   4.520 -0.0656  0.0483  0.2862
10957TIP3    H154286   5.190   1.020   4.493 -0.0116 -0.9629 -0.2612
10957TIP3    H254287   5.077   0.920   4.475 -1.7523  1.0079 -0.6931
10958TIP3   OH254288   6.549   5.052  12.421  0.2482 -0.2848  0.6373
10958TIP3    H154289   6.516   4.969  12.455 -0.2114  0.2692  1.5759
10958TIP3    H254290   6.644   5.048  12.435  0.1506 -0.3848  1.3027
10959TIP3   OH254291   2.193   5.816   1.715 -0.0861 -0.1825  0.0989
10959TIP3    H154292   2.099   5.803   1.706 -0.5895  1.8919  1.5430
10959TIP3    H254293   2.211   5.795   1.807  0.6585  0.4711  0.1096
10960TIP3   OH254294   2.718   2.941   4.750  0.1367 -0.7419 -0.6013
10960TIP3    H154295   2.698   3.034   4.744 -1.5286 -1.0247  0.0455
10960TIP3    H254296   2.642   2.898   4.710  0.9683 -1.8236 -1.0560
10961TIP3   OH254297   5.703   2.183  13.117  0.2027  0.3232  0.0423
10961TIP3    H154298   5.626   2.220  13.073  0.5605 -1.9587 -2.7263
10961TIP3    H254299   5.668   2.113  13.172 -0.0633  2.2237  2.5313
10962TIP3   OH254300   1.455   1.383   1.851  0.0648  0.1258 -0.4514
10962TIP3    H154301   1.369   1.406   1.886 -0.3709 -0.9600 -0.7514
10962TIP3    H254302   1.446   1.394   1.756  0.7899  1.6399 -0.3680
10963TIP3   OH254303   2.690   5.588  15.810  0.8390  0.1467  0.2929
10963TIP3    H154304   2.604   5.610  15.846  0.6446 -0.0574 -0.0456
10963TIP3    H254305   2.714   5.506  15.854  0.8246  0.1583  0.3232
10964TIP3   OH254306   4.580   4.605  11.013  0.4093  0.0927  0.5946
10964TIP3    H154307   4.524   4.672  10.974  0.0898 -1.9271 -2.8163
10964TIP3    H254308   4.668   4.624  10.980  0.2249 -1.3651 -0.8601
10965TIP3   OH254309   5.278   3.900   5.681 -0.0856  0.0984 -0.1077
10965TIP3    H154310   5.370   3.926   5.677 -0.4159  1.3868  0.1115
10965TIP3    H254311   5.252   3.889   5.589  0.6627 -1.8211 -0.1433
10966TIP3   OH254312   2.285   6.274   5.245 -0.1899  0.4661  0.3664
10966TIP3    H154313   2.225   6.337   5.285 -1.2026 -0.8295  0.9527
10966TIP3    H254314   2.369   6.289   5.289 -0.6701  0.7517  1.2029
10967TIP3   OH254315   2.633   3.497  11.353 -0.3094  0.3400  0.1472
10967TIP3    H154316   2.637   3.571  11.413  0.2751  0.7933 -0.4327
10967TIP3    H254317   2.570   3.525  11.285  0.1302  0.4273 -0.2282
10968TIP3   OH254318   3.864   1.589  11.317  0.0295 -0.0678 -0.3405
10968TIP3    H154319   3.884   1.652  11.248  2.2794  0.6013  0.8562
10968TIP3    H254320   3.871   1.639  11.398  1.3143 -1.7065  0.6041
10969TIP3   OH254321   1.733   1.056   3.581  0.6233  0.4757  0.7922
10969TIP3    H154322   1.801   0.990   3.568  1.6104  1.2732  1.7711
10969TIP3    H254323   1.661   1.008   3.623  0.9315 -0.1676  0.6042
10970TIP3   OH254324   3.601   1.138  15.241  0.4551 -0.7473  0.0642
10970TIP3    H154325   3.686   1.112  15.278  1.2117 -0.3484 -1.3127
10970TIP3    H254326   3.580   1.068  15.179 -0.1370 -0.7408  0.2571
10971TIP3   OH254327   5.993   3.722  14.908 -0.2977 -0.1709 -0.4289
10971TIP3    H154328   6.004   3.816  14.922 -0.7998  0.1563 -1.9779
10971TIP3    H254329   6.009   3.682  14.994  2.3788  1.0943 -0.2497
10972TIP3   OH254330   6.278   3.944   5.456 -0.3709  0.1699 -0.1002
10972TIP3    H154331   6.184   3.929   5.468 -0.9805  1.7968 -2.1583
10972TIP3    H254332   6.302   4.001   5.528 -0.8387 -0.6601  0.7283
10973TIP3   OH254333   6.723   0.928  12.657 -0.0402 -0.2687 -0.0490
10973TIP3    H154334   6.730   1.017  12.691  2.3237 -0.0204 -1.0111
10973TIP3    H254335   6.812   0.894  12.662 -0.9537 -2.7842  0.7243
10974TIP3   OH254336   5.570   4.025  15.691  0.3158 -0.5951  0.4536
10974TIP3    H154337   5.535   3.936  15.681  0.4923 -0.5786 -0.3657
10974TIP3    H254338   5.562   4.064  15.604 -1.2522  0.7458  1.1448
10975TIP3   OH254339   3.052   2.355  11.370 -0.3874 -0.2656 -0.1955
10975TIP3    H154340   3.134   2.307  11.363 -0.1130  0.2240 -0.4337
10975TIP3    H254341   3.067   2.435  11.320 -0.8581  0.0294  0.1239
10976TIP3   OH254342   1.921   2.760   1.136 -0.6933 -0.1955 -0.1243
10976TIP3    H154343   1.847   2.730   1.084 -1.4574 -0.2962  0.9925
10976TIP3    H254344   1.882   2.817   1.202  0.4064  1.0032 -0.4685
10977TIP3   OH254345   1.694   2.431   4.218 -0.3478 -0.0149  0.5477
10977TIP3    H154346   1.599   2.425   4.220 -0.2834 -1.0762  1.7646
10977TIP3    H254347   1.723   2.341   4.200  0.4294  0.4046 -0.4223
10978TIP3   OH254348   5.907   5.626   5.193 -0.2738 -0.4043  0.4427
10978TIP3    H154349   5.993   5.636   5.234  0.1576 -0.8221 -0.3443
10978TIP3    H254350   5.845   5.655   5.260  0.2930 -2.6904  2.0576
10979TIP3   OH254351   5.152   3.624  12.745  0.0792 -0.1585  0.3284
10979TIP3    H154352   5.104   3.645  12.664 -1.1772 -3.0362  0.2180
10979TIP3    H254353   5.166   3.709  12.786 -2.3839  1.1223 -1.2060
10980TIP3   OH254354   2.417   5.993  14.815  0.3088  0.4791  0.0773
10980TIP3    H154355   2.418   6.062  14.748 -1.5626 -0.5036 -1.0520
10980TIP3    H254356   2.489   6.015  14.873 -0.2307  3.4184 -0.2099
10981TIP3   OH254357   1.973   6.485   5.813 -0.4971  0.1366 -0.0958
10981TIP3    H154358   1.946   6.468   5.904  0.2231  2.3445  0.5784
10981TIP3    H254359   1.891   6.486   5.764 -0.9073 -0.9599  0.5283
10982TIP3   OH254360   5.955   1.849   4.950  0.0424  0.3389 -0.2663
10982TIP3    H154361   5.969   1.929   4.899  1.4930  1.0388  1.1869
10982TIP3    H254362   6.029   1.793   4.928 -0.2442 -0.0646 -0.2208
10983TIP3   OH254363   2.272   4.605  15.365  0.0432  0.0820 -0.0422
10983TIP3    H154364   2.210   4.608  15.292  0.7262  0.0630 -0.6387
10983TIP3    H254365   2.350   4.564  15.328  0.1668 -0.5443  0.8841
10984TIP3   OH254366   3.599   4.851  14.562 -0.5873 -0.0069 -0.7825
10984TIP3    H154367   3.607   4.926  14.621  0.0950  1.1899 -2.3320
10984TIP3    H254368   3.578   4.889  14.477  0.7630 -1.4631 -1.8316
10985TIP3   OH254369   1.141   6.783   4.727 -0.0003  0.2591  0.3334
10985TIP3    H154370   1.213   6.817   4.674 -0.2908  2.1155  1.0656
10985TIP3    H254371   1.078   6.749   4.664  1.0438 -0.4338 -0.3529
10986TIP3   OH254372   5.315   3.050   0.741  0.2078 -0.1764  0.4706
10986TIP3    H154373   5.386   2.988   0.726  0.5763 -0.1121  1.8675
10986TIP3    H254374   5.242   2.997   0.771 -0.2359 -0.1892 -0.5644
10987TIP3   OH254375   1.844   0.399  12.657  0.4288 -0.2378  0.7890
10987TIP3    H154376   1.905   0.330  12.684  1.8184  0.5365 -0.2239
10987TIP3    H254377   1.795   0.361  12.584 -0.1149 -0.7596  1.4112
10988TIP3   OH254378   5.270   6.182   3.824 -0.7342  0.1412  0.1104
10988TIP3    H154379   5.250   6.162   3.916  0.6788  0.5182  0.5232
10988TIP3    H254380   5.295   6.274   3.824  2.1617 -0.5358 -0.0755
10989TIP3   OH254381   2.319   6.434  11.976  0.4551  0.3826  0.0735
10989TIP3    H154382   2.303   6.351  11.931 -0.8074  0.4968  0.2900
10989TIP3    H254383   2.288   6.420  12.065 -1.1291  1.5090 -0.2513
10990TIP3   OH254384   4.271   5.747  11.585  0.3495 -0.0777  0.2826
10990TIP3    H154385   4.188   5.754  11.632 -0.1057  1.5802 -0.6763
10990TIP3    H254386   4.275   5.827  11.532  0.4424 -2.1243 -3.1126
10991TIP3   OH254387   0.068   5.321  10.375  0.1389  0.2686  0.5645
10991TIP3    H154388  -0.004   5.381  10.356 -0.5186  0.2015  2.5999
10991TIP3    H254389   0.029   5.253  10.429  0.6845 -2.4843 -2.2254
10992TIP3   OH254390   2.924   0.547   4.651 -0.0197 -0.1381 -0.2429
10992TIP3    H154391   2.889   0.481   4.711  0.7688  0.0808  0.4631
10992TIP3    H254392   2.848   0.574   4.599 -0.5335 -0.9492  0.0638
10993TIP3   OH254393   3.375   6.268   2.084 -0.4642 -0.4780 -0.1286
10993TIP3    H154394   3.449   6.301   2.033 -1.9588  0.9856 -1.4947
10993TIP3    H254395   3.299   6.281   2.027 -1.9682 -0.5947  1.7365
10994TIP3   OH254396   6.426   4.136   0.703 -0.4566  0.2138 -0.3566
10994TIP3    H154397   6.506   4.137   0.755 -0.2626  0.5612 -0.6621
10994TIP3    H254398   6.419   4.046   0.672 -0.6088 -0.0166  0.3170
10995TIP3   OH254399   2.751   3.346   6.119  0.5299 -0.2581 -0.1259
10995TIP3    H154400   2.812   3.394   6.175  1.1031 -0.0484 -0.9204
10995TIP3    H254401   2.750   3.257   6.156 -0.3689  0.2631  1.2137
10996TIP3   OH254402   1.769   0.617   4.367 -0.8959 -0.6767  0.1043
10996TIP3    H154403   1.735   0.531   4.342  2.3165 -2.0884  0.0500
10996TIP3    H254404   1.821   0.601   4.446 -0.8098  1.3909  0.5337
10997TIP3   OH254405   0.033   3.305   3.170  0.6869  0.1372  0.1638
10997TIP3    H154406   0.121   3.342   3.166 -0.0788  2.1892  0.9547
10997TIP3    H254407   0.017   3.273   3.081  0.9879  2.8966 -0.9969
10998TIP3   OH254408   0.568   4.895   4.218  0.3610 -0.6691 -0.1502
10998TIP3    H154409   0.596   4.808   4.190  2.0461 -0.7086  1.4397
10998TIP3    H254410   0.541   4.884   4.309 -1.2020  0.1664 -0.4662
10999TIP3   OH254411   4.657   0.872   3.141 -0.0159  0.0131  0.1526
10999TIP3    H154412   4.662   0.879   3.046 -1.1074  0.6004  0.1202
10999TIP3    H254413   4.722   0.935   3.173  1.5708 -1.3746 -0.1712
11000TIP3   OH254414   6.579   5.983  13.124 -0.3618 -0.7272  0.5642
11000TIP3    H154415   6.651   6.045  13.108  0.1924 -1.5120 -0.0382
11000TIP3    H254416   6.600   5.907  13.070 -0.8509 -1.6018  1.5615
11001TIP3   OH254417   0.429   4.896  15.886 -0.0155  0.5494  0.4537
11001TIP3    H154418   0.467   4.816  15.922 -0.4699 -0.3269 -0.9558
11001TIP3    H254419   0.497   4.962  15.897  0.9866 -0.4153  0.1832
11002TIP3   OH254420   1.438   4.634  14.224  0.1514  0.3532  0.1871
11002TIP3    H154421   1.507   4.601  14.282 -0.7052 -2.4025 -0.1909
11002TIP3    H254422   1.394   4.702  14.275  0.9914 -0.2449  1.7792
11003TIP3   OH254423   2.014   1.909   4.120  0.3977  0.7241  0.0866
11003TIP3    H154424   1.989   1.997   4.147 -0.7664  0.1563  0.9772
11003TIP3    H254425   1.935   1.856   4.133  1.2247 -0.5663  0.1326
11004TIP3   OH254426   0.241   3.491   3.134  0.0806  0.1163  0.4449
11004TIP3    H154427   0.241   3.561   3.199  1.7485 -0.4419  1.1283
11004TIP3    H254428   0.328   3.451   3.143 -0.1496 -0.8508 -1.2039
11005TIP3   OH254429   3.619   2.047   4.701  0.1552 -0.0325 -0.2651
11005TIP3    H154430   3.565   1.968   4.695 -0.1328  0.1341  0.0762
11005TIP3    H254431   3.709   2.016   4.689  0.0209 -0.3710 -0.4119
11006TIP3   OH254432   6.492   2.253  12.386 -0.0842 -0.0550 -0.0422
11006TIP3    H154433   6.527   2.167  12.360 -1.1515 -0.1168 -1.4031
11006TIP3    H254434   6.452   2.238  12.471  0.1394 -0.7951 -0.0564
11007TIP3   OH254435   0.784   4.719   4.678  0.7925 -0.1338 -0.2354
11007TIP3    H154436   0.782   4.789   4.742  3.1608 -1.8654  1.9466
11007TIP3    H254437   0.867   4.731   4.632  0.4186 -0.5241 -1.0383
11008TIP3   OH254438   0.929   3.739  14.143 -0.7385  0.2043 -0.1925
11008TIP3    H154439   0.925   3.733  14.239  0.6317 -0.4594 -0.1564
11008TIP3    H254440   0.875   3.666  14.112  2.0209 -2.1723  0.1559
11009TIP3   OH254441   2.054   0.912   3.807 -0.1510  0.3988 -0.1927
11009TIP3    H154442   2.089   0.901   3.719 -0.4110  2.5599 -0.6042
11009TIP3    H254443   2.011   0.828   3.826  1.3252 -0.6950 -1.4295
11010TIP3   OH254444   1.426   5.849  12.324  0.1512 -0.1775  0.1025
11010TIP3    H154445   1.482   5.810  12.256  0.2455 -0.5895  0.4141
11010TIP3    H254446   1.444   5.798  12.403 -0.3477 -0.0416  0.3118
11011TIP3   OH254447   3.468   1.434  11.505 -0.5936 -0.3422  0.4654
11011TIP3    H154448   3.474   1.358  11.447 -0.3540  0.3507 -0.4388
11011TIP3    H254449   3.456   1.396  11.592 -0.4636 -1.4157  0.0374
11012TIP3   OH254450   0.608   4.585  14.031 -0.1629  0.0569 -0.3381
11012TIP3    H154451   0.534   4.638  14.004 -0.4876 -0.8000 -1.1833
11012TIP3    H254452   0.650   4.558  13.949  0.1046 -0.8229  0.0711
11013TIP3   OH254453   1.125   2.162  15.145 -0.0933  0.2110  0.5092
11013TIP3    H154454   1.171   2.143  15.227  0.4225 -1.7206 -0.1809
11013TIP3    H254455   1.189   2.210  15.093 -0.4670  1.5688  1.2414
11014TIP3   OH254456   5.430   1.785   5.657  0.0578 -0.3824 -0.5694
11014TIP3    H154457   5.459   1.718   5.595  0.6698 -0.9347  0.2901
11014TIP3    H254458   5.391   1.853   5.602  1.1140 -0.5830 -1.6242
11015TIP3   OH254459   3.921   6.682  12.929  0.0621  0.6189  0.0961
11015TIP3    H154460   4.001   6.709  12.974  2.5997 -4.1887 -0.8296
11015TIP3    H254461   3.862   6.657  13.000  1.3507 -0.4007  0.8587
11016TIP3   OH254462   5.073   2.139  12.937  0.5361 -0.1425  0.7089
11016TIP3    H154463   5.150   2.178  12.895 -1.8235  4.0039 -0.3665
11016TIP3    H254464   5.034   2.084  12.869  0.5667  0.8023 -0.0951
11017TIP3   OH254465   3.748   6.137   2.406  0.8317  0.6878  0.3582
11017TIP3    H154466   3.792   6.080   2.344 -1.9810 -2.3477  0.8566
11017TIP3    H254467   3.672   6.170   2.358  0.5138  1.1301  1.1519
11018TIP3   OH254468   0.981   3.165   2.322 -0.2880  0.3041 -0.1423
11018TIP3    H154469   0.885   3.168   2.329 -0.2783  1.0600 -0.2188
11018TIP3    H254470   1.010   3.248   2.361  0.3200  0.1946 -0.3590
11019TIP3   OH254471   5.028   3.900  14.541  0.3494 -0.2292 -0.5058
11019TIP3    H154472   4.979   3.824  14.572  1.0234 -0.5989 -0.3412
11019TIP3    H254473   5.054   3.946  14.621  0.3117 -0.0569 -0.5915
11020TIP3   OH254474   5.100   1.792  13.985  0.0522  0.1976 -0.0590
11020TIP3    H154475   5.126   1.882  14.002  0.1755  0.2759 -0.6465
11020TIP3    H254476   5.152   1.766  13.909  1.1380 -0.8760  1.0198
11021TIP3   OH254477   3.891   4.690  10.673 -0.1132 -0.2121  0.0215
11021TIP3    H154478   3.824   4.642  10.626  1.6643 -1.4230 -1.4195
11021TIP3    H254479   3.930   4.747  10.607  0.3310  0.4143  0.8085
11022TIP3   OH254480   5.415   6.400   2.471  0.5910 -0.3540 -0.2676
11022TIP3    H154481   5.476   6.473   2.468 -0.0049  0.1819  0.5287
11022TIP3    H254482   5.402   6.382   2.564 -0.5485 -0.3787 -0.4088
11023TIP3   OH254483   5.548   3.224   5.042  0.3286  0.4488  0.1478
11023TIP3    H154484   5.478   3.175   5.000 -1.4907  0.1272  3.2220
11023TIP3    H254485   5.603   3.254   4.970 -2.4108 -0.1045 -2.3832
11024TIP3   OH254486   2.826   2.112  13.206 -0.8658 -0.0437 -0.3250
11024TIP3    H154487   2.741   2.137  13.171 -0.7792  0.4146 -0.2228
11024TIP3    H254488   2.806   2.053  13.279 -1.0247 -1.4606 -1.4748
11025TIP3   OH254489   0.263   2.637  15.537 -0.3867  0.3203 -0.1187
11025TIP3    H154490   0.188   2.593  15.576 -0.0606  0.1180  0.2897
11025TIP3    H254491   0.333   2.572  15.541 -0.4611  0.1201 -1.4781
11026TIP3   OH254492   4.078   6.059  13.023  0.0326  0.3234  0.2442
11026TIP3    H154493   4.146   6.126  13.016  0.3065  0.0256  0.0805
11026TIP3    H254494   4.106   5.989  12.964  0.6740 -0.7298  1.7309
11027TIP3   OH254495   2.490   4.932   5.002 -0.0218  0.0961 -0.1784
11027TIP3    H154496   2.409   4.883   5.020  0.9180 -2.6052 -2.4652
11027TIP3    H254497   2.483   4.955   4.909  1.0894  1.3854  0.0375
11028TIP3   OH254498   6.189   1.801   0.258  0.6392 -0.2986  0.2391
11028TIP3    H154499   6.179   1.738   0.188  2.0997 -0.6181  0.2843
11028TIP3    H254500   6.111   1.856   0.253 -0.3296 -1.6809 -0.2212
11029TIP3   OH254501   0.260   4.372  12.492  0.2241 -0.0665 -0.3524
11029TIP3    H154502   0.319   4.343  12.422 -0.5116  0.5595 -1.2651
11029TIP3    H254503   0.221   4.291  12.525  0.4866 -0.3673 -0.7590
11030TIP3   OH254504   1.893   5.469  14.542 -0.4317  0.1459 -0.2765
11030TIP3    H154505   1.974   5.418  14.539  1.4493  2.6169  2.4295
11030TIP3    H254506   1.922   5.561  14.536 -3.0161  1.1432  0.9385
11031TIP3   OH254507   1.018   2.190   5.991  0.4600  0.3386 -0.2267
11031TIP3    H154508   0.997   2.264   6.049 -1.0931  0.4424 -0.8764
11031TIP3    H254509   0.949   2.126   6.009  1.2140 -0.5437 -0.4148
11032TIP3   OH254510   1.125   1.767   0.666 -0.2822  0.2212 -0.2199
11032TIP3    H154511   1.068   1.842   0.648 -1.9217 -0.0875  3.0886
11032TIP3    H254512   1.147   1.775   0.759  1.1219 -2.3583 -0.2412
11033TIP3   OH254513   4.882   5.550  11.160 -0.1175  0.3270  0.2976
11033TIP3    H154514   4.899   5.471  11.108 -0.4297 -0.6374  1.6028
11033TIP3    H254515   4.899   5.523  11.250  0.0948  1.8644  0.7437
11034TIP3   OH254516   2.977   3.270   5.236 -0.1022  0.5563  0.1354
11034TIP3    H154517   3.029   3.255   5.315 -2.3978  0.3817  1.7240
11034TIP3    H254518   3.035   3.319   5.178  1.3224  1.7512  2.4017
11035TIP3   OH254519   0.507   3.900   0.981  0.2106  0.0970 -0.3384
11035TIP3    H154520   0.540   3.907   1.070 -1.0259 -2.0206  0.3515
11035TIP3    H254521   0.468   3.813   0.976 -0.1888  0.3283 -2.8169
11036TIP3   OH254522   0.945   1.700   1.858  0.4260 -0.0090  0.2299
11036TIP3    H154523   0.911   1.694   1.769  0.7702 -0.0127  0.0976
11036TIP3    H254524   1.009   1.630   1.864  0.3459 -0.0593  0.5082
11037TIP3   OH254525   6.793   5.141   0.060  0.7491  0.0518 -0.3376
11037TIP3    H154526   6.860   5.195   0.101 -1.0586  1.4839  0.9236
11037TIP3    H254527   6.719   5.144   0.121 -0.2151 -2.0953 -1.2830
11038TIP3   OH254528   6.065   6.425  12.330  0.2664 -0.4732  0.1843
11038TIP3    H154529   6.119   6.347  12.341 -0.1524 -1.2834 -2.7025
11038TIP3    H254530   6.018   6.410  12.248 -4.1405  0.2806  2.2520
11039TIP3   OH254531   0.442   6.504  12.166 -0.1614  0.0312 -0.0959
11039TIP3    H154532   0.383   6.450  12.219  0.1035 -0.5969 -0.4241
11039TIP3    H254533   0.385   6.547  12.102 -0.2121 -1.0016 -0.7691
11040TIP3   OH254534   5.417   2.507  10.375  0.2583 -0.6433  0.8302
11040TIP3    H154535   5.472   2.585  10.375 -0.2162 -0.2977 -0.1779
11040TIP3    H254536   5.447   2.457  10.299  0.1407 -1.1395  1.1070
11041TIP3   OH254537   3.962   3.561  14.963 -0.3031  0.2041  0.4203
11041TIP3    H154538   3.982   3.619  14.890 -0.5776  0.4998  0.5755
11041TIP3    H254539   4.047   3.541  15.002 -0.0808 -0.5961 -0.4513
11042TIP3   OH254540   0.371   4.965  16.226  0.0303  0.0203 -0.1422
11042TIP3    H154541   0.323   4.894  16.184  0.4622 -0.1319 -0.3786
11042TIP3    H254542   0.319   4.986  16.304 -0.3539 -0.2246 -0.3315
11043TIP3   OH254543   3.654   6.062   2.858 -0.4604 -0.3547 -0.2202
11043TIP3    H154544   3.723   6.028   2.915 -0.0718  0.7745  0.0082
11043TIP3    H254545   3.697   6.075   2.774 -0.3091  0.5947 -0.0080
11044TIP3   OH254546   4.265   2.689  16.820 -0.1381  0.4499 -0.0249
11044TIP3    H154547   4.341   2.673  16.764 -0.3592  0.9731 -0.4872
11044TIP3    H254548   4.300   2.686  16.909 -0.0122 -1.6959 -0.0869
11045TIP3   OH254549   0.045   4.227  14.466 -0.6063 -0.0195 -0.0604
11045TIP3    H154550   0.090   4.304  14.500  0.9679 -0.5310 -0.9141
11045TIP3    H254551   0.046   4.165  14.539 -1.1908  0.4667  0.3737
11046TIP3   OH254552   0.578   3.356   2.679 -0.2560  0.2167  0.3481
11046TIP3    H154553   0.530   3.438   2.689 -0.4002  0.3142 -1.0188
11046TIP3    H254554   0.516   3.288   2.706 -1.1094  0.3621 -1.1321
11047TIP3   OH254555   5.107   0.273   3.903  0.9490  0.7971  0.4188
11047TIP3    H154556   5.139   0.248   3.816 -1.5143 -0.2648 -0.2555
11047TIP3    H254557   5.116   0.194   3.955 -1.2362  0.1895 -0.0302
11048TIP3   OH254558   2.520   3.973   1.084 -0.3263  0.0566  0.5273
11048TIP3    H154559   2.476   4.051   1.117 -1.3560 -0.9101  1.5153
11048TIP3    H254560   2.545   3.924   1.162  0.8908 -0.3156 -0.0655
11049TIP3   OH254561   5.665   1.316  10.758 -0.2932 -0.2402  0.0243
11049TIP3    H154562   5.699   1.269  10.834 -0.9245 -0.0143  0.4548
11049TIP3    H254563   5.586   1.360  10.790 -0.3421  0.1899 -0.6587
11050TIP3   OH254564   5.554   6.412  16.045 -0.0698 -0.2432  0.9664
11050TIP3    H154565   5.591   6.499  16.058 -0.1134 -0.2857  1.3956
11050TIP3    H254566   5.623   6.352  16.072  0.9964 -0.4418 -1.8460
11051TIP3   OH254567   2.182   1.523   5.518  0.1306 -0.0757 -0.1328
11051TIP3    H154568   2.157   1.447   5.571 -1.0184 -1.2779 -2.2552
11051TIP3    H254569   2.101   1.573   5.508  0.6899  0.9898  0.5114
11052TIP3   OH254570   2.884   2.881  13.240 -0.0493  0.0099 -0.8248
11052TIP3    H154571   2.845   2.969  13.234 -0.1287  0.3000  2.2038
11052TIP3    H254572   2.894   2.853  13.150 -4.6716  1.0742 -1.9273
11053TIP3   OH254573   0.067   6.486   0.485  0.8005 -0.1050 -0.9512
11053TIP3    H154574   0.114   6.414   0.526  1.2016  1.1690  0.9460
11053TIP3    H254575   0.133   6.553   0.470  0.0022  0.8702 -0.2782
11054TIP3   OH254576   0.989   0.622   0.926  0.0080  0.6783  0.6432
11054TIP3    H154577   0.914   0.679   0.907 -0.9247 -0.7496 -0.1106
11054TIP3    H254578   0.951   0.535   0.939  1.7420 -0.9150 -3.4279
11055TIP3   OH254579   3.995   4.765   3.596 -0.5094  0.1416 -1.0540
11055TIP3    H154580   4.056   4.824   3.641 -0.4792 -1.3304  0.9857
11055TIP3    H254581   3.912   4.778   3.641 -0.3021 -1.9207  0.0416
11056TIP3   OH254582   2.751   1.275   5.659 -0.2735 -0.7035  0.7144
11056TIP3    H154583   2.844   1.299   5.652 -0.4152 -0.4148 -0.3060
11056TIP3    H254584   2.719   1.329   5.731 -0.7052  2.8439 -1.8539
11057TIP3   OH254585   5.888   4.537  10.968 -0.4258 -0.1347 -0.2666
11057TIP3    H154586   5.835   4.463  10.937 -0.1269 -0.4542 -0.0218
11057TIP3    H254587   5.913   4.583  10.888 -1.5132  0.3294 -0.3565
11058TIP3   OH254588   0.619   4.811   0.087  0.1432 -0.7613 -0.1986
11058TIP3    H154589   0.705   4.769   0.084  0.4168 -0.2740  0.5299
11058TIP3    H254590   0.594   4.809   0.179 -0.3552 -0.3634 -0.3171
11059TIP3   OH254591   3.309   3.459  11.043  0.7755 -0.2664 -0.5782
11059TIP3    H154592   3.262   3.376  11.052  1.8398 -0.9030 -0.7368
11059TIP3    H254593   3.310   3.476  10.949 -2.2288  1.6134 -0.3870
11060TIP3   OH254594   4.019   2.192  11.500  0.1475 -0.3555  0.2243
11060TIP3    H154595   3.978   2.117  11.457 -0.7696  1.0197 -1.4241
11060TIP3    H254596   3.955   2.221  11.565 -0.0669 -0.2116 -0.0498
11061TIP3   OH254597   3.754   5.963  14.429  0.0463 -0.5695  0.2771
11061TIP3    H154598   3.664   5.971  14.398 -0.2814  1.4800  1.5916
11061TIP3    H254599   3.802   6.028  14.377  0.3113 -0.0623  1.1519
11062TIP3   OH254600   4.315   4.807   1.651 -0.8523  0.1577  0.1963
11062TIP3    H154601   4.251   4.738   1.669 -0.3040 -0.8167 -1.4425
11062TIP3    H254602   4.387   4.789   1.711 -2.1413  1.4535  2.3001
11063TIP3   OH254603   4.287   6.147   0.519  0.4155 -0.0408  0.6012
11063TIP3    H154604   4.369   6.104   0.494 -0.1767  0.0180 -1.6721
11063TIP3    H254605   4.310   6.240   0.526  0.6250 -0.0668  0.2908
11064TIP3   OH254606   6.508   1.147   3.264  0.3860 -0.4039 -0.2306
11064TIP3    H154607   6.420   1.153   3.228  0.5819  1.0140 -0.5086
11064TIP3    H254608   6.545   1.068   3.223 -0.4439 -0.5155 -0.7890
11065TIP3   OH254609   2.545   2.298   2.454  0.0578 -0.1708 -0.0104
11065TIP3    H154610   2.602   2.332   2.522  2.2438 -1.5365 -1.0472
11065TIP3    H254611   2.557   2.203   2.458 -2.7015 -0.5971  0.1338
11066TIP3   OH254612   0.846   6.378   4.115  0.7848  0.0058 -0.1545
11066TIP3    H154613   0.863   6.358   4.207  1.1547  0.4292 -0.1238
11066TIP3    H254614   0.845   6.474   4.111 -0.9117  0.0138 -0.2949
11067TIP3   OH254615   5.355   0.968  11.117 -0.4631 -0.0067 -0.5265
11067TIP3    H154616   5.372   0.883  11.157 -0.6337  0.4220  0.4893
11067TIP3    H254617   5.382   1.031  11.183 -0.4226  0.7342 -1.2377
11068TIP3   OH254618   2.456   4.317  14.788  0.2732  0.4530 -0.2820
11068TIP3    H154619   2.415   4.371  14.720 -0.2442 -0.1445 -0.4492
11068TIP3    H254620   2.492   4.381  14.850 -0.5248  0.9930 -0.3510
11069TIP3   OH254621   0.353   6.039   4.906  0.3252 -0.3775  0.7727
11069TIP3    H154622   0.415   6.097   4.950  1.8211 -1.7955  0.6275
11069TIP3    H254623   0.354   5.959   4.959 -0.8745 -0.6899  0.3615
11070TIP3   OH254624   1.117   0.631  11.658  0.3620 -0.1105  0.2045
11070TIP3    H154625   1.082   0.600  11.741 -0.6913  1.2930  0.3148
11070TIP3    H254626   1.191   0.687  11.682 -0.5123  1.0471  0.2822
11071TIP3   OH254627   4.064   0.071   0.329 -0.0334  0.1032  0.7028
11071TIP3    H154628   4.043  -0.015   0.293  0.8064  0.2943 -0.3096
11071TIP3    H254629   3.999   0.086   0.397 -0.4280 -1.1620  0.6214
11072TIP3   OH254630   1.073   2.238  14.290 -0.4673  0.0051 -0.0892
11072TIP3    H154631   1.085   2.189  14.209 -2.0435 -0.3289 -0.1499
11072TIP3    H254632   1.006   2.189  14.338 -0.5784  0.9744  0.7751
11073TIP3   OH254633   5.402   5.127  15.473 -0.5300 -0.0401 -0.0318
11073TIP3    H154634   5.394   5.177  15.392  1.2332 -0.5201 -0.5339
11073TIP3    H254635   5.430   5.192  15.538  0.4863 -0.0944 -0.3940
11074TIP3   OH254636   1.779   4.196  16.069 -0.2755 -0.1048 -0.1728
11074TIP3    H154637   1.798   4.254  16.143 -1.1905  1.7055 -1.3125
11074TIP3    H254638   1.724   4.127  16.107  3.0204 -1.9313  1.8101
11075TIP3   OH254639   2.286   4.243  15.023  0.2445 -0.1337 -0.0601
11075TIP3    H154640   2.204   4.284  14.996  0.3588  0.3944  0.3760
11075TIP3    H254641   2.342   4.247  14.946 -0.4014 -1.2226 -0.6164
11076TIP3   OH254642   2.967   0.720  16.694  0.3545 -0.2738 -0.0314
11076TIP3    H154643   2.958   0.625  16.695 -1.4405 -0.1434  0.0135
11076TIP3    H254644   2.897   0.751  16.752  0.4532  1.0915 -0.6088
11077TIP3   OH254645   0.507   4.336  12.102  0.1343  0.2086 -0.3316
11077TIP3    H154646   0.449   4.375  12.168 -1.2173 -0.8273 -0.8686
11077TIP3    H254647   0.490   4.388  12.023 -0.0982 -0.1138 -0.4959
11078TIP3   OH254648   0.966   5.932   4.927  0.0684 -0.2983 -0.2267
11078TIP3    H154649   0.945   5.862   4.988  0.6180  0.0130  0.3297
11078TIP3    H254650   1.030   5.893   4.867  0.7173 -0.1467  0.3578
11079TIP3   OH254651   0.159   3.388   1.905 -0.4093 -0.9367 -0.0851
11079TIP3    H154652   0.179   3.363   1.815 -0.5272  0.1696 -0.4314
11079TIP3    H254653   0.169   3.307   1.956  2.4051 -1.0266 -0.6297
11080TIP3   OH254654   6.462   3.110  16.618 -0.2513 -0.3083 -0.0558
11080TIP3    H154655   6.444   3.016  16.622 -0.4365 -0.2341  0.9954
11080TIP3    H254656   6.557   3.116  16.627  0.0028 -0.4820 -2.0341
11081TIP3   OH254657   0.183   2.828  10.761 -0.1463  0.0708  0.2874
11081TIP3    H154658   0.097   2.817  10.803 -1.3305  0.3127 -1.9284
11081TIP3    H254659   0.194   2.922  10.753 -0.0396  0.0233 -0.1310
11082TIP3   OH254660   5.522   3.223   5.613  0.3825 -0.8540 -0.6155
11082TIP3    H154661   5.566   3.146   5.650 -1.6156 -1.9367 -0.3480
11082TIP3    H254662   5.577   3.249   5.539  1.2070 -2.4459 -0.6060
11083TIP3   OH254663   0.447   3.825  12.758 -0.1556  0.3475  0.0949
11083TIP3    H154664   0.471   3.834  12.666  1.3523  1.3355  0.5481
11083TIP3    H254665   0.522   3.860  12.806 -0.7718 -0.4475  1.7154
11084TIP3   OH254666   0.154   5.616  13.196 -0.1201 -0.0235  0.1486
11084TIP3    H154667   0.233   5.670  13.192 -0.4161  0.3427 -1.4151
11084TIP3    H254668   0.164   5.565  13.276  2.5204 -1.2059 -0.7988
11085TIP3   OH254669   4.128   4.778  15.417  0.5264  0.2140  0.0632
11085TIP3    H154670   4.174   4.804  15.497  1.2662  0.3943 -0.4103
11085TIP3    H254671   4.111   4.860  15.371 -0.5831  0.1865  0.3771
11086TIP3   OH254672   4.234   1.404   0.137  0.3161 -0.7879 -0.0460
11086TIP3    H154673   4.286   1.403   0.217  0.5786 -1.2184 -0.2160
11086TIP3    H254674   4.296   1.424   0.067 -0.0160  0.1593 -0.0772
11087TIP3   OH254675   2.443   0.655   2.185 -0.0333  0.3361 -0.3100
11087TIP3    H154676   2.403   0.694   2.108 -1.2146  0.1462  0.1934
11087TIP3    H254677   2.414   0.709   2.258  1.3275  0.7066 -0.0033
11088TIP3   OH254678   4.885   5.535   1.327  0.0904 -0.7907 -0.0770
11088TIP3    H154679   4.950   5.602   1.345 -0.6969  0.3208 -1.2693
11088TIP3    H254680   4.868   5.541   1.233  0.0272 -2.6969 -0.2337
11089TIP3   OH254681   3.352   3.075   4.990  0.0230  0.0460  0.0309
11089TIP3    H154682   3.279   3.048   4.935 -1.0518  1.3660  0.7674
11089TIP3    H254683   3.313   3.092   5.076  1.2498  0.4444  0.5341
11090TIP3   OH254684   5.127   3.495  12.402  0.3783  0.4618 -0.3395
11090TIP3    H154685   5.185   3.561  12.442  0.0232  0.5399  0.0554
11090TIP3    H254686   5.187   3.426  12.373  0.5424 -0.6245  2.2556
11091TIP3   OH254687   0.251   6.590   3.859  0.1253 -0.6958 -0.3434
11091TIP3    H154688   0.185   6.628   3.800  0.1769  0.1888  0.1499
11091TIP3    H254689   0.332   6.593   3.809  0.3505  0.8650  0.0442
11092TIP3   OH254690   0.294   1.527   2.542 -0.1776  0.4649 -1.1225
11092TIP3    H154691   0.261   1.532   2.452 -0.9021 -0.9217 -0.9636
11092TIP3    H254692   0.215   1.533   2.597  0.1980  0.6828 -0.6011
11093TIP3   OH254693   5.504   3.344   3.768 -0.8614 -0.0679  0.0948
11093TIP3    H154694   5.530   3.355   3.677 -1.8643  0.6905 -0.1203
11093TIP3    H254695   5.474   3.430   3.795 -0.3405 -0.2215  1.2345
11094TIP3   OH254696   4.841   2.333   2.465 -0.0042 -0.1474 -0.2601
11094TIP3    H154697   4.777   2.396   2.432  0.2936  0.0396 -0.4833
11094TIP3    H254698   4.789   2.256   2.487 -0.4120  0.2692  0.2772
11095TIP3   OH254699   4.391   0.837  11.198 -0.3626 -0.3362  0.1220
11095TIP3    H154700   4.296   0.843  11.212 -0.2393 -1.3299  1.6349
11095TIP3    H254701   4.408   0.743  11.196  0.4879 -0.1702 -1.0280
11096TIP3   OH254702   2.339   5.947  15.523  0.0856 -0.5582  0.0875
11096TIP3    H154703   2.334   5.864  15.571  0.5045 -0.3529  0.4987
11096TIP3    H254704   2.250   5.983  15.530  0.2824 -0.2338  1.2803
11097TIP3   OH254705   1.591   5.714  14.797  0.0027  0.0330  0.1850
11097TIP3    H154706   1.658   5.646  14.807 -1.2697 -1.4887 -1.0334
11097TIP3    H254707   1.526   5.675  14.738 -0.2319  2.7834 -1.5400
11098TIP3   OH254708   0.473   2.360   5.770 -0.2132  0.4230 -0.0265
11098TIP3    H154709   0.538   2.425   5.743 -1.2129  1.0940 -0.8943
11098TIP3    H254710   0.393   2.410   5.783 -0.7486 -0.4963  0.2887
11099TIP3   OH254711   6.306   3.794   6.377  0.0521 -0.3702 -0.3100
11099TIP3    H154712   6.226   3.781   6.428 -0.5164 -0.1264 -1.1086
11099TIP3    H254713   6.350   3.709   6.378 -2.3356 -1.8522 -3.3391
11100TIP3   OH254714   3.766   4.194  15.149 -0.0996  0.3032  0.6620
11100TIP3    H154715   3.839   4.133  15.139  1.0374  1.7206 -0.0875
11100TIP3    H254716   3.780   4.234  15.235 -1.5588 -1.3427  1.7147
11101TIP3   OH254717   0.290   4.819  11.746  0.0978 -0.4131 -0.1423
11101TIP3    H154718   0.270   4.846  11.657  1.2947  0.4042 -0.1853
11101TIP3    H254719   0.204   4.815  11.789 -0.3150  3.0925 -0.2780
11102TIP3   OH254720   3.060   4.999   1.277  0.2437  0.1357  0.3451
11102TIP3    H154721   3.092   4.950   1.201 -0.1408 -1.1221  0.9548
11102TIP3    H254722   3.133   5.054   1.304  0.8622 -0.4567 -0.0937
11103TIP3   OH254723   4.578   3.871  11.002 -0.1583 -0.1206 -0.4188
11103TIP3    H154724   4.494   3.880  10.957 -0.5564 -0.4786  0.2403
11103TIP3    H254725   4.614   3.788  10.970 -0.5825 -0.5274  0.1415
11104TIP3   OH254726   1.907   0.937  14.546  0.0577 -0.1711 -0.1162
11104TIP3    H154727   1.903   1.001  14.475 -0.0786 -1.0414 -0.9159
11104TIP3    H254728   1.831   0.957  14.601 -0.2555  0.0495 -0.6215
11105TIP3   OH254729   1.410   6.437   5.535 -0.0844  0.2203 -0.0089
11105TIP3    H154730   1.424   6.349   5.501  2.1865  1.2971 -2.1613
11105TIP3    H254731   1.376   6.486   5.460  0.8394  1.6945  0.5006
11106TIP3   OH254732   2.980   5.428   1.598  0.5688  0.2850  0.1278
11106TIP3    H154733   2.993   5.481   1.677 -0.0306  0.9102 -0.1779
11106TIP3    H254734   2.972   5.338   1.631  2.0373  0.3070  0.6133
11107TIP3   OH254735   4.394   6.556  14.765  0.4961 -0.2202  0.3996
11107TIP3    H154736   4.484   6.531  14.750  0.8174 -0.7622  2.7349
11107TIP3    H254737   4.343   6.476  14.753  0.3984 -0.0667 -0.2501
11108TIP3   OH254738   2.169   2.577  14.692 -0.0344  0.2603 -0.6292
11108TIP3    H154739   2.205   2.489  14.685 -0.2118  0.1585 -0.2510
11108TIP3    H254740   2.106   2.573  14.763  0.5253  0.8749 -0.0749
11109TIP3   OH254741   5.242   5.245  10.901  0.1385 -0.1473 -0.2354
11109TIP3    H154742   5.204   5.226  10.816 -1.9566  2.2188  0.0634
11109TIP3    H254743   5.188   5.197  10.964 -2.0528  2.4984  0.1093
11110TIP3   OH254744   0.055   2.836  11.684 -0.3232  0.3686  0.1043
11110TIP3    H154745  -0.019   2.776  11.680  0.1585 -0.2854  0.7354
11110TIP3    H254746   0.061   2.861  11.776  1.5579 -1.3101  0.5144
11111TIP3   OH254747   1.314   2.627  15.468  0.4095  0.1908 -0.3521
11111TIP3    H154748   1.248   2.582  15.520  0.4625 -1.2305 -1.4429
11111TIP3    H254749   1.289   2.719  15.473 -0.3929 -0.0670  1.0050
11112TIP3   OH254750   6.366   3.300  11.850  0.5383 -0.3167 -0.2085
11112TIP3    H154751   6.441   3.338  11.804 -0.1728  0.2705 -0.9028
11112TIP3    H254752   6.402   3.223  11.895  1.1946 -1.0806 -1.9664
11113TIP3   OH254753   5.129   6.189  12.656  0.4887 -0.4242  0.0287
11113TIP3    H154754   5.081   6.209  12.736 -0.3509  1.2639 -0.8120
11113TIP3    H254755   5.161   6.275  12.626  3.4387 -1.3758  0.1266
11114TIP3   OH254756   6.722   3.162   4.194  0.2608  0.0935  0.5758
11114TIP3    H154757   6.763   3.100   4.254 -1.8174 -0.3447  1.6624
11114TIP3    H254758   6.783   3.169   4.120  2.2846 -0.3412  2.1342
11115TIP3   OH254759   1.652   0.860  12.486 -0.1034  0.1392 -0.3442
11115TIP3    H154760   1.629   0.843  12.394  0.6436  0.6561 -0.6388
11115TIP3    H254761   1.704   0.785  12.512 -2.2516 -1.1703  0.4086
11116TIP3   OH254762   3.444   4.178  13.251  0.1993 -0.2875  0.1496
11116TIP3    H154763   3.484   4.122  13.185  0.1940 -0.1471  0.0258
11116TIP3    H254764   3.352   4.184  13.224  0.3165  0.2355 -0.1581
11117TIP3   OH254765   0.553   6.510   0.586  0.1001 -0.1470  0.6638
11117TIP3    H154766   0.593   6.478   0.666 -0.8832 -0.8237  0.9023
11117TIP3    H254767   0.623   6.555   0.540  0.8162 -0.2545  1.6332
11118TIP3   OH254768   0.503   4.248   6.341 -0.0388 -0.1078 -0.2736
11118TIP3    H154769   0.465   4.171   6.297 -0.1732  0.4541 -1.1743
11118TIP3    H254770   0.441   4.268   6.411 -0.0423 -0.7707 -0.0811
11119TIP3   OH254771   2.471   0.185  12.191 -0.2259  0.3450  0.6282
11119TIP3    H154772   2.388   0.149  12.159 -0.4789  1.5120 -0.1196
11119TIP3    H254773   2.448   0.271  12.225  0.7844  1.0490 -0.3759
11120TIP3   OH254774   3.021   1.903   1.282 -0.7456 -0.0651  0.2952
11120TIP3    H154775   3.095   1.842   1.283  0.0496  0.8444 -0.2044
11120TIP3    H254776   2.944   1.848   1.292 -0.4020 -1.6520 -3.9145
11121TIP3   OH254777   4.293   6.143  11.680 -0.0156  0.1250 -0.1816
11121TIP3    H154778   4.204   6.179  11.681  0.1114  0.4401  0.4158
11121TIP3    H254779   4.312   6.124  11.772  1.0190  1.2883 -0.1195
11122TIP3   OH254780   5.946   3.891   5.775  0.7658 -0.5631 -0.0284
11122TIP3    H154781   5.945   3.946   5.697 -0.1933 -0.8424 -0.2262
11122TIP3    H254782   5.934   3.802   5.743 -0.1314 -0.6292  0.4654
11123TIP3   OH254783   2.746   6.807  14.426 -0.3890 -0.4645 -0.4131
11123TIP3    H154784   2.821   6.780  14.371 -0.6206  0.2415 -1.0993
11123TIP3    H254785   2.720   6.727  14.472  0.3988 -0.8627 -0.6394
11124TIP3   OH254786   4.048   0.160  11.155  0.1448  0.4808  0.2141
11124TIP3    H154787   4.114   0.191  11.094  1.2454 -1.0742  0.5469
11124TIP3    H254788   4.078   0.192  11.240 -1.0417  2.0939  0.0767
11125TIP3   OH254789   6.153   4.563   5.956 -0.0658 -0.2301 -0.1894
11125TIP3    H154790   6.150   4.642   6.009  1.4973 -0.8930  0.9728
11125TIP3    H254791   6.179   4.593   5.869  0.0427  0.5867  0.1157
11126TIP3   OH254792   1.067   5.138   0.921 -0.1051 -0.1312 -0.3350
11126TIP3    H154793   1.153   5.151   0.881 -0.7456 -0.0055 -1.7259
11126TIP3    H254794   1.085   5.090   1.002  1.7522  3.8675  1.8902
11127TIP3   OH254795   1.593   0.168   2.738  0.2751  0.7427 -0.0264
11127TIP3    H154796   1.552   0.133   2.659 -0.6864  0.3264  0.6396
11127TIP3    H254797   1.567   0.260   2.739  1.9424  1.2890 -1.2209
11128TIP3   OH254798   0.469   0.255  15.781 -0.2314 -0.9427  0.7040
11128TIP3    H154799   0.487   0.224  15.870 -0.0620 -0.1213  0.9676
11128TIP3    H254800   0.399   0.321  15.792 -2.0745 -2.6649 -0.0769
11129TIP3   OH254801   5.866   1.864  13.866  0.0264  0.5237 -0.0104
11129TIP3    H154802   5.918   1.892  13.941  0.4335  2.6730 -1.0291
11129TIP3    H254803   5.919   1.888  13.789 -1.5032  0.7898 -1.0305
11130TIP3   OH254804   6.804   1.884  12.621  0.0166 -0.1979 -0.4939
11130TIP3    H154805   6.708   1.884  12.613  0.0673  0.6512 -1.2693
11130TIP3    H254806   6.833   1.816  12.561  0.0260  1.5672 -2.6242
11131TIP3   OH254807   3.474   1.006  16.725 -0.0908  0.3878 -0.4777
11131TIP3    H154808   3.429   0.926  16.751 -1.9077  1.7116  0.7029
11131TIP3    H254809   3.518   1.036  16.804 -0.3343  1.1132 -0.6081
11132TIP3   OH254810   5.477   6.089   2.119 -0.2431  0.4292  0.0256
11132TIP3    H154811   5.562   6.062   2.085 -0.9881 -3.2857  0.6928
11132TIP3    H254812   5.428   6.116   2.041  0.8394  0.4341 -0.6730
11133TIP3   OH254813   6.070   0.521   4.517  0.2300  0.0535  0.3191
11133TIP3    H154814   6.020   0.484   4.590  1.0772  0.8981  1.3728
11133TIP3    H254815   6.004   0.548   4.453 -0.5551 -0.3632  0.9346
11134TIP3   OH254816   2.890   4.843   5.079 -0.0296 -0.2688 -0.3488
11134TIP3    H154817   2.960   4.893   5.122 -0.1615 -1.3337  1.1826
11134TIP3    H254818   2.834   4.910   5.039  0.0743  0.8044  1.2080
11135TIP3   OH254819   2.053   2.606  16.904 -0.3944  0.3095 -0.2457
11135TIP3    H154820   2.118   2.617  16.834  0.1585 -0.9200  0.0454
11135TIP3    H254821   1.998   2.684  16.898 -0.5633  0.1039 -2.2694
11136TIP3   OH254822   6.386   0.755  11.378  0.1961 -0.2055 -0.8912
11136TIP3    H154823   6.342   0.840  11.388 -0.5478 -0.8433  2.3941
11136TIP3    H254824   6.479   0.775  11.392 -0.2055 -0.1205  2.5837
11137TIP3   OH254825   4.001   6.349   1.304 -0.4634  0.0620  0.2608
11137TIP3    H154826   4.067   6.315   1.366 -1.4224 -0.9890  0.7367
11137TIP3    H254827   4.026   6.311   1.220  0.0597  0.3966  0.2607
11138TIP3   OH254828   0.393   5.646  16.324 -0.1203  0.1821 -0.5440
11138TIP3    H154829   0.298   5.631  16.330  0.0139 -0.4662  0.2825
11138TIP3    H254830   0.431   5.560  16.342  0.6670  1.0348  2.3633
11139TIP3   OH254831   4.313   4.908  16.619 -0.0896  0.2612  0.0335
11139TIP3    H154832   4.239   4.861  16.581 -0.7253 -2.1357  3.6518
11139TIP3    H254833   4.319   4.873  16.708  2.5661  3.7130  1.4145
11140TIP3   OH254834   5.963   0.583   0.540 -0.0761  0.1297 -0.5635
11140TIP3    H154835   5.898   0.640   0.498  0.0468 -0.0789 -1.0466
11140TIP3    H254836   5.992   0.525   0.470 -1.1487 -1.4193  0.2184
11141TIP3   OH254837   1.507   0.155  10.499 -0.1041  0.1791  0.5232
11141TIP3    H154838   1.440   0.186  10.560  0.0058  3.0618 -0.6794
11141TIP3    H254839   1.586   0.147  10.553 -0.7636 -0.6575  1.4047
11142TIP3   OH254840   5.192   5.538  11.780  0.4667 -0.0776 -0.1058
11142TIP3    H154841   5.185   5.462  11.837 -1.1248  1.0959  1.4028
11142TIP3    H254842   5.126   5.523  11.713  1.0952 -0.6299 -0.6133
11143TIP3   OH254843   5.547   4.259  14.117 -0.1997 -0.5330 -0.2009
11143TIP3    H154844   5.621   4.205  14.088 -0.6342 -0.6072 -1.2228
11143TIP3    H254845   5.545   4.248  14.212  1.3263 -0.2327 -0.1076
11144TIP3   OH254846   5.600   2.948   4.086 -0.1285  0.2521  0.0197
11144TIP3    H154847   5.587   2.906   4.171  0.3005  2.2684  1.1295
11144TIP3    H254848   5.526   3.009   4.078  0.2316  0.5993 -0.7226
11145TIP3   OH254849   2.233   4.738   0.118 -0.4732  0.1647  0.3475
11145TIP3    H154850   2.188   4.750   0.035 -0.0584  1.2840  0.2664
11145TIP3    H254851   2.180   4.787   0.181 -0.9274 -0.8860  0.8024
11146TIP3   OH254852   5.238   5.898   1.338 -0.4627  0.1904 -0.5366
11146TIP3    H154853   5.303   5.882   1.406 -0.4877  2.5439  0.1175
11146TIP3    H254854   5.275   5.857   1.260  0.8684 -0.2259  0.2772
11147TIP3   OH254855   1.466   0.401  15.674 -0.4107  0.0508 -0.1323
11147TIP3    H154856   1.504   0.449  15.601 -0.2461  1.8292  1.0680
11147TIP3    H254857   1.541   0.364  15.720 -0.4651 -0.4310 -0.4259
11148TIP3   OH254858   0.458   4.081  13.176  0.0266  0.4085  0.3172
11148TIP3    H154859   0.499   3.995  13.186  0.4211  0.5972  0.3564
11148TIP3    H254860   0.531   4.143  13.184 -0.1503  0.7180 -0.3820
11149TIP3   OH254861   4.396   0.977  15.513  0.1805 -0.3319 -0.1708
11149TIP3    H154862   4.364   0.894  15.477 -0.7455  0.1817 -0.5953
11149TIP3    H254863   4.324   1.038  15.497  0.0807  0.1334  1.8074
11150TIP3   OH254864   4.650   0.190  14.676  1.1682  0.1913  0.2712
11150TIP3    H154865   4.703   0.136  14.733  2.9089  1.0860 -0.4179
11150TIP3    H254866   4.703   0.268  14.661 -1.0728  1.9734  0.9450
11151TIP3   OH254867   5.918   5.509   3.729 -0.1163  0.1578  0.1503
11151TIP3    H154868   5.936   5.439   3.791 -1.0939 -0.5073 -0.2800
11151TIP3    H254869   6.004   5.546   3.708  0.2435  0.2657  1.7127
11152TIP3   OH254870   1.715   5.378  10.867 -0.0925 -0.3741  0.4874
11152TIP3    H154871   1.640   5.401  10.813 -0.3348 -0.7121  0.6764
11152TIP3    H254872   1.726   5.453  10.926  0.3640  0.1327 -0.2181
11153TIP3   OH254873   5.202   0.763  14.493  0.4336  0.1012 -0.7628
11153TIP3    H154874   5.129   0.702  14.504 -0.4582  1.2780  0.2404
11153TIP3    H254875   5.260   0.745  14.566 -0.1306  0.8134 -0.1180
11154TIP3   OH254876   6.225   1.005   5.851  0.5495 -0.4422  0.0406
11154TIP3    H154877   6.242   1.052   5.769  0.8368  0.1645  0.4414
11154TIP3    H254878   6.197   0.918   5.823  1.8142 -0.6488 -0.6951
11155TIP3   OH254879   0.513   3.219  14.677 -0.1636 -0.1288 -0.0390
11155TIP3    H154880   0.512   3.130  14.711  0.6577  0.3240  1.2673
11155TIP3    H254881   0.596   3.226  14.630  0.5965  0.4280  1.3263
11156TIP3   OH254882   2.286   6.415  13.981  0.0154  0.2615  0.1244
11156TIP3    H154883   2.344   6.462  13.922  1.6015 -0.8372  0.7377
11156TIP3    H254884   2.294   6.461  14.065  0.6310 -0.3467  0.4098
11157TIP3   OH254885   4.447   3.823   5.680 -0.8030  0.0209 -0.7487
11157TIP3    H154886   4.441   3.894   5.616  0.1931  1.6166  0.8058
11157TIP3    H254887   4.429   3.866   5.764  0.4088 -1.4333  0.3079
11158TIP3   OH254888   2.687   6.052  14.928 -0.1933  0.3877 -0.2227
11158TIP3    H154889   2.723   6.140  14.943  1.0197 -0.1805  0.3346
11158TIP3    H254890   2.698   6.007  15.011  0.0901 -0.5986 -0.7726
11159TIP3   OH254891   6.544   5.313  12.687 -0.0168 -0.1889 -0.4728
11159TIP3    H154892   6.519   5.284  12.775  0.1132  0.3813 -0.2462
11159TIP3    H254893   6.469   5.361  12.655 -0.4157 -1.1590 -1.0401
11160TIP3   OH254894   3.438   3.097   0.290  0.1178 -0.9462  0.1385
11160TIP3    H154895   3.488   3.170   0.255 -0.5482 -0.2018  0.7150
11160TIP3    H254896   3.368   3.137   0.341 -0.1556 -1.9859  0.6173
11161TIP3   OH254897   3.353   5.050   0.507  0.7013  0.3894  0.0077
11161TIP3    H154898   3.312   5.083   0.427  3.0614 -0.7421 -1.7997
11161TIP3    H254899   3.292   4.984   0.540 -0.5581  1.2573 -0.5054
11162TIP3   OH254900   2.357   4.368  12.091  0.5137 -0.3132 -0.1695
11162TIP3    H154901   2.399   4.454  12.082  0.9602 -0.4277  0.8008
11162TIP3    H254902   2.404   4.325  12.162 -0.0051 -1.1918 -0.3480
11163TIP3   OH254903   6.282   2.561  10.613 -0.6460 -0.1270  0.6172
11163TIP3    H154904   6.336   2.546  10.691 -1.3782  0.6528  1.3020
11163TIP3    H254905   6.212   2.497  10.619 -0.6026 -0.1873  0.4941
11164TIP3   OH254906   0.310   2.841   5.237 -0.2024 -0.5035  0.0960
11164TIP3    H154907   0.255   2.907   5.280 -0.6443 -1.6839  1.4117
11164TIP3    H254908   0.368   2.809   5.306 -1.4248 -2.9702  0.0846
11165TIP3   OH254909   6.109   5.332   5.375 -0.6108 -0.6593 -0.7062
11165TIP3    H154910   6.095   5.304   5.465  0.0022  2.1235  0.3461
11165TIP3    H254911   6.025   5.370   5.348 -0.4250 -0.3728 -0.8826
11166TIP3   OH254912   4.572   5.797   5.601 -0.0530 -0.1090 -0.7617
11166TIP3    H154913   4.595   5.706   5.586 -1.1326 -0.2439 -1.7110
11166TIP3    H254914   4.477   5.799   5.600 -0.1002  0.8007  0.7492
11167TIP3   OH254915   5.046   1.766   2.635  0.1911  0.2261  0.1594
11167TIP3    H154916   5.048   1.693   2.697 -2.4170 -0.7405 -0.7699
11167TIP3    H254917   4.988   1.736   2.565  0.3062  2.6063 -1.0319
11168TIP3   OH254918   4.640   5.917   5.992  0.3058 -0.0972 -0.3596
11168TIP3    H154919   4.729   5.948   5.980 -0.1783  1.3044 -0.5615
11168TIP3    H254920   4.640   5.875   6.078  0.5286  2.4862  0.9963
11169TIP3   OH254921   3.411   3.240  14.845 -0.3356 -0.3825  0.0273
11169TIP3    H154922   3.333   3.190  14.870 -0.7083 -1.0723 -2.2700
11169TIP3    H254923   3.406   3.245  14.749  2.0893  0.1657 -0.1240
11170TIP3   OH254924   3.909   6.148  16.446 -0.2347 -0.1420 -0.2035
11170TIP3    H154925   3.890   6.224  16.501  0.9478 -0.5196  0.7852
11170TIP3    H254926   3.857   6.162  16.367 -1.6665  0.6278  0.8245
11171TIP3   OH254927   4.145   1.853  14.039  0.1142  0.0129  0.1489
11171TIP3    H154928   4.115   1.893  14.120  1.0328  0.7365  0.1386
11171TIP3    H254929   4.067   1.810  14.004  0.3520 -3.1098  2.9769
11172TIP3   OH254930   3.541   2.450   2.286 -0.8941  0.2121 -0.1263
11172TIP3    H154931   3.503   2.470   2.201 -1.1411  2.8340  0.5257
11172TIP3    H254932   3.568   2.535   2.321  1.7673 -1.0720  1.2487
11173TIP3   OH254933   6.329   0.975  14.130 -0.2244 -0.0678  0.1911
11173TIP3    H154934   6.415   1.005  14.101 -0.2669  0.4860  0.6295
11173TIP3    H254935   6.333   0.880  14.121  0.4661 -0.0563  0.2910
11174TIP3   OH254936   0.910   1.852  11.380  0.0789  0.0654  0.1465
11174TIP3    H154937   0.870   1.823  11.461  0.5131  0.6262  0.5640
11174TIP3    H254938   0.989   1.798  11.371  1.2974  1.5780  1.3115
11175TIP3   OH254939   4.905   6.079   0.244  1.1282  0.0566  0.6403
11175TIP3    H154940   4.848   6.117   0.177  1.0624  0.2875  0.8227
11175TIP3    H254941   4.905   5.986   0.226 -0.1334 -0.0893  1.2295
11176TIP3   OH254942   6.269   4.858  13.930 -0.3603 -0.1771 -0.1542
11176TIP3    H154943   6.238   4.850  13.840 -1.8477 -2.2331  0.4772
11176TIP3    H254944   6.211   4.802  13.981  0.2504  1.1563  2.1617
11177TIP3   OH254945   1.413   6.181   0.476  0.3568 -0.2753 -0.2814
11177TIP3    H154946   1.461   6.201   0.396  0.3985 -0.6381 -0.3501
11177TIP3    H254947   1.337   6.130   0.446 -0.8751  1.4981 -0.3444
11178TIP3   OH254948   4.859   2.383   4.130 -0.5864 -0.7229 -0.2681
11178TIP3    H154949   4.912   2.456   4.164  0.6293 -1.2492 -0.9880
11178TIP3    H254950   4.907   2.304   4.154 -0.2599 -1.1607 -2.2067
11179TIP3   OH254951   2.155   1.526   0.852 -0.5425  0.1067  0.2833
11179TIP3    H154952   2.177   1.435   0.871 -0.9824 -0.1842 -0.5485
11179TIP3    H254953   2.060   1.530   0.863 -0.4528  0.6235  0.9242
11180TIP3   OH254954   5.969   3.161  11.520  0.2770  0.3565 -0.9128
11180TIP3    H154955   6.030   3.222  11.560  0.2857 -0.3425  0.1795
11180TIP3    H254956   5.925   3.212  11.452  0.8125  1.3574 -0.5270
11181TIP3   OH254957   3.694   5.524   6.371 -0.6027  0.5447 -0.2121
11181TIP3    H154958   3.740   5.443   6.349 -2.9298 -0.9340 -0.0722
11181TIP3    H254959   3.736   5.556   6.450 -0.2299 -1.0994  0.2887
11182TIP3   OH254960   2.084   3.874  14.874  0.2451  0.2599 -0.1070
11182TIP3    H154961   2.123   3.839  14.794  1.8658  1.5862  0.0520
11182TIP3    H254962   2.071   3.798  14.930 -1.0456 -0.7210 -1.6270
11183TIP3   OH254963   1.682   2.833   5.215  0.5329 -0.0745  0.1103
11183TIP3    H154964   1.761   2.800   5.257  0.3588  0.4277  0.8541
11183TIP3    H254965   1.713   2.890   5.145  0.8537  1.1100  1.1829
11184TIP3   OH254966   4.204   0.004  10.853 -0.1261 -0.3469 -0.7291
11184TIP3    H154967   4.225  -0.089  10.864  1.3613 -0.0148 -0.5599
11184TIP3    H254968   4.287   0.049  10.866 -0.6959  0.9712 -1.4556
11185TIP3   OH254969   6.012   0.124   4.321 -0.0453  0.0846  0.3273
11185TIP3    H154970   6.097   0.127   4.364  0.0356  0.1603  0.1643
11185TIP3    H254971   6.024   0.177   4.242 -0.2652  0.1593  0.3448
11186TIP3   OH254972   0.552   5.292  11.708  0.3051  0.1397  0.1000
11186TIP3    H154973   0.534   5.300  11.614 -0.4072 -1.0145  0.1065
11186TIP3    H254974   0.526   5.202  11.729  1.5200  0.0133  1.1805
11187TIP3   OH254975   1.935   4.456   5.339  0.4601  0.4534 -0.6056
11187TIP3    H154976   1.845   4.459   5.370  0.0556  1.6728 -1.8460
11187TIP3    H254977   1.938   4.380   5.280 -0.0843  1.0969 -1.4846
11188TIP3   OH254978   4.786   6.381  14.242 -1.3541  0.1889 -0.0004
11188TIP3    H154979   4.799   6.462  14.291  0.5242 -0.1455  0.1051
11188TIP3    H254980   4.718   6.335  14.291 -0.2995  0.3545  1.6900
11189TIP3   OH254981   0.139   3.574   2.126  0.0667 -0.7170 -0.6208
11189TIP3    H154982   0.136   3.530   2.041  1.1229  1.0894 -1.6510
11189TIP3    H254983   0.231   3.567   2.154  0.5198  1.6137 -1.3086
11190TIP3   OH254984   3.469   5.614  13.442  0.0767  0.2017 -0.3157
11190TIP3    H154985   3.505   5.575  13.522 -1.3458 -1.0964 -0.2512
11190TIP3    H254986   3.402   5.675  13.473 -0.1895  0.0045 -0.4914
11191TIP3   OH254987   3.802   6.678  13.946 -0.3221 -0.1847  0.2549
11191TIP3    H154988   3.775   6.656  13.857  0.1610  1.7917 -0.4209
11191TIP3    H254989   3.863   6.608  13.971  1.1816  0.3077 -1.8013
11192TIP3   OH254990   3.774   4.485  10.895  0.0465  0.4069 -0.1420
11192TIP3    H154991   3.754   4.414  10.835 -0.8648  0.5532 -0.0257
11192TIP3    H254992   3.755   4.565  10.846 -0.6301  0.5272  0.2922
11193TIP3   OH254993   4.505   6.401   5.085  0.0639 -0.5800  0.3644
11193TIP3    H154994   4.588   6.448   5.084 -0.6548  0.7415  0.6284
11193TIP3    H254995   4.490   6.378   4.993  1.2968 -1.9180  0.4750
11194TIP3   OH254996   1.990   0.497   6.442 -0.5385  0.0369 -0.2198
11194TIP3    H154997   2.054   0.486   6.372 -1.5103 -0.9567 -0.9931
11194TIP3    H254998   2.038   0.541   6.512  0.9862 -0.7056 -0.7521
11195TIP3   OH254999   1.330   0.121  11.205 -0.0838  0.4125 -0.3402
11195TIP3    H155000   1.344   0.205  11.161  2.4992  0.1734 -0.1013
11195TIP3    H255001   1.323   0.058  11.133 -0.0169  0.5542 -0.4711
11196TIP3   OH255002   5.115   2.778  13.071 -0.1682 -0.0848  0.2940
11196TIP3    H155003   5.148   2.688  13.068 -1.4748 -0.5695 -0.6227
11196TIP3    H255004   5.038   2.777  13.014  0.1535  1.7861 -0.2336
11197TIP3   OH255005   1.876   0.642  13.938  0.2568  0.1498 -0.3709
11197TIP3    H155006   1.804   0.633  13.876 -0.3025 -2.0659  0.4958
11197TIP3    H255007   1.842   0.700  14.006 -1.5196 -2.2626  0.9634
11198TIP3   OH255008   1.562   5.837  15.404 -0.0593  0.4843 -0.1358
11198TIP3    H155009   1.585   5.829  15.497 -1.1420  0.7266  0.1675
11198TIP3    H255010   1.527   5.751  15.380  2.2444 -0.3066 -0.9418
11199TIP3   OH255011   2.603   5.403   3.567 -0.3211 -0.0392 -0.4071
11199TIP3    H155012   2.660   5.459   3.620  1.0007 -0.5154 -1.2701
11199TIP3    H255013   2.606   5.441   3.479  0.6721 -1.4666 -1.0249
11200TIP3   OH255014   1.012   0.878  15.641  0.6221 -0.2762 -0.0721
11200TIP3    H155015   1.108   0.880  15.641  0.7085 -1.9335  1.5557
11200TIP3    H255016   0.990   0.791  15.609 -0.3468  0.0662 -0.3709
11201TIP3   OH255017   5.484   3.214   3.344 -0.0293  0.2468 -0.0872
11201TIP3    H155018   5.495   3.296   3.393  1.2133 -0.1642  0.3580
11201TIP3    H255019   5.439   3.241   3.264  0.5729  1.4270 -0.0647
11202TIP3   OH255020   5.258   3.078  17.060  0.2146 -0.5974 -0.2985
11202TIP3    H155021   5.318   3.011  17.093  1.5148 -0.1253 -1.5581
11202TIP3    H255022   5.295   3.102  16.975 -2.4419 -1.1216 -1.6932
11203TIP3   OH255023   4.235   6.763  14.961 -0.1839 -0.0258 -0.0695
11203TIP3    H155024   4.175   6.742  15.032 -0.0528  3.7583  1.4102
11203TIP3    H255025   4.317   6.720  14.985 -0.4810  0.2438  1.5377
11204TIP3   OH255026   0.380   1.395   4.808 -0.4033  0.3126  0.7014
11204TIP3    H155027   0.313   1.448   4.852 -0.7337  0.0109  0.5582
11204TIP3    H255028   0.379   1.312   4.854 -1.7072 -0.5062 -0.7354
11205TIP3   OH255029   4.484   2.240  14.294  0.2652  0.9308 -0.2190
11205TIP3    H155030   4.501   2.168  14.234  2.0543  0.1385  1.1519
11205TIP3    H255031   4.391   2.234  14.314  0.2441 -0.5849 -0.6809
11206TIP3   OH255032   0.547   3.594  12.907  0.4423  0.5009  0.0864
11206TIP3    H155033   0.524   3.663  12.845 -0.9648 -0.6193 -0.7032
11206TIP3    H255034   0.603   3.534  12.857 -0.3473 -0.1852  0.0121
11207TIP3   OH255035   5.303   5.127   2.153  0.0722 -0.3965  0.3727
11207TIP3    H155036   5.315   5.202   2.211 -0.9832 -1.2566  1.7471
11207TIP3    H255037   5.392   5.095   2.138  0.6397  1.6262 -0.9876
11208TIP3   OH255038   0.721   6.805  11.992 -0.0510  0.7482 -0.5506
11208TIP3    H155039   0.672   6.750  11.931 -0.1268 -1.3220  1.2373
11208TIP3    H255040   0.797   6.752  12.016  0.3946  1.8301  0.5524
11209TIP3   OH255041   0.693   2.941   1.754  0.1189  0.8221  0.0728
11209TIP3    H155042   0.725   3.005   1.690 -2.9670  0.6548 -1.8951
11209TIP3    H255043   0.732   2.858   1.726 -0.5964  0.8858 -1.2253
11210TIP3   OH255044   5.225   5.993  15.718  0.6713  0.2759 -0.2444
11210TIP3    H155045   5.250   6.085  15.727  1.1810  0.0373  0.9533
11210TIP3    H255046   5.307   5.947  15.704  0.6144 -0.1931  0.8930
11211TIP3   OH255047   0.357   6.787  12.329  0.1501 -0.4042  0.0665
11211TIP3    H155048   0.268   6.753  12.327 -0.0288  0.0158  0.8789
11211TIP3    H255049   0.385   6.785  12.237 -0.5674 -0.8592 -0.1464
11212TIP3   OH255050   3.149   0.935   5.429 -0.2235 -0.4996  0.1853
11212TIP3    H155051   3.092   0.878   5.482  0.2302 -0.1302  1.0950
11212TIP3    H255052   3.094   1.011   5.409 -0.2465 -0.4129  0.5590
11213TIP3   OH255053   6.260   5.370  12.707  0.5715  0.2055  0.0422
11213TIP3    H155054   6.192   5.437  12.709 -0.4301 -0.6865 -1.7584
11213TIP3    H255055   6.249   5.327  12.622  0.6868 -2.7055  1.3754
11214TIP3   OH255056   2.332   1.454   4.025 -0.5017 -0.1647 -0.5389
11214TIP3    H155057   2.270   1.396   4.070 -0.0674 -0.2708 -0.0626
11214TIP3    H255058   2.308   1.542   4.055 -0.6070 -0.1773 -0.5850
11215TIP3   OH255059   4.657   0.228   5.083 -0.3590 -0.4472  0.0021
11215TIP3    H155060   4.680   0.156   5.142  2.9359 -0.5656 -1.2077
11215TIP3    H255061   4.640   0.185   4.999 -0.3415  0.0304 -0.2464
11216TIP3   OH255062   2.380   6.303   0.602  0.3542  0.7169 -0.0200
11216TIP3    H155063   2.350   6.354   0.677  0.2622  1.0856 -0.3025
11216TIP3    H255064   2.353   6.213   0.621 -3.0913  1.3270 -1.2830
11217TIP3   OH255065   5.110   3.187   0.610 -0.6976 -0.1604  1.0398
11217TIP3    H155066   5.194   3.158   0.646  0.2890  1.0630 -0.1456
11217TIP3    H255067   5.096   3.274   0.648 -0.7614  0.1913  0.2452
11218TIP3   OH255068   4.360   5.007   6.328 -0.3524 -0.1236 -0.1361
11218TIP3    H155069   4.297   4.969   6.267  1.3679 -1.7342 -1.0025
11218TIP3    H255070   4.428   4.940   6.339  1.0050  1.3457  1.0916
11219TIP3   OH255071   4.020   3.155  16.096 -0.7072 -0.7408 -0.7201
11219TIP3    H155072   3.945   3.134  16.040 -1.6423  2.3839 -0.8337
11219TIP3    H255073   4.044   3.245  16.072  0.8539 -0.3955  1.7445
11220TIP3   OH255074   4.201   5.500   2.763 -0.2161 -0.0936  0.5876
11220TIP3    H155075   4.112   5.534   2.773 -0.3948 -0.6685  1.0007
11220TIP3    H255076   4.247   5.567   2.712 -0.6462  0.6033  1.1050
11221TIP3   OH255077   0.811   1.887  11.098  0.1542  0.2795  0.0248
11221TIP3    H155078   0.854   1.892  11.183 -1.3533 -2.1325  1.0164
11221TIP3    H255079   0.720   1.864  11.117  0.0165 -1.4452 -2.2446
11222TIP3   OH255080   1.480   2.831  13.282 -0.6933  0.3220  0.1377
11222TIP3    H155081   1.394   2.842  13.323 -1.1815 -0.2566 -0.6904
11222TIP3    H255082   1.494   2.912  13.233 -2.2263 -0.7424 -2.2677
11223TIP3   OH255083   4.550   3.348  15.600  0.2185  0.4710 -0.2730
11223TIP3    H155084   4.531   3.422  15.658 -1.8822 -0.9070  0.9534
11223TIP3    H255085   4.525   3.379  15.513  0.9010  1.7053 -0.0470
11224TIP3   OH255086   3.008   2.744  16.283  0.1151 -0.0514  0.3487
11224TIP3    H155087   3.049   2.830  16.273 -2.2380  1.1090  0.0370
11224TIP3    H255088   2.949   2.755  16.358  0.1577 -1.5697  0.6308
11225TIP3   OH255089   3.268   4.242   0.034 -0.2245 -0.0008  0.1912
11225TIP3    H155090   3.327   4.167   0.043 -1.0938 -0.5803  1.3919
11225TIP3    H255091   3.298   4.287  -0.045  1.0908 -0.9137  0.1370
11226TIP3   OH255092   1.134   4.001   3.481  0.2236 -0.1087  0.0816
11226TIP3    H155093   1.221   3.998   3.521  0.2303  0.4902  0.1233
11226TIP3    H255094   1.075   3.967   3.549  0.6591 -2.5340 -0.6832
11227TIP3   OH255095   6.567   6.442  14.785  0.2355 -0.3897 -0.0574
11227TIP3    H155096   6.574   6.383  14.710 -0.6904 -0.2348 -0.2714
11227TIP3    H255097   6.544   6.384  14.858  0.3127 -0.4264 -0.0610
11228TIP3   OH255098   4.870   0.433  12.485  0.2287  0.2491 -0.0459
11228TIP3    H155099   4.939   0.428  12.552  3.1299 -0.3916 -2.8294
11228TIP3    H255100   4.830   0.346  12.486  0.7224  0.0225  0.3977
11229TIP3   OH255101   6.548   3.718   4.410  0.1334 -0.1365  0.1000
11229TIP3    H155102   6.452   3.724   4.408  0.1527  0.1211 -0.0697
11229TIP3    H255103   6.566   3.660   4.484 -0.1138  0.9412  1.0389
11230TIP3   OH255104   3.077   3.855   1.870  0.3251 -0.6277 -0.0410
11230TIP3    H155105   3.084   3.946   1.898  1.6282 -0.5841 -0.4276
11230TIP3    H255106   3.072   3.805   1.951  1.4354 -0.3238  0.2364
11231TIP3   OH255107   5.984   4.095   5.575 -0.7000 -0.0231 -0.5754
11231TIP3    H155108   6.006   4.160   5.642 -0.6119 -0.8988  0.2559
11231TIP3    H255109   5.991   4.143   5.493 -2.1060  1.4347  0.0957
11232TIP3   OH255110   5.142   5.483  15.004 -0.2086  0.5818  0.3037
11232TIP3    H155111   5.063   5.518  14.964  1.0555  2.6526 -0.5547
11232TIP3    H255112   5.214   5.522  14.954  1.3962 -2.2480  0.1742
11233TIP3   OH255113   0.678   4.288  10.653 -0.0006 -0.0018  0.0625
11233TIP3    H155114   0.591   4.249  10.662 -1.0598  2.0246 -0.7574
11233TIP3    H255115   0.730   4.220  10.610 -1.4101 -0.9619 -0.2086
11234TIP3   OH255116   2.033   4.856   5.472 -0.2024  0.7282  0.1485
11234TIP3    H155117   2.039   4.788   5.540  1.2316 -0.7108 -1.3096
11234TIP3    H255118   1.943   4.849   5.440 -0.5975  0.7450  1.2067
11235TIP3   OH255119   1.803   2.553  16.393  0.3135  0.0554  0.0566
11235TIP3    H155120   1.727   2.579  16.341  0.1969 -0.4911 -0.0471
11235TIP3    H255121   1.783   2.464  16.422  0.5647  0.1998  0.6860
11236TIP3   OH255122   2.202   1.878   2.636 -0.3085 -0.5447  0.2076
11236TIP3    H155123   2.170   1.936   2.567 -0.8536  0.6694  1.4315
11236TIP3    H255124   2.141   1.804   2.636 -1.2967  0.2383  0.4344
11237TIP3   OH255125   0.251   5.904  11.462 -0.9249  0.0889  0.5410
11237TIP3    H155126   0.274   5.811  11.463  1.1274  0.4073 -2.3477
11237TIP3    H255127   0.213   5.918  11.375  0.2585  2.1675  0.2830
11238TIP3   OH255128   6.782   4.392   2.361 -0.4288 -0.2261  0.6670
11238TIP3    H155129   6.765   4.321   2.423 -0.6594  0.4745  1.4188
11238TIP3    H255130   6.815   4.348   2.283  1.0976 -1.0488  1.7136
11239TIP3   OH255131   4.346   6.660  12.455  0.0281 -0.4570  0.4717
11239TIP3    H155132   4.335   6.577  12.408  0.6849 -0.4579  0.3060
11239TIP3    H255133   4.258   6.697  12.459 -0.3803 -1.4316  1.0606
11240TIP3   OH255134   3.310   4.252  11.830  0.1774  0.5376  0.1465
11240TIP3    H155135   3.237   4.281  11.775 -0.7255 -1.5377  0.1760
11240TIP3    H255136   3.369   4.206  11.770 -0.0635 -0.4286  0.6382
11241TIP3   OH255137   1.359   3.535   5.712  0.1580  0.7505  0.5018
11241TIP3    H155138   1.330   3.626   5.700 -0.6042  0.5494  0.7721
11241TIP3    H255139   1.444   3.543   5.757  0.2258  1.3351  0.2823
11242TIP3   OH255140   5.150   1.296   4.506 -0.5348 -0.1883  0.1134
11242TIP3    H155141   5.200   1.327   4.582 -0.8239 -0.3542  0.3740
11242TIP3    H255142   5.118   1.209   4.533  0.7840 -1.0067 -0.8252
11243TIP3   OH255143   6.479   2.782  16.153  0.8727  0.7225  0.0230
11243TIP3    H155144   6.464   2.715  16.086  1.2088 -0.1441  0.8123
11243TIP3    H255145   6.474   2.735  16.236  0.6054  1.7677  0.6113
11244TIP3   OH255146   1.332   5.825   5.766  0.0156 -0.0694 -0.1275
11244TIP3    H155147   1.315   5.849   5.857  0.1024 -0.1384 -0.0933
11244TIP3    H255148   1.291   5.739   5.756  1.2452 -0.7164  0.2517
11245TIP3   OH255149   3.770   0.443  12.606 -0.1435  0.1980 -0.0481
11245TIP3    H155150   3.710   0.515  12.583 -0.8893 -0.8766 -1.6646
11245TIP3    H255151   3.797   0.407  12.522 -0.0050 -1.5801  0.7168
11246TIP3   OH255152   0.847   3.773  10.820 -0.1697  0.5321 -0.0495
11246TIP3    H155153   0.834   3.755  10.727  0.6066  0.1378 -0.0877
11246TIP3    H255154   0.891   3.695  10.854  0.9529  1.3026  0.3289
11247TIP3   OH255155   1.821   3.644  12.603  0.2538  0.4467 -0.1036
11247TIP3    H155156   1.734   3.671  12.633  0.1077  0.6474 -0.6795
11247TIP3    H255157   1.862   3.725  12.573  0.9029  0.4550  0.7961
11248TIP3   OH255158   5.160   3.474  16.265 -0.4077  0.4375  0.2989
11248TIP3    H155159   5.203   3.516  16.340  1.2625 -1.9765  0.8359
11248TIP3    H255160   5.115   3.399  16.304 -0.7291 -0.0223 -0.9388
11249TIP3   OH255161   0.551   5.450   5.823 -0.6187  0.1822  0.1947
11249TIP3    H155162   0.578   5.466   5.733 -0.0965  1.4383  0.5493
11249TIP3    H255163   0.584   5.362   5.843 -1.5720 -0.5055 -1.1139
11250TIP3   OH255164   5.752   4.737  13.523 -0.0745  0.0454 -0.2236
11250TIP3    H155165   5.827   4.748  13.463 -1.1890  2.3758 -1.3455
11250TIP3    H255166   5.717   4.826  13.533 -1.4024 -0.6556  2.0265
11251TIP3   OH255167   1.036   2.757  14.020 -0.5908  0.2773 -0.6403
11251TIP3    H155168   1.087   2.838  14.014 -1.4457  0.8579 -0.2981
11251TIP3    H255169   0.967   2.777  14.083 -0.2135 -1.0688  0.2391
11252TIP3   OH255170   4.685   6.360   3.141 -0.4698  0.0625 -0.5150
11252TIP3    H155171   4.602   6.315   3.127 -0.5224  0.4887 -1.6414
11252TIP3    H255172   4.726   6.312   3.213 -1.8686  0.1062  0.3434
11253TIP3   OH255173   6.281   1.352  10.828 -0.0397  0.0514  0.2827
11253TIP3    H155174   6.264   1.264  10.861 -1.4334  0.4921  0.8358
11253TIP3    H255175   6.348   1.341  10.762 -1.0856 -1.6219 -0.5632
11254TIP3   OH255176   1.954   4.339   4.553  0.2615  0.3992 -0.0262
11254TIP3    H155177   1.932   4.259   4.506 -1.6270  0.7927  0.0742
11254TIP3    H255178   1.976   4.310   4.641  2.7798 -0.2497 -0.7996
11255TIP3   OH255179   2.830   3.543   0.389 -0.7928 -0.2633 -0.4648
11255TIP3    H155180   2.875   3.474   0.340 -0.8557 -2.3070  2.1602
11255TIP3    H255181   2.895   3.576   0.450 -0.9452  1.6999 -1.2744
11256TIP3   OH255182   2.361   0.505  11.624  0.0726  0.3030  0.3371
11256TIP3    H155183   2.356   0.413  11.598  0.1864  0.6654 -1.0603
11256TIP3    H255184   2.283   0.545  11.585  0.1021  0.8264  0.8086
11257TIP3   OH255185   5.132   5.069   2.923  0.0696  0.0802  0.5044
11257TIP3    H155186   5.144   5.137   2.856 -0.0294  0.6077  1.0169
11257TIP3    H255187   5.093   5.115   2.997  0.3213 -0.4754  0.9841
11258TIP3   OH255188   0.032   3.955  15.456 -0.1956 -0.1691  0.4514
11258TIP3    H155189   0.025   3.953  15.552 -1.4563  0.0345  0.3771
11258TIP3    H255190   0.117   3.914  15.438 -0.8283 -2.0980  1.5459
11259TIP3   OH255191   5.318   1.955   6.175 -0.6457 -0.2599 -0.6805
11259TIP3    H155192   5.384   2.017   6.206 -0.0928 -0.7752 -0.8258
11259TIP3    H255193   5.361   1.870   6.177 -1.5013 -0.6938 -0.1773
11260TIP3   OH255194   2.021   5.932  15.328 -0.4590 -0.2169 -0.2185
11260TIP3    H155195   2.035   5.838  15.334  2.0328 -0.0859 -2.2000
11260TIP3    H255196   1.951   5.942  15.264  0.5397 -0.7393 -1.4293
11261TIP3   OH255197   1.631   3.308  15.700 -0.5917 -0.1445 -0.0515
11261TIP3    H155198   1.675   3.393  15.700 -1.4465  0.3885 -2.3652
11261TIP3    H255199   1.671   3.259  15.772  0.4278  1.9471  0.8750
11262TIP3   OH255200   1.300   1.690   0.287 -0.3751 -0.0105 -0.5631
11262TIP3    H155201   1.257   1.610   0.258  0.2773 -0.1338 -1.2220
11262TIP3    H255202   1.234   1.759   0.274 -2.1888 -0.8039  3.0932
11263TIP3   OH255203   2.228   5.089  12.879 -0.6592  0.3374 -0.1212
11263TIP3    H155204   2.181   5.163  12.917 -0.0397  0.7001 -0.0562
11263TIP3    H255205   2.321   5.108  12.894 -0.4140  0.3224 -1.5012
11264TIP3   OH255206   0.787   2.131   3.202 -0.1472 -0.3697  0.3560
11264TIP3    H155207   0.820   2.143   3.113 -0.2852  0.4502  0.4026
11264TIP3    H255208   0.764   2.220   3.231  0.3912 -0.5503  1.4023
11265TIP3   OH255209   2.836   0.596   3.224  0.7982 -0.1400 -0.1863
11265TIP3    H155210   2.918   0.645   3.220  1.2699 -0.9903 -1.2108
11265TIP3    H255211   2.859   0.507   3.196 -0.6012 -0.1928 -1.2887
11266TIP3   OH255212   3.834   0.845  14.050 -0.7081  0.5112  0.3460
11266TIP3    H155213   3.923   0.840  14.016 -1.1528 -1.6181 -0.6676
11266TIP3    H255214   3.792   0.914  13.999 -1.0460 -1.8614 -2.9251
11267TIP3   OH255215   3.283   3.316  16.152  0.3815  0.6676 -0.3721
11267TIP3    H155216   3.372   3.295  16.180  0.5827  0.4481 -1.1566
11267TIP3    H255217   3.294   3.360  16.068 -0.2474  0.6924 -0.4442
11268TIP3   OH255218   3.060   4.325  14.035 -0.6226  0.5392 -0.2975
11268TIP3    H155219   3.040   4.394  14.098 -1.2031 -0.2924  0.4427
11268TIP3    H255220   2.982   4.270  14.033 -0.3708  0.2002 -1.2770
11269TIP3   OH255221   5.078   0.885  16.591 -0.0911 -0.1078  0.1177
11269TIP3    H155222   5.160   0.841  16.613  0.4272  0.6190 -0.2878
11269TIP3    H255223   5.024   0.817  16.552  0.0997 -0.7266  0.9078
11270TIP3   OH255224   5.120   5.785   3.719 -0.2768 -0.1491 -0.5544
11270TIP3    H155225   5.129   5.710   3.778  0.0953 -0.5545 -1.1002
11270TIP3    H255226   5.210   5.813   3.703 -0.4407  0.6969 -0.0111
11271TIP3   OH255227   1.108   4.643  13.896  0.1706  0.6972  0.4438
11271TIP3    H155228   1.141   4.732  13.893 -1.0028  1.1552  0.6563
11271TIP3    H255229   1.033   4.647  13.956 -0.1981 -0.3199  0.0729
11272TIP3   OH255230   3.232   5.665   0.149  0.0222  0.4032 -0.5432
11272TIP3    H155231   3.144   5.633   0.166  0.4171  0.4269  1.9530
11272TIP3    H255232   3.278   5.590   0.112  0.0452 -0.9921  2.1264
11273TIP3   OH255233   0.940   5.526   1.893  0.2511  0.0114  0.4158
11273TIP3    H155234   0.913   5.603   1.943 -0.5574 -1.0736  1.7339
11273TIP3    H255235   0.944   5.455   1.958  2.8189 -0.6891 -0.3889
11274TIP3   OH255236   0.638   5.445  13.745  0.0236  0.8904 -0.1581
11274TIP3    H155237   0.566   5.390  13.715  1.5876 -0.8925 -0.8224
11274TIP3    H255238   0.686   5.468  13.665  1.3078  0.3600  0.4264
11275TIP3   OH255239   2.118   0.856  16.026 -0.3656 -0.1341  0.7289
11275TIP3    H155240   2.049   0.915  16.059 -0.5458 -0.2307  0.5269
11275TIP3    H255241   2.136   0.888  15.938 -1.2050 -1.0236  0.2285
11276TIP3   OH255242   3.267   2.092  15.215 -0.0349 -0.2180  0.2183
11276TIP3    H155243   3.178   2.127  15.213  0.1555  0.2334 -1.2738
11276TIP3    H255244   3.258   2.005  15.253 -1.4198 -0.9713 -1.7024
11277TIP3   OH255245   0.501   2.789  12.970 -1.0083  0.3109 -0.8155
11277TIP3    H155246   0.476   2.722  12.907 -3.6876 -2.0212  2.3980
11277TIP3    H255247   0.429   2.852  12.968 -1.1969  0.1310 -0.0260
11278TIP3   OH255248   5.172   1.366  14.628  0.2557 -0.1262  0.6471
11278TIP3    H155249   5.087   1.373  14.584 -0.0018 -1.1036  0.9619
11278TIP3    H255250   5.229   1.325  14.563 -0.3462 -2.3777  1.4349
11279TIP3   OH255251   2.154   3.599  12.385 -0.0796  0.0071  0.1505
11279TIP3    H155252   2.146   3.618  12.292  1.3304  1.4329  0.2764
11279TIP3    H255253   2.240   3.633  12.410 -0.9579  0.9281  2.2398
11280TIP3   OH255254   0.878   2.387   5.763 -0.3273  0.1122 -0.4305
11280TIP3    H155255   0.934   2.437   5.822  0.5517  0.0056 -1.1555
11280TIP3    H255256   0.792   2.429   5.770 -0.3481 -0.1310  1.1838
11281TIP3   OH255257   1.506   1.352  15.925 -0.5137 -0.3937  0.2209
11281TIP3    H155258   1.425   1.388  15.890 -0.5289 -1.2685 -0.7019
11281TIP3    H255259   1.567   1.425  15.925 -0.5993 -0.2865 -1.4096
11282TIP3   OH255260   0.535   6.230  15.613 -0.0580  0.1081 -0.3338
11282TIP3    H155261   0.577   6.309  15.581  0.7655 -0.1179  0.1606
11282TIP3    H255262   0.483   6.259  15.688 -0.5717  0.3382 -0.7693
11283TIP3   OH255263   6.738   6.215  12.468 -0.0501  0.6425 -0.2392
11283TIP3    H155264   6.758   6.303  12.501  0.0351  0.8047 -0.7231
11283TIP3    H255265   6.794   6.157  12.520 -2.0028  0.5836  1.9579
11284TIP3   OH255266   5.906   0.242   2.788  0.3859 -0.4990 -0.4098
11284TIP3    H155267   5.828   0.283   2.751 -0.2625 -0.7040  0.6619
11284TIP3    H255268   5.952   0.205   2.713 -2.0023 -2.8728 -0.8932
11285TIP3   OH255269   5.613   1.825   0.218 -0.0380  0.1236 -0.4218
11285TIP3    H155270   5.611   1.921   0.222 -0.6192  0.1447 -0.9259
11285TIP3    H255271   5.674   1.799   0.287 -1.6135  0.7637  1.3135
11286TIP3   OH255272   2.237   1.718   4.078 -0.5111  0.3142 -0.0619
11286TIP3    H155273   2.173   1.767   4.129 -0.2275  1.4387 -0.7594
11286TIP3    H255274   2.310   1.778   4.067  0.2460 -0.5945 -0.1562
11287TIP3   OH255275   2.463   2.848  15.382 -0.3162 -0.1354  0.0548
11287TIP3    H155276   2.404   2.778  15.410  1.8183 -2.3958 -0.7794
11287TIP3    H255277   2.432   2.872  15.295  0.5747 -2.1188 -0.8638
11288TIP3   OH255278   0.948   0.920   1.486  0.0315  0.5476 -0.3832
11288TIP3    H155279   0.863   0.923   1.531  0.2100  2.1412 -0.0821
11288TIP3    H255280   0.936   0.976   1.410  1.0672  1.5168  0.1512
11289TIP3   OH255281   3.161   3.944   3.619 -0.0351 -0.5022  0.0573
11289TIP3    H155282   3.166   3.930   3.524 -3.0883 -0.1222 -0.2724
11289TIP3    H255283   3.079   3.902   3.645  1.3000 -1.6570  2.8175
11290TIP3   OH255284   1.985   3.813  16.524 -0.4668  0.9547 -0.3473
11290TIP3    H155285   1.925   3.791  16.453 -1.0402  0.0680  0.3916
11290TIP3    H255286   2.062   3.759  16.508 -0.5155  0.9024 -0.4049
11291TIP3   OH255287   0.970   2.449  12.112  0.3831 -0.7012 -0.0110
11291TIP3    H155288   0.895   2.416  12.063  1.3964 -0.4870 -1.7611
11291TIP3    H255289   1.039   2.384  12.097  1.7870  1.0842 -1.8596
11292TIP3   OH255290   2.120   0.749   1.198  0.1737  0.0584  0.1800
11292TIP3    H155291   2.049   0.729   1.137  1.6796 -0.1972 -1.6098
11292TIP3    H255292   2.086   0.724   1.283 -1.5158 -1.0048 -0.7388
11293TIP3   OH255293   1.007   2.385  16.356 -0.0548 -0.3633 -0.0531
11293TIP3    H155294   1.013   2.377  16.261 -3.2322 -3.0548 -0.2185
11293TIP3    H255295   0.915   2.370  16.375  0.2576  1.3199  3.4250
11294TIP3   OH255296   1.497   5.600  12.837 -0.0892  0.3223  0.2037
11294TIP3    H155297   1.531   5.521  12.879 -0.6536 -0.0449 -0.0138
11294TIP3    H255298   1.569   5.662  12.841  1.2374 -0.9685 -1.7453
11295TIP3   OH255299   1.291   1.374   4.965  0.1641 -0.2124  0.0497
11295TIP3    H155300   1.287   1.386   5.060 -1.5228 -1.8151  0.2293
11295TIP3    H255301   1.324   1.458   4.932 -1.0696  1.0842  1.8977
11296TIP3   OH255302   2.602   5.524  16.337  0.4729  0.1515  0.0220
11296TIP3    H155303   2.604   5.603  16.392  1.0099  0.3582 -0.2847
11296TIP3    H255304   2.694   5.498  16.329  0.4692  0.4680 -1.2594
11297TIP3   OH255305   4.221   3.540  15.530 -0.3956  0.1291 -0.4654
11297TIP3    H155306   4.244   3.453  15.562 -0.4771  0.4761  0.5543
11297TIP3    H255307   4.156   3.523  15.461 -1.6535 -0.5623  0.8195
11298TIP3   OH255308   3.169   1.336   1.636 -0.0970 -0.1525  0.1712
11298TIP3    H155309   3.143   1.427   1.623 -0.9142 -0.0508  2.1241
11298TIP3    H255310   3.112   1.304   1.707 -0.0401 -2.2797 -0.6539
11299TIP3   OH255311   2.383   5.185   3.167  0.0255 -0.0378  0.4225
11299TIP3    H155312   2.384   5.188   3.263  0.9522 -0.5286  0.4406
11299TIP3    H255313   2.470   5.152   3.143  0.3715  1.5264 -0.6441
11300TIP3   OH255314   0.430   3.746  16.901 -0.1987  0.0486  0.0296
11300TIP3    H155315   0.377   3.693  16.841  0.5806  0.0994 -0.7375
11300TIP3    H255316   0.417   3.836  16.871  2.6187 -0.1263 -2.1931
11301TIP3   OH255317   3.810   5.933  13.544  0.1061  0.3449 -0.4247
11301TIP3    H155318   3.826   5.867  13.612 -1.4668 -0.4873 -0.7978
11301TIP3    H255319   3.762   5.885  13.476 -3.5453  2.4005  0.4538
11302TIP3   OH255320   4.471   3.792   5.991 -0.0403  0.3235  0.1495
11302TIP3    H155321   4.438   3.721   6.046  0.6262 -0.5829 -0.5953
11302TIP3    H255322   4.566   3.778   5.987  0.1033  1.2645  0.0068
11303TIP3   OH255323   5.745   2.487   3.453  0.0187 -0.5192  0.4775
11303TIP3    H155324   5.730   2.581   3.442 -0.8705 -0.5520  1.2724
11303TIP3    H255325   5.840   2.477   3.442  0.0789  0.4120  0.0208
11304TIP3   OH255326   0.581   2.654  14.192  0.3786 -0.2542 -0.1946
11304TIP3    H155327   0.506   2.686  14.142 -0.2210 -1.2800  0.0343
11304TIP3    H255328   0.637   2.611  14.127  0.8004  0.5220 -0.3674
11305TIP3   OH255329   5.627   5.781   4.499 -0.1683 -0.1243  0.0590
11305TIP3    H155330   5.681   5.771   4.420  0.8528 -1.4705  0.8925
11305TIP3    H255331   5.660   5.715   4.559 -1.5841  0.2307  1.2741
11306TIP3   OH255332   4.362   6.747   0.878 -0.1702  0.1634 -0.5659
11306TIP3    H155333   4.401   6.665   0.910 -3.3787 -0.6347  1.8121
11306TIP3    H255334   4.331   6.727   0.790  0.9328 -0.4756 -0.8250
11307TIP3   OH255335   1.652   1.803   0.494 -0.1254  0.6541  0.3184
11307TIP3    H155336   1.591   1.873   0.468  0.9655  1.4945 -0.0573
11307TIP3    H255337   1.607   1.758   0.565  0.3313  3.5935  2.6508
11308TIP3   OH255338   6.598   5.543  17.016  0.1792  0.0880 -0.3476
11308TIP3    H155339   6.634   5.455  17.009  2.6004  0.8758  0.7820
11308TIP3    H255340   6.674   5.598  17.036 -1.6786  1.9654  2.1815
11309TIP3   OH255341   6.659   4.012   3.368 -0.3791 -0.2931 -0.1508
11309TIP3    H155342   6.674   4.070   3.293 -0.1935 -2.0287 -1.5091
11309TIP3    H255343   6.603   4.064   3.427  0.4155  1.5405 -0.9154
11310TIP3   OH255344   0.419   3.537   1.416 -0.6607 -0.0868  0.0550
11310TIP3    H155345   0.462   3.620   1.395 -1.1427  0.0833 -0.2659
11310TIP3    H255346   0.417   3.489   1.334  0.8599 -1.0073  0.5204
11311TIP3   OH255347   0.851   6.342  13.495  0.3118 -0.2216  0.0081
11311TIP3    H155348   0.847   6.416  13.556  0.6373  0.0167 -0.2516
11311TIP3    H255349   0.920   6.286  13.529  3.0185  1.6510 -1.9968
11312TIP3   OH255350   3.821   5.232  14.514  0.0151  0.2936 -0.5726
11312TIP3    H155351   3.799   5.262  14.426 -1.1717  0.2948 -0.2894
11312TIP3    H255352   3.739   5.198  14.550  0.2657  1.0666  0.8393
11313TIP3   OH255353   0.681   2.728   5.456 -0.8741 -0.3991  0.2406
11313TIP3    H155354   0.591   2.741   5.486  0.0647 -0.2227  3.2821
11313TIP3    H255355   0.734   2.740   5.534  1.8399 -0.3568 -1.5010
11314TIP3   OH255356   5.026   5.861  16.602 -0.5351  0.5204  0.2718
11314TIP3    H155357   5.047   5.814  16.683  2.4935  1.8268  0.3731
11314TIP3    H255358   5.051   5.952  16.620  0.1528  0.8693 -2.0859
11315TIP3   OH255359   2.931   0.609   1.630  0.1117 -0.3198 -0.3646
11315TIP3    H155360   2.991   0.556   1.682  1.4865  0.9120 -0.6377
11315TIP3    H255361   2.854   0.619   1.686  0.4831 -1.2467  0.3325
11316TIP3   OH255362   1.385   3.451  15.308 -0.6030 -0.0874  0.8308
11316TIP3    H155363   1.307   3.416  15.265  0.4439 -0.3333 -0.9996
11316TIP3    H255364   1.420   3.378  15.358 -0.5255 -0.5542  0.1144
11317TIP3   OH255365   4.510   4.404  13.556  0.5055  0.3581 -0.1674
11317TIP3    H155366   4.417   4.423  13.560  0.3555 -0.4534  0.9129
11317TIP3    H255367   4.547   4.450  13.632  0.6767 -0.7804  0.4636
11318TIP3   OH255368   2.645   4.055  13.022  0.6693  0.2571 -0.5022
11318TIP3    H155369   2.719   4.009  13.063  0.2056 -0.7289 -0.7205
11318TIP3    H255370   2.613   3.993  12.956 -0.6693  0.4326 -0.0594
11319TIP3   OH255371   0.923   4.863  10.969 -0.0766  0.2577  0.0566
11319TIP3    H155372   0.953   4.776  10.944 -2.0804 -0.5436  0.2844
11319TIP3    H255373   0.913   4.910  10.887  2.0672  0.7059 -0.0170
11320TIP3   OH255374   1.509   5.066   1.241 -0.3124 -0.2799 -0.0746
11320TIP3    H155375   1.590   5.105   1.207 -0.5790  1.6813  1.3173
11320TIP3    H255376   1.539   4.998   1.301  0.1911 -1.9261 -2.1028
11321TIP3   OH255377   0.474   0.357  13.944 -0.2368 -0.2804 -0.4818
11321TIP3    H155378   0.545   0.310  13.989  0.0908 -0.9406 -1.6353
11321TIP3    H255379   0.478   0.446  13.980  1.5506 -0.1482 -0.8844
11322TIP3   OH255380   4.790   3.686   1.944  0.7364 -0.0998  0.2455
11322TIP3    H155381   4.770   3.595   1.966  1.3961 -0.1191  0.8010
11322TIP3    H255382   4.738   3.703   1.865 -0.3317 -0.5689  0.8226
11323TIP3   OH255383   0.934   4.276   3.203 -0.1278  0.5746 -0.3671
11323TIP3    H155384   0.920   4.357   3.154  2.0972  0.7014 -0.8890
11323TIP3    H255385   0.924   4.301   3.295  0.9610  1.5786 -0.4963
11324TIP3   OH255386   6.804   1.769  13.758  1.5199  0.2877  0.0650
11324TIP3    H155387   6.740   1.787  13.689  1.2436  1.0915  0.5095
11324TIP3    H255388   6.770   1.691  13.802  0.1437  1.4014  1.0688
11325TIP3   OH255389   1.726   2.810   5.555 -0.6767  0.2269  0.1267
11325TIP3    H155390   1.696   2.894   5.589 -0.0179  0.0120  1.2867
11325TIP3    H255391   1.711   2.748   5.626  0.0501 -0.3814 -0.2339
11326TIP3   OH255392   2.843   6.468  13.161  0.3361 -0.3610 -0.6548
11326TIP3    H155393   2.752   6.461  13.189  0.8150 -2.6480  0.5411
11326TIP3    H255394   2.847   6.552  13.116 -1.3801  1.8070  2.8632
11327TIP3   OH255395   3.298   3.546   4.741 -0.5768 -0.2486  0.1489
11327TIP3    H155396   3.239   3.607   4.786  1.7003  1.0637  1.5311
11327TIP3    H255397   3.303   3.470   4.800 -0.9930 -0.4394 -0.0563
11328TIP3   OH255398   1.566   5.521  11.445 -0.1620  0.2830 -0.1801
11328TIP3    H155399   1.594   5.477  11.365  0.9586 -2.0293  1.3595
11328TIP3    H255400   1.562   5.451  11.510 -1.9503  1.9075  1.5957
11329TIP3   OH255401   4.896   2.908   3.297  0.0159 -0.3350 -0.3261
11329TIP3    H155402   4.989   2.890   3.283 -0.0368 -0.6751 -0.2538
11329TIP3    H255403   4.867   2.949   3.216 -0.3030 -2.3429 -1.3121
11330TIP3   OH255404   4.901   4.963   0.546 -0.4817  0.4596 -0.5527
11330TIP3    H155405   4.977   4.912   0.519  0.0554  1.1410 -0.3588
11330TIP3    H255406   4.913   4.977   0.640 -1.3060 -0.1815 -0.3384
11331TIP3   OH255407   5.966   5.589  15.880  0.1176  0.1191  0.8369
11331TIP3    H155408   6.012   5.515  15.839  0.7486  1.7532 -1.5857
11331TIP3    H255409   6.018   5.609  15.957  1.8934  0.1114 -0.3006
11332TIP3   OH255410   2.882   2.719  14.335  0.0530  0.6178 -0.2395
11332TIP3    H155411   2.937   2.776  14.282  0.3954 -0.7443 -1.4064
11332TIP3    H255412   2.944   2.666  14.385 -0.1417 -0.7656 -1.3913
11333TIP3   OH255413   2.224   5.652  16.466  0.4283 -0.2965  0.2965
11333TIP3    H155414   2.203   5.741  16.438  0.0399 -0.6323 -0.5073
11333TIP3    H255415   2.319   5.653  16.479  0.7165 -0.2272 -1.5118
11334TIP3   OH255416   3.332   5.558  13.196 -1.0807  0.0998  0.4055
11334TIP3    H155417   3.382   5.570  13.277 -1.1647  2.1503  0.2212
11334TIP3    H255418   3.396   5.526  13.132 -0.4469  0.7506  0.6978
11335TIP3   OH255419   1.231   0.111  12.227  0.3485  0.3001  0.0198
11335TIP3    H155420   1.277   0.098  12.310  1.3400  2.4697 -0.1301
11335TIP3    H255421   1.283   0.177  12.181 -1.5862  1.0261 -1.2371
11336TIP3   OH255422   2.193   6.294   3.815 -0.0391  0.1593  0.2482
11336TIP3    H155423   2.102   6.265   3.816  0.2969 -1.0338 -0.6034
11336TIP3    H255424   2.244   6.213   3.811  1.0397  0.8253 -0.0238
11337TIP3   OH255425   4.382   0.795   1.592  0.0073 -0.4678  0.0495
11337TIP3    H155426   4.321   0.868   1.598  0.0081 -0.4766  0.1620
11337TIP3    H255427   4.384   0.773   1.499  1.0363  0.5434 -0.1960
11338TIP3   OH255428   3.735   5.390  11.263  0.0968  0.1981 -0.0885
11338TIP3    H155429   3.768   5.477  11.240  0.5142  0.2891  0.8039
11338TIP3    H255430   3.697   5.400  11.350  2.2491 -0.9740  1.0734
11339TIP3   OH255431   2.019   4.215  15.544 -0.4212 -0.6050 -0.2220
11339TIP3    H155432   1.932   4.177  15.529 -0.6490  0.4408 -1.9063
11339TIP3    H255433   2.054   4.227  15.456  1.1608 -0.3757  0.4197
11340TIP3   OH255434   2.721   6.154   2.212 -0.3733  0.4160  0.0427
11340TIP3    H155435   2.679   6.098   2.278 -0.6887  0.3040 -0.2542
11340TIP3    H255436   2.650   6.208   2.178  0.1843  2.1890  1.5051
11341TIP3   OH255437   0.435   3.590  16.137 -0.1020 -0.4708 -0.6172
11341TIP3    H155438   0.455   3.500  16.112  1.3058  0.5137 -3.3268
11341TIP3    H255439   0.520   3.632  16.149 -0.7318  0.4439  1.1191
11342TIP3   OH255440   2.445   6.697   4.027 -0.2285  0.1235 -0.1482
11342TIP3    H155441   2.532   6.734   4.012 -0.9256  1.7077 -0.5139
11342TIP3    H255442   2.448   6.610   3.985  1.2016  0.0949 -0.0275
11343TIP3   OH255443   3.081   0.673  12.679 -0.4470  0.2182 -0.5924
11343TIP3    H155444   3.129   0.678  12.762 -0.3291  2.0096 -0.7235
11343TIP3    H255445   2.990   0.662  12.705 -0.3407  0.1734 -0.2351
11344TIP3   OH255446   0.458   3.465  14.459 -0.5015  0.1747 -0.1533
11344TIP3    H155447   0.393   3.397  14.478 -0.9910  0.2625 -1.3732
11344TIP3    H255448   0.497   3.487  14.543 -0.7493 -1.2090  0.3336
11345TIP3   OH255449   1.644   3.141   5.327  0.1750 -0.4923  0.1833
11345TIP3    H155450   1.689   3.059   5.347 -0.5456 -0.8052  0.5617
11345TIP3    H255451   1.553   3.125   5.353  0.3843  1.0919  2.1449
11346TIP3   OH255452   1.222   0.887  12.324 -0.1762 -0.3233 -0.3691
11346TIP3    H155453   1.259   0.885  12.235  2.2914 -0.4422  0.5848
11346TIP3    H255454   1.276   0.950  12.371 -0.1184 -1.7124  1.5473
11347TIP3   OH255455   2.579   1.371  14.346  0.0435  0.1701  0.1571
11347TIP3    H155456   2.648   1.436  14.361  1.1523 -1.0618  0.6420
11347TIP3    H255457   2.531   1.367  14.428 -2.2112  2.7277 -0.8890
11348TIP3   OH255458   0.320   4.555   0.469 -0.3090 -0.1908  0.0025
11348TIP3    H155459   0.368   4.625   0.512  3.1491 -2.1318 -0.3362
11348TIP3    H255460   0.272   4.598   0.399 -0.5696  2.1347  1.5231
11349TIP3   OH255461   6.422   5.500   6.061  0.1833 -0.1721  0.2150
11349TIP3    H155462   6.490   5.567   6.051 -0.1200 -0.0797 -1.3678
11349TIP3    H255463   6.417   5.485   6.156  1.5174  0.7303  0.4457
11350TIP3   OH255464   5.228   1.738  11.285 -0.1453  0.0430  0.4399
11350TIP3    H155465   5.227   1.744  11.189  0.6962 -1.9504  0.2686
11350TIP3    H255466   5.312   1.776  11.311 -1.2069  2.4781  0.6193
11351TIP3   OH255467   4.453   5.202   2.347 -0.2255 -0.6648  0.3921
11351TIP3    H155468   4.460   5.181   2.440  0.5183 -1.2213  0.2197
11351TIP3    H255469   4.436   5.296   2.345 -0.2549 -0.6505  1.0906
11352TIP3   OH255470   3.425   2.102  14.655 -0.1718  0.0482 -0.2748
11352TIP3    H155471   3.409   2.065  14.741 -1.9697  0.3527 -0.4356
11352TIP3    H255472   3.514   2.138  14.660  0.8583 -2.3863  0.5221
11353TIP3   OH255473   0.995   3.425  16.767 -0.6364 -0.2007  0.0427
11353TIP3    H155474   1.057   3.403  16.837 -1.5254 -1.1666  0.5621
11353TIP3    H255475   0.912   3.438  16.813 -1.0183  0.1542 -0.7400
11354TIP3   OH255476   2.911   2.493  16.775 -0.5592 -0.3296  0.0227
11354TIP3    H155477   2.864   2.482  16.858 -0.5417  0.0199  0.0801
11354TIP3    H255478   2.978   2.559  16.794 -0.7803  0.0126 -0.3600
11355TIP3   OH255479   5.296   2.098   2.577  0.3088  0.1747 -0.3231
11355TIP3    H155480   5.363   2.030   2.580 -0.0391 -0.1385  0.5557
11355TIP3    H255481   5.319   2.158   2.647 -0.6384 -0.2377  0.3569
11356TIP3   OH255482   0.679   0.869  16.842 -0.8158  0.1029 -0.0357
11356TIP3    H155483   0.652   0.844  16.931 -1.1297  1.4847  0.2834
11356TIP3    H255484   0.773   0.883  16.848 -1.1722  2.6176  0.7406
11357TIP3   OH255485   5.269   3.730  16.510 -0.0806 -0.2946 -0.4785
11357TIP3    H155486   5.290   3.725  16.417  1.2042  2.5397 -0.4454
11357TIP3    H255487   5.341   3.683  16.553 -1.1556 -2.4161 -0.8746
11358TIP3   OH255488   6.466   3.151   0.779 -0.2872  0.6449  0.3302
11358TIP3    H155489   6.429   3.067   0.804 -0.6575  0.7290  0.0788
11358TIP3    H255490   6.559   3.144   0.799 -0.1981 -0.0559 -0.2976
11359TIP3   OH255491   5.619   0.859  12.472  0.2818  0.4407  0.5386
11359TIP3    H155492   5.638   0.952  12.457  2.4334 -0.0670 -0.2625
11359TIP3    H255493   5.702   0.815  12.454 -0.6907 -1.6526  0.9328
11360TIP3   OH255494   3.559   2.268  14.342  0.1253  0.4826 -0.1512
11360TIP3    H155495   3.619   2.208  14.386 -0.0007 -0.0519 -0.6879
11360TIP3    H255496   3.582   2.354  14.375  0.4343  0.1583  0.4964
11361TIP3   OH255497   5.014   0.714  15.124  0.5761  0.1565  0.3159
11361TIP3    H155498   5.022   0.670  15.209  2.2099 -0.0820  0.0696
11361TIP3    H255499   4.965   0.652  15.070  2.1042 -1.0284  0.2315
11362TIP3   OH255500   1.505   4.102  13.787 -0.0074  0.6376 -0.1478
11362TIP3    H155501   1.460   4.019  13.770  0.1218  0.1972  1.4951
11362TIP3    H255502   1.453   4.143  13.856  1.1260  0.9497  0.5284
11363TIP3   OH255503   5.124   1.029   3.245 -0.0008 -0.4641 -0.1014
11363TIP3    H155504   5.115   1.094   3.315 -2.2435  0.5692 -1.2347
11363TIP3    H255505   5.050   1.046   3.187  1.5224 -1.5537 -2.5292
11364TIP3   OH255506   2.503   0.478   2.833 -0.0579 -0.6102 -0.1700
11364TIP3    H155507   2.584   0.429   2.851 -0.6624 -1.7979 -0.5776
11364TIP3    H255508   2.485   0.525   2.914  2.2405  1.5089 -0.7636
11365TIP3   OH255509   3.378   1.905   3.124  0.7098  0.3137 -0.0066
11365TIP3    H155510   3.286   1.891   3.101  0.7369 -0.2551  0.2094
11365TIP3    H255511   3.421   1.824   3.098  1.5905  1.4370 -2.2894
11366TIP3   OH255512   0.391   2.415   2.726 -0.5204 -0.2795 -0.2684
11366TIP3    H155513   0.439   2.333   2.713  2.4887  1.4138 -0.7477
11366TIP3    H255514   0.396   2.460   2.642  0.5384  1.6284  0.7398
11367TIP3   OH255515   2.940   2.044   2.651 -0.2159  0.0174 -0.1699
11367TIP3    H155516   3.019   2.089   2.620  0.1332 -0.3589  0.1522
11367TIP3    H255517   2.922   2.085   2.736 -1.2291  1.1180 -0.8780
11368TIP3   OH255518   3.597   0.654   1.656 -0.1956 -0.1420 -0.3586
11368TIP3    H155519   3.570   0.608   1.735 -1.0368 -1.1584 -1.1903
11368TIP3    H255520   3.526   0.637   1.593  0.1048  1.2243 -1.1136
11369TIP3   OH255521   5.464   1.497   1.546 -0.8323  0.0392 -0.3652
11369TIP3    H155522   5.399   1.427   1.539 -0.9540  0.2136 -1.0005
11369TIP3    H255523   5.543   1.460   1.506 -0.9928  0.3777 -1.0054
11370TIP3   OH255524   3.181   3.072  14.369 -0.2370 -0.1397  0.1369
11370TIP3    H155525   3.128   3.147  14.344  0.0936  0.2131  0.4871
11370TIP3    H255526   3.266   3.109  14.394 -0.6949 -0.4187  2.2624
11371TIP3   OH255527   4.484   4.180   0.543 -0.1351 -0.2735  0.5031
11371TIP3    H155528   4.509   4.251   0.483  0.3797  0.0416  1.0793
11371TIP3    H255529   4.459   4.108   0.485  0.0603  0.1269 -0.0915
11372TIP3   OH255530   0.378   0.645  16.775  0.2761  0.3585  0.1675
11372TIP3    H155531   0.326   0.575  16.815 -1.1918  0.7938 -0.8807
11372TIP3    H255532   0.325   0.674  16.700  1.4519  1.7144 -0.1781
11373TIP3   OH255533   1.008   5.283   6.706 -0.1884  0.6485  0.0463
11373TIP3    H155534   1.087   5.274   6.652 -1.0023  0.0787 -1.0989
11373TIP3    H255535   0.977   5.372   6.688  0.2422  0.9210  0.6004
11374TIP3   OH255536   6.801   6.764  11.659  0.0811 -0.4830 -0.1054
11374TIP3    H155537   6.837   6.701  11.597 -0.4764  1.7761 -2.9797
11374TIP3    H255538   6.716   6.789  11.621  0.2154  1.8307  0.9370
11375TIP3   OH255539   6.617   3.268  15.526  0.3669  0.0005  0.3048
11375TIP3    H155540   6.608   3.345  15.469  1.4911  1.2079  1.6655
11375TIP3    H255541   6.658   3.302  15.605  1.6669 -2.1688  0.6399
11376TIP3   OH255542   1.933   1.199  12.051 -0.4901 -0.5947  0.3641
11376TIP3    H155543   2.002   1.214  12.115  1.0065  0.9821 -1.4793
11376TIP3    H255544   1.872   1.139  12.094  0.8492 -0.2527  2.8988
11377TIP3   OH255545   5.361   4.852   3.007  0.1485 -0.0911  0.2482
11377TIP3    H155546   5.294   4.910   3.043  0.8465  0.0484  1.3753
11377TIP3    H255547   5.441   4.905   3.007  0.7202 -0.9334  0.9735
11378TIP3   OH255548   3.078   3.705   6.060 -0.0714  0.3480  0.2280
11378TIP3    H155549   3.065   3.617   6.026  2.0284  1.0723 -2.8527
11378TIP3    H255550   3.156   3.699   6.115  0.4676  0.3424 -0.5127
11379TIP3   OH255551   0.347   3.136   0.929 -1.0293  0.1404  0.0073
11379TIP3    H155552   0.392   3.053   0.943  1.8461  1.1330 -2.3362
11379TIP3    H255553   0.373   3.163   0.842 -2.4048  3.2075  0.4204
11380TIP3   OH255554   3.679   3.640  11.013 -0.3706  0.1104 -0.2687
11380TIP3    H155555   3.723   3.555  11.014 -0.9154 -0.1832  0.8739
11380TIP3    H255556   3.613   3.633  11.082 -0.7443  1.2967 -0.4867
11381TIP3   OH255557   2.515   5.267   6.474  0.3472 -0.0143 -0.1356
11381TIP3    H155558   2.584   5.218   6.431  1.5344  0.7517  0.8204
11381TIP3    H255559   2.460   5.201   6.517  1.2385 -0.5689  0.1605
11382TIP3   OH255560   0.849   1.306   4.622  0.0223  0.9375 -0.0966
11382TIP3    H155561   0.861   1.362   4.546  0.3612  1.9232  0.6613
11382TIP3    H255562   0.850   1.366   4.697  0.5583 -0.0930  0.7528
11383TIP3   OH255563   2.143   4.185   2.530  0.3109 -0.3737 -0.2054
11383TIP3    H155564   2.196   4.164   2.454 -0.4402  0.1887 -0.9098
11383TIP3    H255565   2.194   4.155   2.605  1.5111 -0.0392 -0.8686
11384TIP3   OH255566   0.863   2.005   4.356 -0.1768  0.0129  0.3935
11384TIP3    H155567   0.836   2.084   4.310  0.3452 -0.2137 -0.3287
11384TIP3    H255568   0.924   2.036   4.423  1.1614  0.1076 -0.8225
11385TIP3   OH255569   0.368   0.762  14.329  0.0764 -0.9057 -0.1069
11385TIP3    H155570   0.351   0.823  14.257  1.0533 -1.0721 -0.4867
11385TIP3    H255571   0.290   0.769  14.385  0.1554  0.6934 -0.1454
11386TIP3   OH255572   2.540   1.806   1.166  0.0004 -0.0937  0.0047
11386TIP3    H155573   2.460   1.809   1.219  0.6725  0.8913  1.0130
11386TIP3    H255574   2.522   1.739   1.100 -2.2346  1.1478 -0.7673
11387TIP3   OH255575   2.858   3.687  13.813  0.1222 -0.0103 -0.2217
11387TIP3    H155576   2.813   3.668  13.895 -0.7196 -0.1299 -0.7010
11387TIP3    H255577   2.790   3.682  13.746 -0.0653  3.8381 -0.5428
11388TIP3   OH255578   6.540   1.401   5.078 -0.3248 -0.1100 -0.0026
11388TIP3    H155579   6.592   1.325   5.050  1.4913  1.4857 -1.1470
11388TIP3    H255580   6.601   1.454   5.130 -1.6749  0.4250  1.1055
11389TIP3   OH255581   6.091   1.137  12.966 -0.1350  0.0096 -0.2483
11389TIP3    H155582   6.071   1.063  13.023  1.5926 -0.5708 -0.3311
11389TIP3    H255583   6.147   1.194  13.020 -2.1365  1.7391  0.1149
11390TIP3   OH255584   0.599   3.575  14.670 -0.0431  0.3301  0.0923
11390TIP3    H155585   0.658   3.540  14.737  3.7089  2.2208 -1.9131
11390TIP3    H255586   0.536   3.628  14.720  3.0942  2.4062  2.2874
11391TIP3   OH255587   1.447   5.301  12.599 -0.3261 -0.3546 -0.0917
11391TIP3    H155588   1.371   5.360  12.598 -0.9162 -1.0832 -1.7844
11391TIP3    H255589   1.411   5.215  12.577  0.9238 -0.8087 -0.4444
11392TIP3   OH255590   2.593   6.412  14.794  0.4460 -0.0284 -0.2998
11392TIP3    H155591   2.684   6.387  14.804  0.9892  1.6130 -0.8547
11392TIP3    H255592   2.562   6.427  14.883  1.1481  0.8167 -0.1883
11393TIP3   OH255593   4.560   1.298  14.809  0.4331  0.0774  0.0564
11393TIP3    H155594   4.508   1.224  14.839  0.2906 -0.0020 -0.3874
11393TIP3    H255595   4.639   1.259  14.772  0.8711  0.2027  0.8359
11394TIP3   OH255596   4.722   0.551  12.740  0.5176  0.4191  0.5171
11394TIP3    H155597   4.784   0.532  12.670 -0.7582  2.0170 -1.1381
11394TIP3    H255598   4.775   0.595  12.807  1.0802  2.6699 -1.2883
11395TIP3   OH255599   3.299   3.492   6.381 -0.3602 -0.6102  0.5032
11395TIP3    H155600   3.260   3.553   6.444  0.8075 -0.5856  1.2278
11395TIP3    H255601   3.300   3.540   6.298 -0.6825 -0.1447  0.7651
11396TIP3   OH255602   1.958   0.964   1.979 -0.5220 -0.4646 -0.0791
11396TIP3    H155603   1.919   1.051   1.990 -0.2362 -0.2696 -0.5549
11396TIP3    H255604   1.887   0.903   1.997 -0.5585 -0.1523  0.9190
11397TIP3   OH255605   4.493   2.441  14.014 -0.0565 -0.3040  0.0455
11397TIP3    H155606   4.452   2.354  14.016  0.0494 -0.3696 -0.5433
11397TIP3    H255607   4.449   2.489  14.084  0.9050 -1.2793  1.3742
11398TIP3   OH255608   5.476   0.956  15.259  0.7587 -0.1876 -0.7958
11398TIP3    H155609   5.427   0.874  15.255 -0.9764  0.7851 -0.6031
11398TIP3    H255610   5.541   0.942  15.327  0.8270 -1.5630 -1.1160
11399TIP3   OH255611   4.053   6.749   4.127 -0.1789 -0.0990  0.2017
11399TIP3    H155612   3.996   6.680   4.092 -0.7848  0.3031  0.3886
11399TIP3    H255613   3.996   6.800   4.184 -0.3040  1.8498 -1.5557
11400TIP3   OH255614   5.677   2.101   6.321  0.5398 -0.0947  1.0908
11400TIP3    H155615   5.601   2.146   6.356 -0.9656 -0.9646 -0.8513
11400TIP3    H255616   5.652   2.009   6.318  0.8762 -0.1689 -1.3659
11401TIP3   OH255617   5.087   6.676  16.432 -0.0087 -0.5282  0.4927
11401TIP3    H155618   5.113   6.701  16.343  1.7920 -2.1403  0.4984
11401TIP3    H255619   5.043   6.753  16.467  0.7070  0.7273 -1.2155
11402TIP3   OH255620   2.571   0.613   3.232  0.2078 -0.4700 -0.1246
11402TIP3    H155621   2.554   0.633   3.140  0.4207  3.0871  0.4788
11402TIP3    H255622   2.661   0.643   3.246 -0.4873  0.9759  1.6469
11403TIP3   OH255623   4.239   2.640  16.080 -0.1981 -0.3122  0.0896
11403TIP3    H155624   4.187   2.646  16.159 -1.8073 -0.9511 -0.8742
11403TIP3    H255625   4.186   2.682  16.012  2.1142  2.3836 -0.2838
11404TIP3   OH255626   5.193   0.627   5.535  0.4971 -0.5797 -0.7982
11404TIP3    H155627   5.265   0.689   5.524  1.9048 -1.8886  0.5431
11404TIP3    H255628   5.159   0.614   5.447  2.0671 -0.0810 -1.5176
11405TIP3   OH255629   1.885   1.455  14.416 -0.9123  0.2890  0.4161
11405TIP3    H155630   1.802   1.411  14.436 -1.5408  0.9045 -0.6881
11405TIP3    H255631   1.865   1.549  14.421 -0.2452  0.4460  0.3070
11406TIP3   OH255632   5.829   6.331   6.746  0.4632 -0.2847 -0.3495
11406TIP3    H155633   5.881   6.261   6.706  0.8536  0.8120 -1.8870
11406TIP3    H255634   5.742   6.292   6.759  0.5515 -0.9644 -1.5775
11407TIP3   OH255635   3.858   5.666  11.274 -0.3327 -0.1173  0.1339
11407TIP3    H155636   3.776   5.683  11.228  0.1304 -0.4894 -0.8654
11407TIP3    H255637   3.926   5.678  11.207  0.4297  0.1491  0.9309
11408TIP3   OH255638   2.493   6.444   1.358 -0.2956 -0.2444 -0.0454
11408TIP3    H155639   2.480   6.481   1.270  0.6596  0.4664  0.0931
11408TIP3    H255640   2.556   6.502   1.399  1.1633 -1.9444  0.2489
11409TIP3   OH255641   5.458   6.063   5.788  0.0838 -0.1004  0.2044
11409TIP3    H155642   5.440   6.110   5.870 -1.1527 -0.3025  0.0607
11409TIP3    H255643   5.551   6.080   5.771 -0.2644  2.1150  0.2617
11410TIP3   OH255644   0.985   6.612   3.297 -0.3655  0.2171 -0.5139
11410TIP3    H155645   0.952   6.555   3.366  0.3502 -0.0775 -0.4075
11410TIP3    H255646   1.079   6.593   3.293 -0.5236 -0.3616 -2.1226
11411TIP3   OH255647   2.030   2.944  15.300 -0.2407  0.1153  0.0644
11411TIP3    H155648   2.085   2.961  15.223 -0.1393 -4.0116 -0.9898
11411TIP3    H255649   1.942   2.966  15.271  0.0488  0.6808 -0.4285
11412TIP3   OH255650   6.369   2.977  16.923  0.1826  0.3224  0.2821
11412TIP3    H155651   6.286   2.929  16.918  1.9461 -2.8542 -1.6630
11412TIP3    H255652   6.389   2.980  17.017 -1.5492  0.1210  0.6893
11413TIP3   OH255653   4.219   3.003  15.985 -0.6131  0.5220 -0.2617
11413TIP3    H155654   4.166   3.057  16.043 -0.8393 -1.0000  1.0257
11413TIP3    H255655   4.159   2.978  15.915 -0.9919  0.5696  0.0405
11414TIP3   OH255656   1.229   5.858   6.036  0.0549  0.0592 -0.3714
11414TIP3    H155657   1.256   5.770   6.063 -1.2745 -0.4963 -0.7862
11414TIP3    H255658   1.157   5.880   6.095 -0.1308  0.5440 -0.7763
11415TIP3   OH255659   0.180   2.235  15.235 -0.0525  0.6490 -0.2027
11415TIP3    H155660   0.267   2.198  15.252 -0.1816 -0.0026 -0.8784
11415TIP3    H255661   0.195   2.299  15.165 -0.1587  0.3141 -0.5349
11416TIP3   OH255662   3.943   2.758  13.742  0.0298  0.3745  0.3568
11416TIP3    H155663   4.014   2.712  13.696 -0.3931  0.2544 -0.1877
11416TIP3    H255664   3.863   2.723  13.702 -0.3081  1.5073  0.0017
11417TIP3   OH255665   4.920   0.552   4.628  0.8818  0.3192 -0.2380
11417TIP3    H155666   4.876   0.593   4.702 -0.0873  0.1666 -0.7108
11417TIP3    H255667   4.917   0.458   4.647  2.3641  0.3746  0.4446
11418TIP3   OH255668   6.481   2.560  10.418  0.5186  0.0929 -0.0344
11418TIP3    H155669   6.416   2.602  10.475  0.5389 -0.4416  0.3901
11418TIP3    H255670   6.555   2.541  10.476  0.5215 -0.4899 -0.2214
11419TIP3   OH255671   4.551   3.966   1.054  0.4931 -1.3318  0.1693
11419TIP3    H155672   4.549   3.991   1.147 -1.1112 -3.2188  0.7168
11419TIP3    H255673   4.635   3.922   1.043  0.2356 -2.0736  1.0461
11420TIP3   OH255674   2.348   4.857  16.276 -0.3154 -0.2019 -0.1553
11420TIP3    H155675   2.364   4.948  16.250 -1.8298 -0.0842 -0.7874
11420TIP3    H255676   2.405   4.805  16.219  0.6763  0.3367  0.3181
11421TIP3   OH255677   5.854   3.601   5.762  0.3769  0.5003  0.5038
11421TIP3    H155678   5.759   3.613   5.760  0.3437  0.3789  1.2636
11421TIP3    H255679   5.875   3.589   5.854  0.8719 -1.6138  0.1690
11422TIP3   OH255680   1.628   3.237   0.875 -0.3858 -0.3614 -0.5314
11422TIP3    H155681   1.678   3.215   0.797  0.6852 -1.6576  0.4880
11422TIP3    H255682   1.601   3.328   0.861 -0.6521 -0.7187 -2.6091
11423TIP3   OH255683   4.830   4.433  16.596  0.8979 -0.0212  0.6045
11423TIP3    H155684   4.858   4.369  16.530  0.5982 -0.7854  1.2039
11423TIP3    H255685   4.911   4.459  16.640  0.9250 -0.6179  0.9108
11424TIP3   OH255686   2.447   1.971   5.717  0.0996 -0.0583 -0.2776
11424TIP3    H155687   2.455   2.055   5.763 -4.3935 -0.1208  1.1839
11424TIP3    H255688   2.485   1.908   5.778 -0.8127  0.4946  0.9346
11425TIP3   OH255689   0.844   6.557   3.043 -0.0546 -0.2140 -0.6353
11425TIP3    H155690   0.791   6.632   3.068  0.7815  0.3402 -0.4897
11425TIP3    H255691   0.919   6.559   3.102 -0.5968 -1.8718  0.1865
11426TIP3   OH255692   6.733   3.303  16.182 -0.2699  0.3345  0.3868
11426TIP3    H155693   6.802   3.268  16.125 -0.5236 -0.9486  0.8518
11426TIP3    H255694   6.684   3.227  16.211 -2.0389  1.2312 -0.0932
11427TIP3   OH255695   5.755   6.511  14.168 -0.1448 -0.7542 -0.1100
11427TIP3    H155696   5.779   6.590  14.120  1.8212 -0.9902  0.3936
11427TIP3    H255697   5.671   6.484  14.131 -1.0977  1.8020  0.0051
11428TIP3   OH255698   3.233   3.540  14.097  0.0106  1.0629  0.1904
11428TIP3    H155699   3.222   3.568  14.006 -2.4158  0.8800  0.3717
11428TIP3    H255700   3.198   3.613  14.148 -1.5773 -0.1090  0.8380
11429TIP3   OH255701   5.115   5.264  14.491 -0.2392 -0.3599 -0.3433
11429TIP3    H155702   5.065   5.285  14.570  0.1226  0.7879 -0.4058
11429TIP3    H255703   5.197   5.229  14.524  0.5913  1.6603 -0.1421
11430TIP3   OH255704   1.244   2.157  11.161 -0.0232  0.0818  0.3407
11430TIP3    H155705   1.254   2.164  11.066 -0.5264 -0.5129  0.2435
11430TIP3    H255706   1.207   2.071  11.176  2.1328 -0.7741  1.2432
11431TIP3   OH255707   0.708   4.314   1.659 -0.5823  0.2742 -0.3982
11431TIP3    H155708   0.706   4.219   1.667 -0.2252  0.3681  1.2848
11431TIP3    H255709   0.648   4.345   1.727  0.2091  1.2693 -0.1234
11432TIP3   OH255710   3.781   5.138  10.684  0.1670  0.6312 -0.2066
11432TIP3    H155711   3.874   5.119  10.696 -0.1645  0.7932  4.2553
11432TIP3    H255712   3.737   5.064  10.725 -1.6054  1.7605  0.0234
11433TIP3   OH255713   1.771   1.259  16.026  0.4460 -0.4296 -0.2763
11433TIP3    H155714   1.696   1.222  15.979 -2.0650  2.0241  1.4349
11433TIP3    H255715   1.785   1.344  15.985  0.2481  0.4142  1.3260
11434TIP3   OH255716   0.802   2.515  13.817  0.0264 -0.9347  0.0507
11434TIP3    H155717   0.748   2.450  13.773 -0.6392 -1.7784  1.9922
11434TIP3    H255718   0.740   2.578  13.853  0.6523  0.6734 -1.5504
11435TIP3   OH255719   3.585   3.974   4.231  0.5621  0.3130 -0.3349
11435TIP3    H155720   3.536   4.026   4.168 -0.4077 -0.0488  0.0880
11435TIP3    H255721   3.518   3.942   4.292  1.3554 -0.0798  0.3458
11436TIP3   OH255722   4.649   4.806   2.757 -0.2669 -0.4321 -0.5854
11436TIP3    H155723   4.581   4.818   2.692 -0.3523 -2.4958 -0.9516
11436TIP3    H255724   4.728   4.845   2.718 -0.7656  0.1423 -1.0269
11437TIP3   OH255725   1.760   4.644   3.322 -0.7832  0.8026  0.0157
11437TIP3    H155726   1.746   4.549   3.328 -0.0597  0.7492  1.3686
11437TIP3    H255727   1.672   4.681   3.312 -1.0517 -0.0122 -0.7374
11438TIP3   OH255728   3.263   3.676   2.408  0.1043 -0.4207  0.3255
11438TIP3    H155729   3.296   3.644   2.324 -1.1002  2.7795 -1.5398
11438TIP3    H255730   3.332   3.735   2.440 -1.2114  1.8172 -0.7382
11439TIP3   OH255731   0.044   1.879   1.849 -0.1417  0.0007 -0.2409
11439TIP3    H155732   0.108   1.938   1.889  1.4065 -0.1102 -2.3715
11439TIP3    H255733   0.034   1.911   1.760 -1.1534 -1.5256 -0.7165
11440TIP3   OH255734   5.782   0.833   0.869 -0.7449 -0.7852  0.4427
11440TIP3    H155735   5.763   0.740   0.852 -0.6140 -1.2977  2.7914
11440TIP3    H255736   5.871   0.833   0.905  0.2656  0.5862 -1.7909
11441TIP3   OH255737   6.230   6.295   4.126  0.1145  0.3464  0.1156
11441TIP3    H155738   6.194   6.225   4.073  1.4588  0.0420 -0.4378
11441TIP3    H255739   6.248   6.255   4.211  1.2921 -0.1326 -0.3345
11442TIP3   OH255740   4.983   3.411   5.950  0.1979  0.7401  0.3381
11442TIP3    H155741   5.008   3.465   5.875  2.7928 -0.7954  0.0108
11442TIP3    H255742   4.906   3.362   5.920  0.9882  0.4046 -1.2120
11443TIP3   OH255743   1.452   2.593   0.570  0.2030 -0.4777  0.3202
11443TIP3    H155744   1.473   2.501   0.553  0.8375 -0.1535 -0.7215
11443TIP3    H255745   1.535   2.633   0.594  0.2799  0.2040 -1.0145
11444TIP3   OH255746   5.479   5.847  13.544 -0.5908 -0.2465  0.1561
11444TIP3    H155747   5.533   5.768  13.545 -0.5084 -0.1998 -0.4402
11444TIP3    H255748   5.408   5.828  13.483 -0.8500 -0.0403  0.3902
11445TIP3   OH255749   1.595   3.607   1.492  0.0261 -0.0753  0.3391
11445TIP3    H155750   1.560   3.526   1.528 -0.3776 -0.6189 -1.2020
11445TIP3    H255751   1.555   3.614   1.405  2.0271  0.4427 -0.5930
11446TIP3   OH255752   0.687   5.954  15.873 -0.4031  0.1596  0.5180
11446TIP3    H155753   0.700   5.979  15.781 -3.2199 -0.6418 -0.1870
11446TIP3    H255754   0.667   5.861  15.870 -1.1040  0.2403  1.8788
11447TIP3   OH255755   0.160   0.644  14.113  0.4880 -0.1734 -0.2153
11447TIP3    H155756   0.188   0.578  14.050 -0.7006 -1.7180  0.7858
11447TIP3    H255757   0.070   0.665  14.087  1.2384  1.9862 -1.2247
11448TIP3   OH255758   5.321   3.213  15.086 -0.1005 -0.2816 -0.0595
11448TIP3    H155759   5.387   3.262  15.134 -0.1914  0.2777 -0.4992
11448TIP3    H255760   5.357   3.124  15.079  0.6259  0.0289 -0.3417
11449TIP3   OH255761   5.879   3.195  16.153  0.7654 -0.1203  0.4709
11449TIP3    H155762   5.932   3.267  16.119 -0.8367  1.6655  1.5385
11449TIP3    H255763   5.834   3.159  16.076  1.8383 -0.2313 -0.1222
11450TIP3   OH255764   0.634   5.867   4.624  0.4077  0.4533 -0.3182
11450TIP3    H155765   0.579   5.918   4.565 -0.4799 -0.9197 -0.6978
11450TIP3    H255766   0.593   5.781   4.628  0.3278  0.5178  2.4341
11451TIP3   OH255767   4.771   1.227  13.882  0.1603 -0.0614 -0.8504
11451TIP3    H155768   4.855   1.213  13.925 -0.5856  0.9734  1.0864
11451TIP3    H255769   4.794   1.269  13.798  1.6282 -1.5201 -1.2345
11452TIP3   OH255770   4.280   6.045  13.474  0.6279  1.1033  0.0462
11452TIP3    H155771   4.301   6.088  13.392 -0.2088  1.8482  0.2060
11452TIP3    H255772   4.360   6.052  13.526  1.4942 -0.2353 -1.0291
11453TIP3   OH255773   5.431   4.645   2.006 -0.3479 -0.0243 -0.4167
11453TIP3    H155774   5.410   4.732   2.040  0.3854 -0.4422  1.1743
11453TIP3    H255775   5.522   4.630   2.033  0.2569 -0.4552 -2.4778
11454TIP3   OH255776   3.859   1.361  11.524  0.1937 -0.6541  0.0015
11454TIP3    H155777   3.883   1.406  11.444  0.1118 -0.9558 -0.1918
11454TIP3    H255778   3.778   1.314  11.503  0.1613 -0.7221  0.2631
11455TIP3   OH255779   5.807   4.655  11.388  1.0023 -0.2920  0.0638
11455TIP3    H155780   5.799   4.578  11.333 -0.1841 -0.6737  0.7409
11455TIP3    H255781   5.747   4.640  11.461  2.2459  0.3580  1.2852
11456TIP3   OH255782   5.466   3.593   5.138 -0.3199  0.0422  0.0646
11456TIP3    H155783   5.525   3.548   5.199  0.2401  0.7516  0.0562
11456TIP3    H255784   5.380   3.556   5.156  0.1330 -1.0533  0.0379
11457TIP3   OH255785   1.335   2.236  15.723 -0.1817  0.0552 -0.1376
11457TIP3    H155786   1.284   2.290  15.662 -2.4297  1.1013  2.4364
11457TIP3    H255787   1.274   2.167  15.749 -0.2531  1.0553  2.6809
11458TIP3   OH255788   0.077   3.918   3.476  0.2712  0.0951 -0.1368
11458TIP3    H155789  -0.002   3.956   3.436 -0.1297 -0.5927 -0.0198
11458TIP3    H255790   0.147   3.978   3.453  0.1502 -0.5202 -2.3329
11459TIP3   OH255791   1.428   4.512  13.981  0.6079 -0.2542  0.4639
11459TIP3    H155792   1.520   4.490  13.996  0.7420 -0.8088 -0.9531
11459TIP3    H255793   1.410   4.585  14.040  2.3389  0.7420 -0.1700
11460TIP3   OH255794   1.425   5.774  13.937  0.0424  0.2619  0.1099
11460TIP3    H155795   1.329   5.772  13.945  0.1432 -0.7675  1.2877
11460TIP3    H255796   1.457   5.725  14.012  1.5192  0.6728 -0.2128
11461TIP3   OH255797   2.360   1.725   1.371 -0.5371 -0.4007  0.0599
11461TIP3    H155798   2.336   1.716   1.463  0.4695 -3.0979  0.1543
11461TIP3    H255799   2.320   1.648   1.329 -0.5359  0.5068 -1.6680
11462TIP3   OH255800   4.021   3.917  13.579  0.2767  0.2868  0.0419
11462TIP3    H155801   3.953   3.985  13.574 -0.2372 -0.2586 -0.5740
11462TIP3    H255802   4.043   3.899  13.487  1.2290  0.4214  0.2324
11463TIP3   OH255803   6.778   6.066  16.528 -0.3674  0.2968 -0.3243
11463TIP3    H155804   6.854   6.038  16.477  1.4507  1.3254  1.6382
11463TIP3    H255805   6.726   5.986  16.538  0.6010 -0.5255 -1.4585
11464TIP3   OH255806   2.652   2.791  15.099 -0.0539 -0.2695 -0.0590
11464TIP3    H155807   2.711   2.744  15.157  2.0572 -0.2686 -2.0652
11464TIP3    H255808   2.698   2.796  15.015 -1.4907  2.6372 -0.8410
11465TIP3   OH255809   1.262   5.055  12.882  0.2357 -0.3892  0.4136
11465TIP3    H155810   1.189   5.098  12.839 -0.3722 -1.0674  0.7462
11465TIP3    H255811   1.309   5.011  12.810  0.8942  0.8333  0.0666
11466TIP3   OH255812   6.667   4.774   5.412  0.1163  0.4090  0.3012
11466TIP3    H155813   6.729   4.826   5.462  1.6909 -0.8219 -0.2632
11466TIP3    H255814   6.630   4.835   5.348 -0.2996  1.4785  1.5186
11467TIP3   OH255815   2.913   4.803  16.839 -0.3500  0.0274  0.4174
11467TIP3    H155816   2.826   4.808  16.880 -0.9833 -0.7997 -0.7809
11467TIP3    H255817   2.961   4.878  16.876 -2.1732  1.6464 -0.3229
11468TIP3   OH255818   6.802   0.643   5.843 -0.0471 -0.0125 -0.3157
11468TIP3    H155819   6.796   0.731   5.807  0.8258  0.2992  0.2476
11468TIP3    H255820   6.807   0.657   5.938  1.3429 -0.5837 -0.2898
11469TIP3   OH255821   2.450   5.084  12.684  0.2236  0.4235  0.1578
11469TIP3    H155822   2.411   4.998  12.697 -0.3082  0.4226 -1.2950
11469TIP3    H255823   2.387   5.131  12.629  1.5827  0.9184 -1.0435
11470TIP3   OH255824   4.239   3.319   3.200  0.0240 -0.0150  0.2567
11470TIP3    H155825   4.157   3.354   3.237  1.2441  0.5189  2.6611
11470TIP3    H255826   4.249   3.233   3.240 -0.0675 -0.7399 -1.2038
11471TIP3   OH255827   4.340   3.424   0.494 -0.6553  0.0006  0.5934
11471TIP3    H155828   4.371   3.334   0.507  0.3344  0.1992 -0.2178
11471TIP3    H255829   4.351   3.466   0.579  0.4948 -0.1941  0.5574
11472TIP3   OH255830   6.407   6.382   3.283 -0.2393 -0.4091  0.0000
11472TIP3    H155831   6.311   6.373   3.287 -0.1549 -1.7749 -0.7523
11472TIP3    H255832   6.424   6.467   3.324 -1.7435 -0.3119  0.4887
11473TIP3   OH255833   0.296   4.047   2.296 -0.2237  0.1716 -0.3164
11473TIP3    H155834   0.346   4.126   2.317  2.5678 -0.9749 -2.0764
11473TIP3    H255835   0.327   3.982   2.360  0.4441 -0.4961 -1.2901
11474TIP3   OH255836   0.545   0.563   6.051  0.2245  0.5829 -0.6520
11474TIP3    H155837   0.486   0.637   6.035  0.8954  0.9246 -1.7026
11474TIP3    H255838   0.603   0.563   5.974  0.4702 -0.8089 -0.4804
11475TIP3   OH255839   2.941   0.129  16.926  0.4208 -1.0424  0.3705
11475TIP3    H155840   3.007   0.196  16.909 -0.4764  0.6853  3.1491
11475TIP3    H255841   2.859   0.169  16.899 -0.1766 -0.8007  2.3873
11476TIP3   OH255842   2.403   1.958  15.472  0.1048 -0.2420 -0.2915
11476TIP3    H155843   2.329   1.986  15.418 -1.7538 -2.6733  0.7757
11476TIP3    H255844   2.375   1.977  15.562  0.8164 -1.0845  0.1240
11477TIP3   OH255845   2.049   0.810  15.476 -0.0059  0.1899 -0.2522
11477TIP3    H155846   2.026   0.787  15.385 -0.6915  1.9377 -0.5653
11477TIP3    H255847   2.131   0.763  15.492 -0.3936 -0.9759 -1.4100
11478TIP3   OH255848   6.557   2.449  11.940  0.5186 -0.3952  0.0337
11478TIP3    H155849   6.626   2.408  11.991  0.0854  0.2761  1.2062
11478TIP3    H255850   6.531   2.383  11.876  4.0735  0.2222 -2.3345
11479TIP3   OH255851   5.918   2.975   1.814  0.0141 -0.1036  0.6401
11479TIP3    H155852   5.923   3.069   1.832  0.6136  0.5242 -2.3340
11479TIP3    H255853   5.853   2.942   1.876 -2.0704  2.7517  0.1644
11480TIP3   OH255854   2.447   6.023  16.891  0.2955  0.8439 -0.3215
11480TIP3    H155855   2.385   5.965  16.934  3.1379 -1.1847  1.4401
11480TIP3    H255856   2.502   6.056  16.962  1.3363  2.3864 -1.7694
11481TIP3   OH255857   0.747   2.387   0.834 -0.1530  0.6698 -0.5247
11481TIP3    H155858   0.820   2.404   0.776  0.4897 -0.0508  0.0545
11481TIP3    H255859   0.669   2.405   0.780  0.4346  1.1901 -1.2193
11482TIP3   OH255860   1.171   3.789   5.580 -0.0039 -0.5858  0.1690
11482TIP3    H155861   1.152   3.790   5.674  2.3651 -0.6898  0.7208
11482TIP3    H255862   1.246   3.848   5.571 -2.7013  2.8539 -2.3433
11483TIP3   OH255863   6.631   2.155   2.824 -0.1897  0.0171  0.0768
11483TIP3    H155864   6.560   2.110   2.778 -1.5906  2.1728 -0.0170
11483TIP3    H255865   6.678   2.202   2.755  0.5511 -0.3721  0.3070
11484TIP3   OH255866   2.828   3.087   2.477 -0.3478  0.4901  0.0278
11484TIP3    H155867   2.824   3.108   2.570  2.5161 -1.5872  0.7739
11484TIP3    H255868   2.784   3.002   2.469 -0.3026  0.5068 -0.4448
11485TIP3   OH255869   4.632   5.717   4.989 -0.6884  0.3263  0.0129
11485TIP3    H155870   4.602   5.710   5.079  0.1855  1.6791  0.4306
11485TIP3    H255871   4.557   5.687   4.937 -1.3236 -0.1390  1.1620
11486TIP3   OH255872   0.994   1.599  16.458 -0.0945 -0.0907 -0.3946
11486TIP3    H155873   1.019   1.690  16.477  1.9376 -0.7467  0.2367
11486TIP3    H255874   1.015   1.588  16.365 -2.9564  0.8320 -1.2867
11487TIP3   OH255875   0.911   5.829   5.168 -0.3974 -0.0630  0.0751
11487TIP3    H155876   0.924   5.848   5.261  0.0111 -0.1080  0.0273
11487TIP3    H255877   0.866   5.907   5.134  0.4026  0.4169  0.0854
11488TIP3   OH255878   5.610   4.955   5.366 -0.3674  0.5035  0.1912
11488TIP3    H155879   5.593   5.048   5.357  0.3104  0.6020 -0.1394
11488TIP3    H255880   5.524   4.915   5.378 -0.7402  1.0655 -0.6078
11489TIP3   OH255881   6.023   0.020   0.828  0.3537  0.5171  0.0906
11489TIP3    H155882   6.008  -0.002   0.736 -0.8855  0.8715  0.1775
11489TIP3    H255883   5.966  -0.040   0.876  1.0446  0.2919  0.6364
11490TIP3   OH255884   3.393   5.836  15.872  0.3861 -0.1229  0.6192
11490TIP3    H155885   3.317   5.778  15.881  0.7987 -0.6906  0.5559
11490TIP3    H255886   3.357   5.920  15.845 -0.1706 -0.5342  0.0705
11491TIP3   OH255887   3.973   5.203   3.013 -0.2484 -0.5718  0.3902
11491TIP3    H155888   3.947   5.111   3.010 -1.2024 -0.2912 -1.0231
11491TIP3    H255889   4.067   5.201   3.029 -0.5294 -1.7268  2.1318
11492TIP3   OH255890   3.731   5.070   0.277 -0.3719  0.1567  0.4411
11492TIP3    H155891   3.739   5.079   0.372  0.9025  0.0702  0.3507
11492TIP3    H255892   3.815   5.034   0.249 -0.5586  0.6372 -0.7821
11493TIP3   OH255893   3.308   6.613  13.172  0.1583 -0.0516 -0.6223
11493TIP3    H155894   3.345   6.696  13.141 -0.1410  0.4202  0.2429
11493TIP3    H255895   3.380   6.571  13.219  0.3164 -0.3025 -1.0795
11494TIP3   OH255896   0.057   4.273   5.086 -0.4366 -0.4677  0.1288
11494TIP3    H155897   0.114   4.270   5.009  0.1894 -0.4384  0.5804
11494TIP3    H255898   0.089   4.203   5.143 -1.3765 -0.9848  0.0432
11495TIP3   OH255899   3.521   5.243   2.638  0.4741 -0.1919 -0.3887
11495TIP3    H155900   3.571   5.179   2.688 -1.4410 -0.2921  1.5812
11495TIP3    H255901   3.477   5.192   2.570 -0.8999 -1.0167  1.0532
11496TIP3   OH255902   5.441   5.533   0.803  0.0963 -0.6202  0.1499
11496TIP3    H155903   5.530   5.566   0.796 -0.1515 -0.2809 -2.4021
11496TIP3    H255904   5.451   5.442   0.830  1.1165 -0.2492  1.0794
11497TIP3   OH255905   5.737   5.895  10.310 -0.0992  0.3272  0.7628
11497TIP3    H155906   5.783   5.871  10.229  1.1977  0.1543  1.5308
11497TIP3    H255907   5.733   5.814  10.361 -0.5096  0.5372  1.0666
11498TIP3   OH255908   4.391   3.324  14.267  0.4396 -0.1572 -0.1134
11498TIP3    H155909   4.454   3.338  14.338 -1.4322 -0.0899  1.6383
11498TIP3    H255910   4.442   3.281  14.198  2.6971  1.1932  0.6165
11499TIP3   OH255911   5.323   6.808  16.871  0.2333 -0.1551 -0.3646
11499TIP3    H155912   5.308   6.894  16.831 -1.8320 -0.0898  0.4348
11499TIP3    H255913   5.283   6.746  16.810 -0.0577 -0.3437  0.0149
11500TIP3   OH255914   0.464   3.046   3.211  0.1210  0.3480  0.1112
11500TIP3    H155915   0.437   2.986   3.141 -2.2513  2.2767 -0.7581
11500TIP3    H255916   0.497   3.123   3.165 -1.3584  1.6035  1.0708
11501TIP3   OH255917   6.461   5.356  14.937 -0.1031  0.0164  0.3458
11501TIP3    H155918   6.546   5.393  14.962 -0.2323  1.4706 -1.1771
11501TIP3    H255919   6.477   5.316  14.851 -0.3473 -2.2286  1.2739
11502TIP3   OH255920   4.545   4.380  12.887  0.3099  0.1892  0.6898
11502TIP3    H155921   4.579   4.396  12.799 -1.3224  1.5102  0.2362
11502TIP3    H255922   4.623   4.380  12.943  1.2161  1.3180 -0.4999
11503TIP3   OH255923   4.674   0.796   2.432  0.1167  0.1360 -0.2282
11503TIP3    H155924   4.662   0.734   2.503  2.0688  1.1836  1.1156
11503TIP3    H255925   4.729   0.750   2.369 -4.0603 -1.9402 -2.7698
11504TIP3   OH255926   0.211   0.891  13.190  1.1014  0.1935 -0.1701
11504TIP3    H155927   0.205   0.799  13.162  0.2750  0.0948  0.3220
11504TIP3    H255928   0.164   0.940  13.122  0.8702  0.1757 -0.0201
11505TIP3   OH255929   0.905   3.798  16.963  0.4861  0.3248  0.4338
11505TIP3    H155930   0.857   3.771  16.885 -0.5453 -0.5012  1.3345
11505TIP3    H255931   0.997   3.778  16.942 -0.0155 -2.0557  0.2912
11506TIP3   OH255932   1.014   4.271  11.630 -0.1678 -0.2531 -0.3609
11506TIP3    H155933   1.021   4.362  11.603  0.9246 -0.4393 -0.7305
11506TIP3    H255934   1.062   4.222  11.563 -0.7915 -1.1099 -0.2011
11507TIP3   OH255935   4.112   2.269   4.199 -0.2179  0.4042 -0.0686
11507TIP3    H155936   4.109   2.259   4.104  1.0956  1.1221 -0.2074
11507TIP3    H255937   4.099   2.180   4.233  0.9140 -0.1341 -0.9702
11508TIP3   OH255938   2.695   4.919  15.491 -0.0812  0.1404  0.2753
11508TIP3    H155939   2.647   4.837  15.504  0.0211  0.1441  0.6935
11508TIP3    H255940   2.629   4.980  15.458 -0.1948 -0.0600  0.1198
11509TIP3   OH255941   2.178   1.825   1.849  0.9132 -0.4767  0.2848
11509TIP3    H155942   2.187   1.861   1.937  1.1257 -1.5393  0.7155
11509TIP3    H255943   2.086   1.840   1.826  2.0466  6.2963 -2.2895
11510TIP3   OH255944   1.400   1.008   2.633  0.1730 -0.3806 -0.2652
11510TIP3    H155945   1.436   1.058   2.560 -0.5453 -0.4027 -0.6353
11510TIP3    H255946   1.361   0.930   2.594  1.3350 -1.2882  0.3166
11511TIP3   OH255947   3.816   1.127   2.014 -0.7522  0.0080 -0.0775
11511TIP3    H155948   3.722   1.117   2.029 -1.1101 -1.9061 -2.7646
11511TIP3    H255949   3.853   1.042   2.037  0.1872  0.4692  0.1520
11512TIP3   OH255950   1.347   1.908  15.878  0.4172 -0.3665 -0.0399
11512TIP3    H155951   1.421   1.968  15.890 -0.2834  0.8979 -1.6457
11512TIP3    H255952   1.273   1.965  15.856 -1.3225 -1.5202  2.3943
11513TIP3   OH255953   3.568   4.509  11.563 -0.4433  0.1316 -0.5827
11513TIP3    H155954   3.570   4.500  11.658 -2.9022 -0.9374 -0.5443
11513TIP3    H255955   3.639   4.454  11.532  0.4390  0.5513  0.6313
11514TIP3   OH255956   6.314   2.306  13.021 -0.4394  0.0687  0.4511
11514TIP3    H155957   6.288   2.373  13.085  0.4409  0.7991  0.0705
11514TIP3    H255958   6.232   2.272  12.987 -0.9121  1.1479  0.4617
11515TIP3   OH255959   1.284   3.822  15.732 -0.5472  0.1867 -0.5988
11515TIP3    H155960   1.279   3.783  15.819 -0.2372  0.3433 -0.5067
11515TIP3    H255961   1.314   3.751  15.675  2.7695  0.8712  0.0316
11516TIP3   OH255962   0.029   3.595  16.580 -0.1312  0.5253  0.6229
11516TIP3    H155963  -0.019   3.651  16.518  2.2723  1.1345 -0.8391
11516TIP3    H255964   0.034   3.510  16.537  1.2546  0.8563  0.0851
11517TIP3   OH255965   6.512   0.993  15.079  0.4335 -0.0773  0.0312
11517TIP3    H155966   6.441   1.056  15.093 -1.3362 -1.6128 -1.3510
11517TIP3    H255967   6.592   1.042  15.095 -0.9308  1.8411  1.3363
11518TIP3   OH255968   3.127   3.827   3.370  0.6596  0.5628 -0.0818
11518TIP3    H155969   3.037   3.860   3.375  0.3231  0.0337 -1.9553
11518TIP3    H255970   3.118   3.733   3.358  1.5244  0.3248  0.9567
11519TIP3   OH255971   5.822   4.519  12.670  0.2357  0.0066 -0.2763
11519TIP3    H155972   5.757   4.580  12.637 -1.7109 -1.7895  0.0399
11519TIP3    H255973   5.849   4.469  12.594  1.3091  0.7470 -0.4076
11520TIP3   OH255974   5.983   3.772   6.146 -0.1197 -0.7498 -0.4710
11520TIP3    H155975   5.902   3.821   6.128  0.2840  0.4202  0.7081
11520TIP3    H255976   6.051   3.839   6.147  0.7159 -1.5861 -0.4611
11521TIP3   OH255977   3.402   0.880   5.354  0.0276 -0.9029  0.2042
11521TIP3    H155978   3.395   0.876   5.259  0.7333 -0.3088  0.1184
11521TIP3    H255979   3.312   0.895   5.384  0.0696  1.2912 -0.5279
11522TIP3   OH255980   1.762   3.944   4.497 -0.0893 -0.0568 -0.2518
11522TIP3    H155981   1.834   3.897   4.538 -0.6412  0.4583  1.3668
11522TIP3    H255982   1.719   3.879   4.442  0.6254 -0.7862  0.0410
11523TIP3   OH255983   4.206   0.844   2.771  0.4224  0.2573 -0.0581
11523TIP3    H155984   4.292   0.811   2.798 -0.6117 -1.7334  1.0364
11523TIP3    H255985   4.177   0.898   2.845  0.7479  0.9969 -0.4624
11524TIP3   OH255986   2.705   6.252  15.130  0.0471  0.6854 -0.2753
11524TIP3    H155987   2.621   6.250  15.084  1.0591  0.1321 -2.2131
11524TIP3    H255988   2.768   6.279  15.063  1.8145 -1.4891  0.4087
11525TIP3   OH255989   6.038   1.151  10.787 -0.1852  0.1398 -0.6929
11525TIP3    H155990   6.056   1.164  10.694  1.0901 -1.5501 -0.7312
11525TIP3    H255991   6.116   1.105  10.820  0.6301  3.0047  1.8181
11526TIP3   OH255992   4.752   6.243  15.566  0.3245 -0.1539 -0.7577
11526TIP3    H155993   4.845   6.239  15.545  0.0303 -2.3863 -1.9239
11526TIP3    H255994   4.747   6.210  15.656  0.8037  2.0211  0.1400
11527TIP3   OH255995   1.365   3.296   2.861  0.4405 -0.0249  0.5093
11527TIP3    H155996   1.427   3.340   2.918  1.0956 -0.7944  0.4130
11527TIP3    H255997   1.286   3.285   2.914 -0.0812  2.0102  0.2617
11528TIP3   OH255998   5.462   0.534   0.625  0.1741 -0.3363 -0.1773
11528TIP3    H155999   5.549   0.547   0.662  0.3266  0.7196 -0.8975
11528TIP3    H256000   5.464   0.576   0.540 -1.0634 -0.2286 -0.1814
11529TIP3   OH256001   0.944   4.056  11.252 -0.0400 -0.5950  0.8506
11529TIP3    H156002   0.996   4.024  11.178  1.7247 -0.2037  1.8783
11529TIP3    H256003   0.908   4.139  11.220 -0.1447 -0.9292  0.0732
11530TIP3   OH256004   6.237   4.848  12.306 -0.2148 -0.0150 -0.5367
11530TIP3    H156005   6.166   4.863  12.368 -0.2847  0.1016 -0.6453
11530TIP3    H256006   6.312   4.823  12.362 -0.6077 -1.1678 -0.4914
11531TIP3   OH256007   2.509   0.171  14.454 -0.0484  0.8856  0.2181
11531TIP3    H156008   2.564   0.092  14.453 -1.9815 -0.5478 -1.3187
11531TIP3    H256009   2.484   0.183  14.362 -2.8160  1.0687  0.9326
11532TIP3   OH256010   3.929   2.356  14.660  0.3312 -0.6389  0.1230
11532TIP3    H156011   3.966   2.439  14.687 -0.9625  0.0729 -0.1795
11532TIP3    H256012   3.989   2.289  14.694  3.3833  0.4565 -2.6032
11533TIP3   OH256013   4.733   4.171   0.734 -0.2481 -0.1213  0.0993
11533TIP3    H156014   4.716   4.203   0.823  1.4536 -0.1317  0.4689
11533TIP3    H256015   4.649   4.139   0.704 -0.6019 -1.4644  2.2694
11534TIP3   OH256016   2.538   2.366  13.906 -0.2566  0.2900 -0.3889
11534TIP3    H156017   2.474   2.312  13.953  0.7260 -0.4665  0.1208
11534TIP3    H256018   2.567   2.311  13.833  1.0557 -0.0747  0.3688
11535TIP3   OH256019   6.219   3.319  12.187 -0.3557  0.0221 -0.3316
11535TIP3    H156020   6.314   3.304  12.183 -0.6216 -1.5311 -2.4372
11535TIP3    H256021   6.195   3.293  12.276  1.1488  0.2945  0.1974
11536TIP3   OH256022   6.004   6.640   0.600  0.0591  0.3619 -0.5208
11536TIP3    H156023   6.044   6.580   0.664  0.4173  0.1676 -0.9233
11536TIP3    H256024   5.913   6.611   0.593  0.3700 -0.4895 -1.1294
11537TIP3   OH256025   0.340   0.280  10.747 -0.4071  0.0792 -0.3010
11537TIP3    H156026   0.245   0.283  10.762 -0.4369  0.8209 -0.5798
11537TIP3    H256027   0.378   0.313  10.829 -0.3678 -0.6683 -0.0144
11538TIP3   OH256028   1.091   6.758  15.704 -0.1388  0.0446  0.4839
11538TIP3    H156029   1.139   6.839  15.723 -0.2858 -0.3282  2.7070
11538TIP3    H256030   1.007   6.768  15.748 -0.5045 -0.9703  0.0568
11539TIP3   OH256031   3.548   2.281  12.217 -0.8116 -0.7324 -0.5272
11539TIP3    H156032   3.453   2.286  12.206 -0.7822 -0.2964 -0.5992
11539TIP3    H256033   3.583   2.347  12.157 -0.5111 -0.2595  0.1646
11540TIP3   OH256034   0.156   4.943   5.452 -0.3623 -0.3506  0.1765
11540TIP3    H156035   0.130   4.982   5.536 -2.4036  0.5440 -0.8004
11540TIP3    H256036   0.169   5.019   5.394 -1.7063 -0.9968 -1.0275
11541TIP3   OH256037   6.378   0.921   1.520 -0.3730  0.4452  0.3812
11541TIP3    H156038   6.405   0.884   1.436 -1.1986 -0.2229  0.3963
11541TIP3    H256039   6.385   1.015   1.508 -0.0214  0.3438 -0.2783
11542TIP3   OH256040   5.430   1.922  11.383 -0.4610  0.1953  0.2353
11542TIP3    H156041   5.402   1.977  11.309 -0.0424  2.4109  1.6480
11542TIP3    H256042   5.507   1.966  11.418  2.1648 -3.2246 -0.6603
11543TIP3   OH256043   3.644   3.250  11.901  0.0927 -0.3547 -0.1811
11543TIP3    H156044   3.609   3.300  11.827  1.3781  0.3403 -0.3483
11543TIP3    H256045   3.675   3.316  11.963  1.8344 -0.8992 -0.4178
11544TIP3   OH256046   2.175   6.341  12.894  0.0023  0.2952  0.1054
11544TIP3    H156047   2.193   6.248  12.899 -0.5901  0.1532 -0.2716
11544TIP3    H256048   2.090   6.347  12.850  0.2058  1.0236 -0.2133
11545TIP3   OH256049   1.965   5.408  12.181  0.3065  0.8180  0.0887
11545TIP3    H156050   2.015   5.483  12.147 -0.5700  1.2646 -0.2545
11545TIP3    H256051   2.030   5.340  12.195  0.8214  0.9205 -1.6610
11546TIP3   OH256052   5.291   0.337   0.063 -0.1390  0.1340  0.2508
11546TIP3    H156053   5.202   0.348   0.098 -0.7904 -0.7255 -1.0465
11546TIP3    H256054   5.315   0.247   0.085 -0.5827 -0.4432 -1.4486
11547TIP3   OH256055   3.838   5.077  13.888 -0.2937  0.5655  0.3123
11547TIP3    H156056   3.886   5.050  13.810 -0.7972  0.9399 -0.1310
11547TIP3    H256057   3.757   5.026  13.886 -0.7386  1.2528  0.0703
11548TIP3   OH256058   6.694   3.845  15.978  0.0976  0.3408  0.3153
11548TIP3    H156059   6.768   3.861  16.035 -0.3742  2.4275  0.4401
11548TIP3    H256060   6.732   3.805  15.900  1.0191 -0.6823  1.2630
11549TIP3   OH256061   2.850   3.997   0.566 -0.1150  0.1216 -0.2228
11549TIP3    H156062   2.915   3.947   0.615 -0.9401  0.1012  0.8925
11549TIP3    H256063   2.888   4.084   0.558  0.5353 -0.1842 -0.5901
11550TIP3   OH256064   5.562   4.393   0.330  0.5746  0.0804  0.6610
11550TIP3    H156065   5.520   4.359   0.251  1.2988 -0.3214  0.4381
11550TIP3    H256066   5.500   4.457   0.365 -0.7426 -1.3438  1.0069
11551TIP3   OH256067   3.237   0.192   0.756 -0.0719 -0.3778 -0.0638
11551TIP3    H156068   3.187   0.180   0.837  0.2104  1.1995  0.3918
11551TIP3    H256069   3.172   0.181   0.686 -0.2882 -1.9066  0.3375
11552TIP3   OH256070   4.611   3.343  13.583  0.4833 -0.0396 -0.0341
11552TIP3    H156071   4.674   3.335  13.511  1.1068 -0.6245  0.5549
11552TIP3    H256072   4.665   3.363  13.659 -0.2499  1.4145  0.1331
11553TIP3   OH256073   4.187   5.004   0.336  0.8349  0.3368  0.0882
11553TIP3    H156074   4.224   5.079   0.382 -0.6385  0.3886  1.2896
11553TIP3    H256075   4.259   4.941   0.331  1.7836  1.3889  0.0276
11554TIP3   OH256076   5.820   4.926   2.979  0.3305  0.0284  0.0010
11554TIP3    H156077   5.869   4.861   2.927  0.5746  0.6174 -0.5243
11554TIP3    H256078   5.742   4.944   2.927  0.2152  0.0831  0.1929
11555TIP3   OH256079   2.439   3.752   2.483 -0.4021  0.2995 -0.3533
11555TIP3    H156080   2.498   3.694   2.531 -0.9714 -2.5782 -2.8106
11555TIP3    H256081   2.494   3.827   2.457  1.4164 -0.8991 -0.1316
11556TIP3   OH256082   2.850   2.014   0.403  0.3182  0.2075 -0.7833
11556TIP3    H156083   2.891   1.986   0.485  0.5513  1.5306 -0.4207
11556TIP3    H256084   2.790   1.943   0.381 -1.6630  0.8371  1.9164
11557TIP3   OH256085   6.195   5.300   4.052  0.2829  0.6024  0.2808
11557TIP3    H156086   6.161   5.297   4.141 -0.6103  0.3396 -0.0535
11557TIP3    H256087   6.119   5.325   3.998  0.6835  0.2785 -0.4576
11558TIP3   OH256088   4.802   2.134  10.492 -0.1204 -0.1921  0.1654
11558TIP3    H156089   4.809   2.187  10.572 -2.2362  0.4009  0.0118
11558TIP3    H256090   4.721   2.163  10.451  0.1877 -1.5044 -1.4786
11559TIP3   OH256091   3.839   3.455  14.573  0.0918 -0.6367 -0.1265
11559TIP3    H156092   3.832   3.429  14.665 -1.2401 -1.2021 -0.3698
11559TIP3    H256093   3.823   3.550  14.574 -1.0726 -0.8185  0.1199
11560TIP3   OH256094   4.493   5.696   3.433 -0.2073 -0.0669 -0.1575
11560TIP3    H156095   4.406   5.695   3.392 -0.4649  0.3397  0.3608
11560TIP3    H256096   4.543   5.760   3.383 -1.1060  1.8600  1.2897
11561TIP3   OH256097   4.160   2.190  16.589 -0.2451 -0.4795 -0.7117
11561TIP3    H156098   4.153   2.191  16.494  0.7201  0.6215 -0.7811
11561TIP3    H256099   4.168   2.282  16.614  1.5746 -0.8548  0.2645
11562TIP3   OH256100   6.609   5.486   4.164 -0.7342 -0.3270 -0.0560
11562TIP3    H156101   6.566   5.429   4.228  1.0253  0.0088  1.5111
11562TIP3    H256102   6.619   5.570   4.210  2.0559 -0.5515 -0.0453
11563TIP3   OH256103   6.785   4.959   5.685 -0.0337 -0.0715  0.2354
11563TIP3    H156104   6.780   4.976   5.779 -1.2360  1.2155 -0.0212
11563TIP3    H256105   6.716   5.013   5.648  2.3934  1.8985 -1.7169
11564TIP3   OH256106   2.671   2.875   2.107  0.1305  0.0634 -0.0193
11564TIP3    H156107   2.592   2.849   2.060  1.3058  0.5703 -2.4314
11564TIP3    H256108   2.658   2.967   2.129  0.6134  0.6094 -1.8294
11565TIP3   OH256109   2.116   2.744  11.240 -0.0279  0.2369  0.4593
11565TIP3    H156110   2.098   2.837  11.257  2.5518  1.3246 -2.0043
11565TIP3    H256111   2.029   2.705  11.231 -1.2935  3.1348 -1.5781
11566TIP3   OH256112   4.258   3.563   4.908 -0.8773  0.1333 -0.1058
11566TIP3    H156113   4.235   3.474   4.881 -0.5154 -0.6865  2.0357
11566TIP3    H256114   4.321   3.551   4.980  0.0447  2.1542 -0.4845
11567TIP3   OH256115   5.510   4.515  16.179  0.5813  0.0900 -0.0810
11567TIP3    H156116   5.521   4.568  16.258 -0.2570 -0.0849  0.1589
11567TIP3    H256117   5.599   4.491  16.154  0.8605  0.1385  0.8187
11568TIP3   OH256118   1.191   5.394  16.471 -0.0148  0.0761  0.2543
11568TIP3    H156119   1.215   5.308  16.506  1.0849  1.0351  2.0040
11568TIP3    H256120   1.209   5.455  16.542 -1.9139  1.6492 -0.5073
11569TIP3   OH256121   2.135   5.428  15.533  0.9384 -0.1269  0.2191
11569TIP3    H156122   2.050   5.412  15.575  0.9237 -0.1248  0.1912
11569TIP3    H256123   2.166   5.341  15.508  1.9380 -0.3597  2.1227
11570TIP3   OH256124   0.948   1.656   4.088 -0.1081  0.0102 -0.1430
11570TIP3    H156125   0.860   1.681   4.116 -0.4881 -0.9468 -0.4556
11570TIP3    H256126   0.961   1.568   4.124  0.9853  0.3986  0.4638
11571TIP3   OH256127   4.833   5.027  15.224 -0.0783  0.0171  0.5351
11571TIP3    H156128   4.897   5.025  15.153 -0.1845  3.6952  0.1665
11571TIP3    H256129   4.749   5.010  15.181  0.1168 -0.1759  0.2244
11572TIP3   OH256130   3.479   2.037  13.314  0.0725 -0.0374 -0.3865
11572TIP3    H156131   3.568   2.023  13.346 -0.7367 -0.8961  1.6507
11572TIP3    H256132   3.443   2.104  13.372 -1.5663 -1.8901  0.8606
11573TIP3   OH256133   3.779   1.197   4.964 -0.0107  0.0374 -0.5203
11573TIP3    H156134   3.825   1.171   5.044 -0.1293  0.2953 -0.3658
11573TIP3    H256135   3.847   1.228   4.906  0.0935 -0.2880 -0.5744
11574TIP3   OH256136   1.002   3.664   5.107  0.5549 -0.3553  0.1189
11574TIP3    H156137   0.952   3.593   5.146  0.9703  0.2032  1.7901
11574TIP3    H256138   1.050   3.702   5.181  2.9227 -0.4346 -1.2456
11575TIP3   OH256139   6.268   0.037  13.672 -0.5881  0.3854  0.6784
11575TIP3    H156140   6.293  -0.055  13.660  1.0618  0.9426 -0.6706
11575TIP3    H256141   6.310   0.063  13.754  3.0209  1.0864 -1.1720
11576TIP3   OH256142   5.534   2.341   6.010 -0.1981 -0.1488 -0.1957
11576TIP3    H156143   5.474   2.414   6.023  0.9257  1.1411 -1.8475
11576TIP3    H256144   5.540   2.331   5.915  3.2306  0.7950 -0.2228
11577TIP3   OH256145   5.802   3.684  16.627  0.2091 -0.2270  0.2251
11577TIP3    H156146   5.743   3.752  16.659  1.2975  1.3573 -1.0087
11577TIP3    H256147   5.876   3.731  16.590  1.5426 -2.1293  0.3252
11578TIP3   OH256148   2.862   5.915   4.132 -0.1099 -0.0199 -0.2773
11578TIP3    H156149   2.795   5.877   4.188  0.2382  0.1567  0.2620
11578TIP3    H256150   2.830   6.004   4.113 -0.3577 -0.1718 -0.5854
11579TIP3   OH256151   5.708   1.811  11.074  0.1034  0.3809  0.1068
11579TIP3    H156152   5.662   1.729  11.058  0.8494  0.1755 -1.1067
11579TIP3    H256153   5.777   1.813  11.007  0.7313  1.5122  0.7668
11580TIP3   OH256154   2.239   6.353   1.398  0.2542 -0.6023  0.4439
11580TIP3    H156155   2.332   6.367   1.384  0.4251 -1.0751  1.0792
11580TIP3    H256156   2.221   6.266   1.362  0.1600 -0.7077  0.7365
11581TIP3   OH256157   4.158   1.636  14.591 -0.2624  0.7008  0.5337
11581TIP3    H156158   4.226   1.657  14.655  0.9061  0.3317 -0.5477
11581TIP3    H256159   4.201   1.577  14.529 -1.8786 -0.3926  0.4065
11582TIP3   OH256160   1.557   0.124  16.377 -0.5045 -0.4723  0.2984
11582TIP3    H156161   1.578   0.085  16.462 -0.0440 -2.2678 -0.5915
11582TIP3    H256162   1.472   0.166  16.390  0.2664  0.6623  2.0427
11583TIP3   OH256163   5.862   3.964  16.737  0.2177 -0.3573 -0.1961
11583TIP3    H156164   5.931   3.963  16.803  0.7222  1.6252 -0.6443
11583TIP3    H256165   5.909   3.964  16.653 -0.3490  0.1793 -0.5147
11584TIP3   OH256166   4.069   2.924   2.924  0.1799 -0.4293  0.2135
11584TIP3    H156167   4.089   2.986   2.853  0.0980 -0.7049 -0.0508
11584TIP3    H256168   4.037   2.980   2.995 -0.6275 -0.2307 -0.2933
11585TIP3   OH256169   4.557   5.197   3.468 -0.0090  0.1322 -0.2761
11585TIP3    H156170   4.601   5.194   3.553  0.7093 -0.2055 -0.6481
11585TIP3    H256171   4.532   5.288   3.456 -0.9739  0.0316  0.7131
11586TIP3   OH256172   6.151   2.161   4.564  0.1745 -0.0487  0.2499
11586TIP3    H156173   6.056   2.151   4.554  0.0237  0.7710  0.8293
11586TIP3    H256174   6.179   2.080   4.607 -0.0470 -0.9145 -1.1630
11587TIP3   OH256175   1.766   4.822  12.034  0.1696  0.1513  0.4306
11587TIP3    H156176   1.791   4.786  11.949 -1.0000  0.3911 -0.0417
11587TIP3    H256177   1.839   4.879  12.059  1.4761 -1.5250  0.6019
11588TIP3   OH256178   4.924   3.551  11.102  0.6742  0.3678  0.2498
11588TIP3    H156179   4.921   3.580  11.193  0.5633 -1.3935  0.8600
11588TIP3    H256180   4.865   3.475  11.099  3.2820 -1.8049 -0.4236
11589TIP3   OH256181   3.783   0.968   3.059 -0.1336 -0.6351 -0.6058
11589TIP3    H156182   3.700   0.999   3.095  0.4155 -0.1607  0.2894
11589TIP3    H256183   3.817   0.908   3.125  1.5500  1.2924  0.4035
11590TIP3   OH256184   1.885   1.547  16.818  0.6553 -0.5197  0.2892
11590TIP3    H156185   1.814   1.483  16.814 -0.5860  0.8478 -0.7714
11590TIP3    H256186   1.905   1.567  16.727  1.0440  0.5490  0.5884
11591TIP3   OH256187   2.038   1.748   0.692  0.8357 -0.1157 -0.0563
11591TIP3    H156188   1.991   1.700   0.760  1.5884 -0.0484  0.5286
11591TIP3    H256189   2.111   1.789   0.738  1.0982  0.3102 -0.8287
11592TIP3   OH256190   4.243   4.176  16.673 -0.3969 -0.1506  0.3061
11592TIP3    H156191   4.165   4.124  16.653  0.1413 -0.8294 -0.0691
11592TIP3    H256192   4.209   4.250  16.724 -1.3424 -0.1747 -0.2574
11593TIP3   OH256193   6.438   5.391   1.542 -0.5418 -0.1990  0.4045
11593TIP3    H156194   6.489   5.319   1.580 -2.7747 -1.3811  1.3784
11593TIP3    H256195   6.453   5.385   1.448 -0.2313 -1.5985  0.5248
11594TIP3   OH256196   5.360   6.096  12.764 -0.2598 -0.5070  0.0159
11594TIP3    H156197   5.386   6.160  12.831  0.3846 -1.8504  1.0986
11594TIP3    H256198   5.277   6.131  12.730  0.7003  1.5499 -0.3552
11595TIP3   OH256199   1.593   5.717  14.458  0.7927  0.1527 -0.0431
11595TIP3    H156200   1.680   5.740  14.491 -0.5232  2.7666  1.9799
11595TIP3    H256201   1.568   5.640  14.509  2.3598 -1.5046 -1.6211
11596TIP3   OH256202   1.381   5.972  12.742 -0.3929 -0.3112  0.3234
11596TIP3    H156203   1.292   5.942  12.726 -0.0814 -1.8838  1.2622
11596TIP3    H256204   1.399   6.035  12.672 -2.4688  0.5949  0.5551
11597TIP3   OH256205   1.789   2.722  12.141 -0.5568 -0.2908 -0.1040
11597TIP3    H156206   1.793   2.629  12.117 -0.3534  0.0669 -1.5581
11597TIP3    H256207   1.871   2.738  12.188 -0.7565 -0.9321  0.4628
11598TIP3   OH256208   6.232   5.630  15.199 -0.6818 -0.4553 -0.1442
11598TIP3    H156209   6.197   5.600  15.283  0.4578 -2.0191 -0.1594
11598TIP3    H256210   6.325   5.645  15.217 -0.9258  1.7859 -0.5251
11599TIP3   OH256211   5.705   5.470   6.315 -0.0504 -0.3545  0.2546
11599TIP3    H156212   5.683   5.407   6.247  1.2990  0.1691 -0.7062
11599TIP3    H256213   5.646   5.544   6.299  0.6249 -0.0031 -0.7227
11600TIP3   OH256214   2.726   3.524  10.991 -0.4676  0.9597  0.0128
11600TIP3    H156215   2.677   3.556  10.915  0.0034 -1.5567 -1.4554
11600TIP3    H256216   2.665   3.465  11.036  0.1210  0.3492  0.0295
11601TIP3   OH256217   1.544   1.979   3.913 -0.4650 -0.0307 -0.1605
11601TIP3    H156218   1.565   2.016   3.827  0.5530 -0.4509 -0.1118
11601TIP3    H256219   1.604   2.023   3.974  0.8406 -1.7498 -0.1153
11602TIP3   OH256220   4.507   0.922   4.534  0.1617 -0.2213 -0.2941
11602TIP3    H156221   4.439   0.927   4.467 -0.1112  0.6434  0.0306
11602TIP3    H256222   4.518   1.013   4.563 -0.1390 -0.6608  1.2377
11603TIP3   OH256223   6.584   0.271  14.511 -0.3802  0.0434 -0.2189
11603TIP3    H156224   6.503   0.229  14.537 -0.1506 -0.3265 -0.0960
11603TIP3    H256225   6.557   0.357  14.477 -0.7819  0.0793  0.1824
11604TIP3   OH256226   2.621   3.677  13.688  0.0619  0.3600  0.1363
11604TIP3    H156227   2.579   3.646  13.769 -1.1133  1.4344 -0.0293
11604TIP3    H256228   2.596   3.613  13.622 -2.1111  1.3963 -0.1414
11605TIP3   OH256229   0.858   3.166  16.784 -0.2799  0.4462  0.4121
11605TIP3    H156230   0.893   3.255  16.781 -0.2736  0.4293 -0.7608
11605TIP3    H256231   0.795   3.166  16.855  1.9148  0.5304  2.4642
11606TIP3   OH256232   2.753   3.205   4.592  0.7474  0.5891  0.3864
11606TIP3    H156233   2.722   3.256   4.517 -0.0519 -1.4265 -0.7204
11606TIP3    H256234   2.802   3.269   4.645 -0.4629  2.5623 -0.7255
11607TIP3   OH256235   3.103   3.526  10.310 -0.5466 -0.2758  0.7047
11607TIP3    H156236   3.063   3.461  10.368 -1.2901 -0.2847  0.1902
11607TIP3    H256237   3.194   3.496  10.299 -1.2842 -2.1372 -0.7887
11608TIP3   OH256238   1.179   4.926  11.686 -0.4944 -0.2046 -0.5719
11608TIP3    H156239   1.135   5.011  11.676  0.2339  0.2609  0.0506
11608TIP3    H256240   1.258   4.934  11.632 -1.0876 -0.9974 -1.6020
11609TIP3   OH256241   2.452   1.499  16.120  0.2985  0.3616 -0.5186
11609TIP3    H156242   2.360   1.473  16.130 -0.5650  2.1015 -2.9934
11609TIP3    H256243   2.494   1.470  16.201 -2.2749 -1.0820  0.4074
11610TIP3   OH256244   2.305   5.297  13.657 -0.2435  0.6400  0.1259
11610TIP3    H156245   2.221   5.270  13.695  0.1425  0.1972  0.6692
11610TIP3    H256246   2.300   5.393  13.654 -0.7067  0.6218  0.2919
11611TIP3   OH256247   2.736   5.434  13.255  0.1966  0.5115 -0.1316
11611TIP3    H156248   2.801   5.365  13.272  0.3642  0.4552 -0.9764
11611TIP3    H256249   2.776   5.488  13.187 -1.2995 -0.4794 -1.8949
11612TIP3   OH256250   0.031   2.638   4.338 -0.5898  0.8133 -0.4001
11612TIP3    H156251   0.096   2.684   4.286  1.5353 -3.4877 -2.0452
11612TIP3    H256252   0.066   2.639   4.427  0.2250  0.9804 -0.7134
11613TIP3   OH256253   5.683   0.801   6.057  0.1792 -0.2132 -0.4001
11613TIP3    H156254   5.636   0.724   6.025 -1.0313 -0.3283  1.5311
11613TIP3    H256255   5.712   0.776   6.145 -1.5638  2.0224  0.8991
11614TIP3   OH256256   1.902   4.887  16.230 -0.6451  0.3651  0.3677
11614TIP3    H156257   1.820   4.861  16.187  0.9005 -0.8739 -2.0358
11614TIP3    H256258   1.915   4.821  16.298 -0.1731 -1.3177 -1.2554
11615TIP3   OH256259   3.627   5.100   5.682 -0.6842 -0.1858 -0.1819
11615TIP3    H156260   3.681   5.052   5.745 -0.9875  0.3726  0.5206
11615TIP3    H256261   3.630   5.047   5.603  0.4911 -0.4237 -0.0082
11616TIP3   OH256262   6.673   2.539  14.290  0.1309 -0.3096  0.1681
11616TIP3    H156263   6.578   2.550  14.291  0.1902  0.3052 -0.4982
11616TIP3    H256264   6.686   2.445  14.280 -0.3978 -0.5248  1.3358
11617TIP3   OH256265   0.708   5.844   5.524  0.0698 -0.6762  0.2243
11617TIP3    H156266   0.729   5.764   5.572  0.1202  0.7957  2.8357
11617TIP3    H256267   0.789   5.866   5.478 -0.5390 -3.1368 -2.2719
11618TIP3   OH256268   5.480   1.934   5.902 -0.4426  0.2962  0.0653
11618TIP3    H156269   5.464   1.898   5.815 -2.3608 -0.7558  0.8011
11618TIP3    H256270   5.501   1.859   5.956 -2.5991  0.4424  1.2047
11619TIP3   OH256271   6.704   1.630  13.277  0.1585  0.1557 -0.0087
11619TIP3    H156272   6.714   1.695  13.348  1.1802 -0.2175  0.2078
11619TIP3    H256273   6.782   1.576  13.283  0.0264 -0.1874 -1.1325
11620TIP3   OH256274   4.191   4.686   0.174  0.3825  0.3648 -0.5741
11620TIP3    H156275   4.242   4.650   0.246  0.3003  1.1510 -0.1053
11620TIP3    H256276   4.251   4.745   0.128 -0.4193  2.4421  0.8510
11621TIP3   OH256277   4.575   3.981   4.919  0.2906  0.4706  0.6173
11621TIP3    H156278   4.482   3.989   4.941 -0.2233 -0.7885 -0.9037
11621TIP3    H256279   4.589   4.046   4.850  0.1354 -0.3296 -0.1970
11622TIP3   OH256280   4.557   1.823  14.005 -0.2125 -0.5158  0.3255
11622TIP3    H156281   4.609   1.745  13.988  0.7863  0.4603 -1.3317
11622TIP3    H256282   4.573   1.843  14.097  1.9535 -0.5668  0.0062
11623TIP3   OH256283   1.585   6.693  10.752  0.5591 -0.5368 -0.3079
11623TIP3    H156284   1.591   6.654  10.839 -2.1137  0.0038  0.2126
11623TIP3    H256285   1.664   6.663  10.706  1.8412 -1.1338  2.1479
11624TIP3   OH256286   2.231   6.387  11.676  0.4524  0.3853  0.7324
11624TIP3    H156287   2.265   6.299  11.660 -0.9519  0.0674 -0.6853
11624TIP3    H256288   2.144   6.388  11.636  1.0026  2.8619 -0.6857
11625TIP3   OH256289   2.588   5.916   5.600  0.2463 -0.2661  0.3049
11625TIP3    H156290   2.557   5.995   5.644 -0.1993 -0.2246 -0.0717
11625TIP3    H256291   2.519   5.896   5.537  0.2458 -1.0980  0.5641
11626TIP3   OH256292   2.680   4.472  13.888  0.2691  0.2728  0.3491
11626TIP3    H156293   2.623   4.398  13.869  0.3387 -0.3600  2.3105
11626TIP3    H256294   2.622   4.540  13.922  0.2665  0.9642 -0.9931
11627TIP3   OH256295   2.514   1.203  13.387  0.3685  0.5933 -0.8619
11627TIP3    H156296   2.534   1.110  13.373 -0.6822  0.3893 -1.0478
11627TIP3    H256297   2.451   1.204  13.459 -1.3971  0.9757 -2.3454
11628TIP3   OH256298   1.797   1.457   4.699 -0.1664 -0.0105  1.0453
11628TIP3    H156299   1.815   1.437   4.607 -0.5001  2.1403  0.4655
11628TIP3    H256300   1.859   1.526   4.722  0.0492 -0.6594  2.5174
11629TIP3   OH256301   1.414   3.303   5.589 -0.3758  0.2779  0.9236
11629TIP3    H156302   1.472   3.346   5.651 -0.5363 -0.0588  1.3113
11629TIP3    H256303   1.355   3.372   5.559 -1.3447  0.1218  2.3650
11630TIP3   OH256304   6.364   6.810   6.349  0.0866 -0.6026  0.1865
11630TIP3    H156305   6.341   6.717   6.339 -0.0951 -0.4979 -0.4497
11630TIP3    H256306   6.440   6.822   6.292 -0.6045 -0.1075 -0.6657
11631TIP3   OH256307   3.253   2.717   4.901 -0.1798 -0.1340 -0.3361
11631TIP3    H156308   3.243   2.663   4.980 -0.3681  1.6944  0.9518
11631TIP3    H256309   3.336   2.688   4.863  0.7751  0.0544  1.4679
11632TIP3   OH256310   6.548   4.669  11.724  0.0637 -0.0215  0.5032
11632TIP3    H156311   6.574   4.700  11.637  0.1994 -0.4509  0.3884
11632TIP3    H256312   6.629   4.636  11.763 -0.1311 -0.5041  0.5069
11633TIP3   OH256313   5.062   2.483  15.417 -0.1882 -0.3023  0.0075
11633TIP3    H156314   5.147   2.465  15.457 -0.1826 -0.3471 -0.0232
11633TIP3    H256315   5.050   2.577  15.428  0.4776 -0.0553 -1.1870
11634TIP3   OH256316   6.667   2.324  11.360 -0.0026 -0.2171  0.3550
11634TIP3    H156317   6.756   2.350  11.335 -0.0719 -1.4064 -1.3053
11634TIP3    H256318   6.639   2.391  11.422  2.7247 -0.8465  2.4385
11635TIP3   OH256319   0.309   3.741  11.285 -0.4700  0.2597  0.0066
11635TIP3    H156320   0.335   3.805  11.219  0.4299 -0.3887 -0.2939
11635TIP3    H256321   0.359   3.765  11.363  1.5944 -1.3200 -0.7336
11636TIP3   OH256322   5.005   5.891   4.071  0.0817  0.2975 -0.2611
11636TIP3    H156323   4.947   5.950   4.120 -0.9743  0.9853 -2.2171
11636TIP3    H256324   5.090   5.936   4.070 -0.2380  0.9137 -0.1899
11637TIP3   OH256325   5.573   4.362  15.110 -0.2034  0.1946  0.2899
11637TIP3    H156326   5.557   4.339  15.019  1.0379 -1.1439  0.3582
11637TIP3    H256327   5.620   4.445  15.106  2.5919 -1.2854 -0.5621
11638TIP3   OH256328   4.964   1.332   0.813 -0.0484  0.3817  0.6450
11638TIP3    H156329   5.007   1.334   0.899 -0.1308  2.3220  0.6861
11638TIP3    H256330   5.018   1.388   0.757  0.2262 -1.1827 -0.7080
11639TIP3   OH256331   0.507   3.890  11.907 -0.7107  0.1213  0.2590
11639TIP3    H156332   0.464   3.916  11.989  0.0805  1.6788  0.2076
11639TIP3    H256333   0.600   3.888  11.929 -0.5737 -0.4558 -0.3565
11640TIP3   OH256334   4.741   1.932  12.132 -0.4826  0.0279  0.4620
11640TIP3    H156335   4.748   1.890  12.218 -0.8328 -1.2992 -0.1275
11640TIP3    H256336   4.647   1.927  12.111 -0.0991 -2.2090 -1.1621
11641TIP3   OH256337   0.981   5.378  11.294  0.3776  0.2709  0.1192
11641TIP3    H156338   1.030   5.392  11.213  0.9999 -1.1121  0.2287
11641TIP3    H256339   0.889   5.376  11.268  0.4532  1.3999 -0.3033
11642TIP3   OH256340   6.318   3.157  13.804  0.2357  0.1281  0.7150
11642TIP3    H156341   6.336   3.251  13.807  0.5782  0.0468  2.1923
11642TIP3    H256342   6.255   3.142  13.875 -0.3816 -0.6539  0.0223
11643TIP3   OH256343   2.130   6.598   3.789 -0.7173  0.0144 -0.4839
11643TIP3    H156344   2.180   6.639   3.860  1.4657 -1.4549 -1.0609
11643TIP3    H256345   2.105   6.513   3.824 -0.7734 -0.1910 -1.0124
11644TIP3   OH256346   4.633   2.473  14.321 -0.0600  0.6817  0.0098
11644TIP3    H156347   4.597   2.392  14.285  0.6179  1.1051 -1.7095
11644TIP3    H256348   4.567   2.539  14.302  0.3818  0.9415 -0.6746
11645TIP3   OH256349   2.878   5.925  14.493  0.3189  0.2165 -0.0295
11645TIP3    H156350   2.792   5.964  14.508 -0.2399 -1.4988  1.6479
11645TIP3    H256351   2.868   5.877  14.411 -0.4015 -0.1093  0.2362
11646TIP3   OH256352   3.012   4.413   3.183 -0.6965  0.3948  0.2629
11646TIP3    H156353   3.101   4.411   3.147 -0.3172 -1.3843  1.1485
11646TIP3    H256354   2.970   4.488   3.141  0.5435  0.0139 -1.7843
11647TIP3   OH256355   4.898   6.739   1.416 -0.3702  0.0554  0.5034
11647TIP3    H156356   4.902   6.758   1.510  0.1412 -0.3499  0.5733
11647TIP3    H256357   4.863   6.650   1.411 -0.7296  0.2097  0.2923
11648TIP3   OH256358   3.368   0.955   6.029  0.1672  0.0421  0.1460
11648TIP3    H156359   3.345   0.991   6.114  0.8947  1.8253 -0.3637
11648TIP3    H256360   3.405   1.029   5.981  4.4156 -1.9013 -0.0277
11649TIP3   OH256361   5.030   2.486   1.502  0.1299 -0.0565  0.1258
11649TIP3    H156362   4.982   2.404   1.503  0.3597 -0.1905  0.3124
11649TIP3    H256363   5.002   2.530   1.583  0.0398  0.0302  0.0476
11650TIP3   OH256364   1.516   6.038  14.644 -0.5131 -0.1359  0.2739
11650TIP3    H156365   1.595   6.076  14.683  0.2008 -0.0462 -1.1964
11650TIP3    H256366   1.534   5.944  14.640  1.4870  0.2044 -4.0017
11651TIP3   OH256367   3.656   1.591   2.236 -0.1354  0.9499  1.0984
11651TIP3    H156368   3.604   1.656   2.188  0.9388  2.7218  2.2074
11651TIP3    H256369   3.645   1.615   2.328 -0.0495 -0.7431  1.5810
11652TIP3   OH256370   4.169   1.424   1.241 -0.0130 -0.6186 -0.3099
11652TIP3    H156371   4.204   1.393   1.158 -1.0781  0.3630 -1.1688
11652TIP3    H256372   4.094   1.367   1.259 -0.7611  0.1603 -0.8722
11653TIP3   OH256373   6.759   2.887   0.042 -0.0118  0.3441  0.5005
11653TIP3    H156374   6.780   2.967   0.090 -0.7110  1.0388 -0.3164
11653TIP3    H256375   6.727   2.917  -0.043  2.3364 -0.8335 -0.9352
11654TIP3   OH256376   5.688   5.803  11.934 -0.5208  0.3710 -0.3143
11654TIP3    H156377   5.758   5.771  11.877  1.0514 -0.8448  2.1279
11654TIP3    H256378   5.703   5.898  11.939  0.7614  0.1757 -0.1333
11655TIP3   OH256379   6.780   4.732  14.745  0.0908 -0.5910 -0.5264
11655TIP3    H156380   6.844   4.800  14.724  1.5277 -1.9242 -0.6606
11655TIP3    H256381   6.695   4.774  14.731  0.9285  0.8017 -1.7631
11656TIP3   OH256382   3.528   0.348  13.502  0.4494  0.0588 -0.1166
11656TIP3    H156383   3.458   0.324  13.443  0.4626  0.1945 -0.1886
11656TIP3    H256384   3.580   0.412  13.453 -0.6944  1.7525  0.7591
11657TIP3   OH256385   6.473   1.511  15.257 -0.0049  0.3109 -0.1879
11657TIP3    H156386   6.487   1.570  15.331  0.3957 -0.9387  0.7876
11657TIP3    H256387   6.540   1.443  15.268 -2.0037 -1.7123  0.2227
11658TIP3   OH256388   1.735   4.526  16.724 -0.4804 -0.0664 -0.3585
11658TIP3    H156389   1.640   4.521  16.711 -0.4168 -1.8857 -0.3354
11658TIP3    H256390   1.750   4.615  16.756 -2.0576  0.5527 -1.2094
11659TIP3   OH256391   0.294   2.679  11.643 -0.3167 -0.4922 -0.5673
11659TIP3    H156392   0.215   2.724  11.674 -0.2253 -0.4335 -0.4151
11659TIP3    H256393   0.298   2.600  11.696 -0.5887 -0.7830 -0.9771
11660TIP3   OH256394   6.181   0.316  17.075 -0.3485 -0.4836 -0.1114
11660TIP3    H156395   6.138   0.402  17.068  1.7458  0.8369  1.7628
11660TIP3    H256396   6.228   0.307  16.992 -0.8525  0.0291 -0.4644
11661TIP3   OH256397   0.465   4.919  12.948  0.1255  0.5974 -0.6807
11661TIP3    H156398   0.542   4.940  12.894  0.6502 -0.8669 -0.5426
11661TIP3    H256399   0.493   4.939  13.038  0.2967  0.2367 -0.6506
11662TIP3   OH256400   3.354   0.913  15.226  0.4184  0.2305  0.4684
11662TIP3    H156401   3.376   0.912  15.320 -4.6374  2.1630  2.0359
11662TIP3    H256402   3.303   0.833  15.213  0.0586  0.5780 -0.2855
11663TIP3   OH256403   4.879   4.005  13.851 -0.0046  0.5925  0.0362
11663TIP3    H156404   4.934   4.026  13.776  0.2045  0.4582  0.1507
11663TIP3    H256405   4.920   4.050  13.924  0.0608  0.3375  0.1571
11664TIP3   OH256406   0.832   4.622  15.245 -0.2492  1.1836  0.1485
11664TIP3    H156407   0.848   4.714  15.267  0.1933  1.1695 -0.0936
11664TIP3    H256408   0.920   4.583  15.244 -0.5237  0.4324  1.6627
11665TIP3   OH256409   0.251   1.704  16.018  0.1410 -0.0569 -0.5035
11665TIP3    H156410   0.158   1.727  16.021  0.4591  1.2349 -0.0711
11665TIP3    H256411   0.297   1.786  16.034  1.3862 -0.4766 -1.7242
11666TIP3   OH256412   6.114   2.738  10.457 -0.0076  0.0191  0.0203
11666TIP3    H156413   6.176   2.702  10.521  1.6344  2.8638  0.1614
11666TIP3    H256414   6.046   2.780  10.511 -0.4492 -0.4832 -0.1379
11667TIP3   OH256415   6.075   0.556  11.456 -0.2033  0.2777  0.0474
11667TIP3    H156416   6.031   0.577  11.373 -0.3744 -0.5782 -0.0896
11667TIP3    H256417   6.081   0.460  11.456 -0.2462  0.2664  1.0425
11668TIP3   OH256418   1.933   5.665   2.772  0.5693  0.1174  0.1707
11668TIP3    H156419   1.970   5.753   2.771  0.4226  0.1898  0.7292
11668TIP3    H256420   1.843   5.676   2.803 -0.2590  0.0442 -2.0759
11669TIP3   OH256421   2.335   3.492   6.701 -0.3529 -0.2469  0.3663
11669TIP3    H156422   2.294   3.474   6.615  0.3502 -1.4943  0.2691
11669TIP3    H256423   2.289   3.433   6.761  0.8822 -1.2741  0.3528
11670TIP3   OH256424   0.777   2.673   1.712 -0.1759 -0.2106 -0.4005
11670TIP3    H156425   0.720   2.649   1.639 -3.4154 -1.8155  2.3936
11670TIP3    H256426   0.840   2.601   1.717 -2.5921 -2.3977  0.8107
11671TIP3   OH256427   6.799   4.569  16.299 -0.2911 -0.1119 -0.1800
11671TIP3    H156428   6.888   4.561  16.266  0.5473  1.4839  1.5308
11671TIP3    H256429   6.782   4.487  16.345  0.7062 -0.0132  0.3910
11672TIP3   OH256430   4.933   3.153  14.653  0.1200  0.0017 -0.1179
11672TIP3    H156431   4.936   3.247  14.632  0.6798 -0.3436 -1.6963
11672TIP3    H256432   4.977   3.146  14.738  0.1952  1.1447 -0.0428
11673TIP3   OH256433   3.347   6.416  14.649 -0.2316  0.5374 -0.0712
11673TIP3    H156434   3.255   6.422  14.625 -0.0681 -0.0331 -0.8809
11673TIP3    H256435   3.368   6.502  14.687 -1.1827  0.5359  0.4783
11674TIP3   OH256436   2.359   0.061  15.158  0.0345 -0.3816 -0.3528
11674TIP3    H156437   2.397   0.144  15.189 -0.4306  0.3064 -1.5549
11674TIP3    H256438   2.276   0.053  15.205 -0.0789  0.0137 -0.4819
11675TIP3   OH256439   1.273   3.514  14.730  0.4190  0.1730 -0.2058
11675TIP3    H156440   1.198   3.531  14.672  1.1575  1.2671 -0.8760
11675TIP3    H256441   1.286   3.597  14.777  1.2705  0.0297 -0.1756
11676TIP3   OH256442   3.790   4.832   2.092  0.1091 -0.2446  0.7482
11676TIP3    H156443   3.797   4.901   2.158  1.9632 -0.7630  1.1613
11676TIP3    H256444   3.880   4.802   2.079 -0.3627 -0.9955 -1.1355
11677TIP3   OH256445   1.274   2.797   1.318  0.0349 -0.2262  0.2369
11677TIP3    H156446   1.301   2.887   1.299 -0.5401  0.2049  1.3844
11677TIP3    H256447   1.221   2.771   1.243 -0.1138  0.5321  0.0747
11678TIP3   OH256448   3.023   2.196  15.218 -0.3476 -0.0603  0.0884
11678TIP3    H156449   3.006   2.218  15.309 -0.5513  0.5007 -0.0790
11678TIP3    H256450   2.939   2.209  15.174 -0.2633 -0.3774 -0.1660
11679TIP3   OH256451   5.552   3.942   3.039  0.1295 -0.0876 -0.3607
11679TIP3    H156452   5.471   3.897   3.012 -0.3691  0.4143  0.2582
11679TIP3    H256453   5.524   4.032   3.058  0.7111 -0.0737  0.4861
11680TIP3   OH256454   5.402   4.723   5.787 -0.1639  0.8679 -0.1900
11680TIP3    H156455   5.323   4.739   5.839 -0.9366 -1.3718 -0.5333
11680TIP3    H256456   5.454   4.663   5.841  1.0651  1.9000 -0.2038
11681TIP3   OH256457   2.165   5.261   0.465  0.6753  0.7249  0.5821
11681TIP3    H156458   2.258   5.254   0.488  1.1113 -0.2111 -1.2880
11681TIP3    H256459   2.140   5.174   0.435 -0.6950  1.0696  0.6366
11682TIP3   OH256460   3.797   2.019   5.530 -0.4949 -0.3582 -0.0387
11682TIP3    H156461   3.715   2.024   5.481 -0.8713  1.2334  0.6862
11682TIP3    H256462   3.813   2.108   5.560  1.3956 -0.6741  0.0459
11683TIP3   OH256463   0.186   0.161   3.789 -0.2921  0.3141  0.2112
11683TIP3    H156464   0.261   0.102   3.793 -0.9646 -0.4883  2.3533
11683TIP3    H256465   0.110   0.103   3.778 -0.7522  0.9585 -0.0777
11684TIP3   OH256466   3.496   0.973  13.020 -0.3200  0.0674 -0.4096
11684TIP3    H156467   3.502   1.027  13.099  0.2028 -0.9817  0.2948
11684TIP3    H256468   3.539   1.025  12.952  1.4291 -0.0057  0.5734
11685TIP3   OH256469   1.596   4.895   0.916 -0.1698  0.1427  0.2344
11685TIP3    H156470   1.534   4.953   0.960 -0.3768  0.0437  0.0793
11685TIP3    H256471   1.598   4.926   0.826 -1.2916 -0.8872 -0.1805
11686TIP3   OH256472   2.739   5.041   4.952  0.0837 -0.5956 -0.7230
11686TIP3    H156473   2.655   4.999   4.969 -0.1788  0.7927  1.9949
11686TIP3    H256474   2.716   5.134   4.941  0.9901 -0.6031 -3.0502
11687TIP3   OH256475   1.344   0.764  11.759  0.3121 -0.9629 -0.4947
11687TIP3    H156476   1.285   0.823  11.805 -0.0346 -1.2395 -0.5752
11687TIP3    H256477   1.432   0.791  11.786  0.2485  0.5252 -1.6426
11688TIP3   OH256478   3.859   6.580  14.794  0.4149  0.8701 -0.4049
11688TIP3    H156479   3.776   6.624  14.776 -0.0006  0.1188 -0.3434
11688TIP3    H256480   3.845   6.534  14.876  1.1491  1.3607  0.0044
11689TIP3   OH256481   0.535   5.624  14.041 -0.1286 -0.1767 -0.0407
11689TIP3    H156482   0.488   5.592  14.117  0.1582 -0.6927 -0.0716
11689TIP3    H256483   0.468   5.635  13.973 -0.3944  0.3520  0.2973
11690TIP3   OH256484   2.207   6.365  16.801  0.5766 -0.3590 -0.1584
11690TIP3    H156485   2.298   6.389  16.818  0.8451 -2.0285  1.0294
11690TIP3    H256486   2.199   6.366  16.706  2.0593 -0.9279 -0.3115
11691TIP3   OH256487   6.124   1.552   0.154 -0.2639  0.1056  0.2959
11691TIP3    H156488   6.198   1.508   0.114 -1.4123 -1.8290  0.1716
11691TIP3    H256489   6.127   1.527   0.246 -0.8433 -0.1224  0.2590
11692TIP3   OH256490   1.493   4.961  11.981 -0.6180  0.2070  0.0614
11692TIP3    H156491   1.494   4.938  11.888  0.8422 -0.2141  0.1483
11692TIP3    H256492   1.579   4.933  12.013 -0.6987  1.2954  1.3126
11693TIP3   OH256493   4.234   3.032   0.725  0.2252  0.2139  0.4447
11693TIP3    H156494   4.173   3.106   0.719  0.9202  0.8046  0.5308
11693TIP3    H256495   4.184   2.962   0.766 -0.6372  0.4267 -0.2180
11694TIP3   OH256496   1.874   5.511   0.907  0.1539  0.3090 -0.2531
11694TIP3    H156497   1.877   5.538   0.815 -0.9851 -0.7752 -0.6410
11694TIP3    H256498   1.792   5.460   0.914 -0.4598  1.4705  1.6653
11695TIP3   OH256499   4.907   3.297  15.791 -0.0997 -0.1353  0.3476
11695TIP3    H156500   4.958   3.364  15.837  2.1805 -0.0921 -1.9778
11695TIP3    H256501   4.951   3.288  15.706 -1.5863 -3.1116 -0.2435
11696TIP3   OH256502   2.097   0.181   4.996  0.4571 -0.9140  0.3643
11696TIP3    H156503   2.140   0.266   5.004 -1.5721  0.2305 -0.2814
11696TIP3    H256504   2.065   0.161   5.084  0.7262 -0.9107  0.4636
11697TIP3   OH256505   2.649   3.924  15.563 -0.1074  0.2893 -0.1321
11697TIP3    H156506   2.554   3.912  15.555 -0.0029 -2.0184  1.2307
11697TIP3    H256507   2.658   3.999  15.623 -0.9820  2.0521 -2.0819
11698TIP3   OH256508   4.844   1.860  16.851  0.0407 -0.0852 -0.4191
11698TIP3    H156509   4.926   1.816  16.871  0.4127  0.9814  0.5149
11698TIP3    H256510   4.835   1.853  16.756  0.1040 -2.0662 -0.3212
11699TIP3   OH256511   3.028   0.299  11.240 -0.3626 -0.3234 -0.1645
11699TIP3    H156512   3.027   0.302  11.145  0.6255 -1.0015 -0.2089
11699TIP3    H256513   2.987   0.215  11.262  0.1652 -0.5557 -0.0338
11700TIP3   OH256514   2.532   5.891  11.984  0.3892 -0.3587  0.0279
11700TIP3    H156515   2.517   5.888  12.078 -0.6268 -1.0894 -0.1382
11700TIP3    H256516   2.517   5.802  11.954 -0.0494  0.0208 -0.9314
11701TIP3   OH256517   6.009   4.434  13.434  0.1895 -0.2751  0.2850
11701TIP3    H156518   6.010   4.343  13.462  0.4880 -0.7481 -1.1755
11701TIP3    H256519   5.949   4.436  13.360 -0.0414  0.7855  0.4741
11702TIP3   OH256520   0.287   0.445  15.861 -0.1495  0.6605 -0.0209
11702TIP3    H156521   0.204   0.401  15.847  0.4938 -0.8207  0.6479
11702TIP3    H256522   0.266   0.521  15.916 -1.0179  0.1180  0.4057
11703TIP3   OH256523   0.736   2.262  13.018  0.1730  0.3785  0.4725
11703TIP3    H156524   0.718   2.348  12.979  1.6868  0.7899  0.6286
11703TIP3    H256525   0.815   2.232  12.973 -1.0073 -1.4996 -0.4527
11704TIP3   OH256526   3.841   6.473   2.282  0.4864 -0.3112 -0.3151
11704TIP3    H156527   3.765   6.510   2.328 -1.4525  0.5338 -3.7906
11704TIP3    H256528   3.839   6.380   2.304 -0.0651  0.0959  1.5447
11705TIP3   OH256529   4.118   1.462  13.867 -0.1717 -0.1040  0.3501
11705TIP3    H156530   4.059   1.537  13.866  0.9559  0.8139 -0.2676
11705TIP3    H256531   4.076   1.397  13.811 -0.9461  0.2403  0.5273
11706TIP3   OH256532   0.863   3.355   3.252 -0.4849 -0.1254  0.8279
11706TIP3    H156533   0.839   3.333   3.162  0.9913 -0.8284  0.5733
11706TIP3    H256534   0.832   3.280   3.303  3.4050 -2.4785  0.1251
11707TIP3   OH256535   0.587   3.735   1.305 -0.1895  0.1805  0.2961
11707TIP3    H156536   0.541   3.797   1.361 -0.6408  0.0756  0.0509
11707TIP3    H256537   0.645   3.790   1.251 -2.2775  0.7046 -1.5857
11708TIP3   OH256538   2.797   0.300  11.850 -0.4031 -0.4099 -0.5477
11708TIP3    H156539   2.716   0.273  11.807  0.6181  0.5585 -3.2572
11708TIP3    H256540   2.864   0.240  11.817  0.0036 -1.5317  2.0394
11709TIP3   OH256541   0.909   5.707   3.687  0.5704  0.2562 -0.2735
11709TIP3    H156542   0.931   5.641   3.621  2.2754 -2.3668  2.6299
11709TIP3    H256543   0.906   5.790   3.639  2.1561 -1.3940 -3.5007
11710TIP3   OH256544   2.533   4.660  16.478  0.4451  0.3171 -0.0636
11710TIP3    H156545   2.586   4.622  16.409 -0.5841 -1.4212  0.0451
11710TIP3    H256546   2.446   4.623  16.464  0.5316 -1.3713  3.0564
11711TIP3   OH256547   1.813   2.303  12.167  0.1323  0.1476  0.2089
11711TIP3    H156548   1.732   2.257  12.146  0.8404 -1.9167  1.6833
11711TIP3    H256549   1.826   2.288  12.261  1.7653  1.1737  0.1871
11712TIP3   OH256550   5.598   2.684  12.566 -0.0394 -0.4539  0.6595
11712TIP3    H156551   5.521   2.628  12.571  0.2339 -0.7507  1.6772
11712TIP3    H256552   5.670   2.630  12.598  0.7967 -0.4932 -1.1554
11713TIP3   OH256553   1.455   0.194   2.149 -0.3718  0.6098 -0.0736
11713TIP3    H156554   1.415   0.110   2.129  1.4313 -0.0331 -1.2229
11713TIP3    H256555   1.400   0.231   2.218  0.2057 -2.6663  2.4020
11714TIP3   OH256556   2.621   2.631  13.309  0.3360  0.1612  0.5075
11714TIP3    H156557   2.655   2.608  13.222  1.9622  0.0115  1.1484
11714TIP3    H256558   2.527   2.616  13.303  0.3859  0.3607 -1.2915
11715TIP3   OH256559   0.405   0.315   2.949 -0.0014  0.8470 -0.1659
11715TIP3    H156560   0.400   0.296   3.043 -0.8630  0.4318 -0.2811
11715TIP3    H256561   0.375   0.406   2.942 -0.6509  0.6453 -0.1049
11716TIP3   OH256562   1.514   5.844  16.679 -0.1443 -0.5607 -0.1162
11716TIP3    H156563   1.502   5.939  16.671  1.2431 -0.3602  0.0641
11716TIP3    H256564   1.518   5.812  16.589  0.7985 -0.2582 -0.1826
11717TIP3   OH256565   2.011   1.582  11.459 -0.5024 -0.2309 -0.0871
11717TIP3    H156566   2.053   1.565  11.374 -1.3590 -0.4291 -0.4775
11717TIP3    H256567   2.049   1.665  11.488 -0.8868  0.3233 -1.1095
11718TIP3   OH256568   5.751   4.216  13.645 -0.0968  0.2382 -0.2077
11718TIP3    H156569   5.814   4.160  13.599  1.1739  1.5007 -0.0564
11718TIP3    H256570   5.804   4.286  13.683 -1.5627  1.1870  0.1679
11719TIP3   OH256571   1.636   5.721   2.166  0.0233  0.2668 -0.3441
11719TIP3    H156572   1.711   5.705   2.110  0.3411 -1.8047  0.5902
11719TIP3    H256573   1.589   5.792   2.123  2.2993  1.3897 -1.1332
11720TIP3   OH256574   5.168   1.522  15.066 -0.1508 -0.2754 -0.0427
11720TIP3    H156575   5.228   1.504  14.994  0.3424 -0.3867  0.3904
11720TIP3    H256576   5.144   1.614  15.054 -1.5697 -0.7707 -1.4364
11721TIP3   OH256577   0.680   6.089   0.734  0.4621 -0.4983 -0.2932
11721TIP3    H156578   0.623   6.117   0.663  2.1923 -0.8204 -1.8947
11721TIP3    H256579   0.763   6.067   0.691  2.4736  1.7968  2.0979
11722TIP3   OH256580   0.696   0.796   5.720 -0.2822  0.7710 -0.0931
11722TIP3    H156581   0.614   0.760   5.754  0.8319 -0.1720  1.7484
11722TIP3    H256582   0.760   0.778   5.788  1.6699  0.6796 -1.8537
11723TIP3   OH256583   1.237   0.591  11.016 -0.1572 -0.1871 -0.2721
11723TIP3    H156584   1.203   0.526  10.954  0.0514 -2.5594  1.9267
11723TIP3    H256585   1.331   0.591  11.002 -0.1271 -0.6071 -0.0898
11724TIP3   OH256586   1.647   2.981  11.414 -0.8793 -0.2124  0.0521
11724TIP3    H156587   1.726   2.936  11.443 -1.1752  0.1591  1.5120
11724TIP3    H256588   1.588   2.977  11.489 -1.7796  0.6083 -0.5809
11725TIP3   OH256589   0.214   0.839   3.802  0.8784 -0.1805 -0.3176
11725TIP3    H156590   0.241   0.785   3.876  0.1634 -0.7989 -0.4852
11725TIP3    H256591   0.217   0.779   3.727  0.3170  0.0754 -0.5506
11726TIP3   OH256592   5.893   2.895  13.346  0.3377 -0.3372 -0.7556
11726TIP3    H156593   5.974   2.911  13.298  0.4873 -1.2193 -0.8100
11726TIP3    H256594   5.905   2.809  13.386 -0.8240 -0.7913 -1.3163
11727TIP3   OH256595   2.590   1.801  12.367  0.0177  0.2400 -0.1156
11727TIP3    H156596   2.516   1.783  12.309  0.4326 -0.0649 -0.5536
11727TIP3    H256597   2.667   1.778  12.316  0.3927 -0.0190  0.5502
11728TIP3   OH256598   5.779   0.300  16.623  0.5197  0.3158  0.2143
11728TIP3    H156599   5.872   0.316  16.607  0.7709 -1.5186 -0.4620
11728TIP3    H256600   5.770   0.296  16.718  0.6220  2.9561  0.3986
11729TIP3   OH256601   3.684   5.623   0.531  0.1070  0.3544  0.1831
11729TIP3    H156602   3.760   5.678   0.552  0.4406  0.8015 -1.9274
11729TIP3    H256603   3.679   5.560   0.602  2.5759  0.2004  0.3013
11730TIP3   OH256604   4.572   2.843   4.541 -0.3356 -0.1469  0.2166
11730TIP3    H156605   4.516   2.780   4.587 -1.7168  1.1778  0.4436
11730TIP3    H256606   4.602   2.796   4.464  0.0931 -1.6423  1.2418
11731TIP3   OH256607   0.074   3.687  11.086 -0.4209 -0.0204 -0.0820
11731TIP3    H156608  -0.005   3.731  11.056 -0.6393 -0.0526  0.4347
11731TIP3    H256609   0.116   3.657  11.006  0.7742  2.8300 -0.6636
11732TIP3   OH256610   1.328   6.481  16.365 -0.2654  0.5603  0.1308
11732TIP3    H156611   1.360   6.565  16.331 -1.0586  1.0200  0.4738
11732TIP3    H256612   1.397   6.451  16.423  1.3590 -0.5006 -2.2020
11733TIP3   OH256613   1.240   5.933   3.040  0.4239  0.1690 -0.0333
11733TIP3    H156614   1.198   5.889   3.113  1.8148 -0.1084  0.6282
11733TIP3    H256615   1.227   6.027   3.058  0.1577  0.0850  0.2092
11734TIP3   OH256616   4.952   1.722  11.096  0.2849 -0.0015  0.0473
11734TIP3    H156617   5.023   1.767  11.049 -0.3168  1.8876  0.8446
11734TIP3    H256618   4.992   1.640  11.126  1.2574 -0.3411 -1.9880
11735TIP3   OH256619   1.497   2.294   0.352 -0.2352  0.3916 -0.2091
11735TIP3    H156620   1.553   2.325   0.423  0.1934 -0.0898 -0.3293
11735TIP3    H256621   1.533   2.336   0.274 -0.4549  0.5999 -0.2005
11736TIP3   OH256622   0.621   6.485   0.855 -0.0023  0.3219  0.4362
11736TIP3    H156623   0.605   6.578   0.873  0.3043  0.3805  0.4089
11736TIP3    H256624   0.714   6.472   0.876 -0.1360 -0.0630  0.7963
11737TIP3   OH256625   3.008   5.181   1.753  0.4488  0.0730 -0.1977
11737TIP3    H156626   3.022   5.195   1.847 -2.1915 -1.6072  0.5775
11737TIP3    H256627   3.009   5.086   1.744 -2.8146  0.0064 -1.1161
11738TIP3   OH256628   4.230   2.312   3.313 -0.2524  0.3511 -0.0607
11738TIP3    H156629   4.211   2.246   3.379  1.8438  0.7910  1.0607
11738TIP3    H256630   4.183   2.390   3.343 -0.6186  0.1122  0.0045
11739TIP3   OH256631   3.190   5.940   0.153  0.8637  0.4829  0.3660
11739TIP3    H156632   3.141   5.931   0.234  1.4607  1.0012  0.8008
11739TIP3    H256633   3.192   5.853   0.115 -2.1754  0.7878 -0.7438
11740TIP3   OH256634   5.430   6.084   0.051 -0.4874  0.4513 -0.0138
11740TIP3    H156635   5.358   6.023   0.066  1.3744 -1.7182  0.7196
11740TIP3    H256636   5.450   6.120   0.137 -0.9409  1.3696 -0.2825
11741TIP3   OH256637   3.384   1.835   1.055 -0.3776  0.1524 -0.3223
11741TIP3    H156638   3.452   1.773   1.030  0.6636  1.4693 -0.8611
11741TIP3    H256639   3.309   1.812   1.000 -0.3512 -1.2096  0.1657
11742TIP3   OH256640   1.901   2.449   0.086  0.0268 -0.6450  0.5526
11742TIP3    H156641   1.855   2.509   0.027  2.9990  1.2604 -0.0200
11742TIP3    H256642   1.958   2.398   0.028  0.8955 -0.7601  1.4853
11743TIP3   OH256643   5.229   5.546  16.235  0.3263 -0.4275  0.0304
11743TIP3    H156644   5.172   5.566  16.309  0.7491 -0.4784  0.3759
11743TIP3    H256645   5.278   5.627  16.220  1.6175 -0.9892  1.0471
11744TIP3   OH256646   1.044   1.809  13.118 -0.0012 -0.4669 -0.1158
11744TIP3    H156647   1.104   1.852  13.056 -0.3610 -0.2913 -0.3465
11744TIP3    H256648   1.077   1.835  13.204 -1.4984  2.1632 -0.2343
11745TIP3   OH256649   6.015   2.916  14.492 -0.1962 -0.2393  0.4029
11745TIP3    H156650   5.940   2.969  14.463  0.2305 -1.2120 -2.8979
11745TIP3    H256651   5.975   2.839  14.532 -0.9184  0.2163  0.5847
11746TIP3   OH256652   0.172   1.642  11.668  0.4224 -0.2002  0.5655
11746TIP3    H156653   0.121   1.723  11.669 -1.8323 -1.5294  0.5157
11746TIP3    H256654   0.124   1.583  11.726  2.1392 -1.4516  0.7909
11747TIP3   OH256655   2.624   6.118   3.002 -0.0193  0.0914  0.0527
11747TIP3    H156656   2.691   6.087   2.941 -0.0997  1.5215 -0.7983
11747TIP3    H256657   2.659   6.093   3.088  0.5997 -1.0139 -0.4863
11748TIP3   OH256658   0.287   3.693  12.100  0.2803  0.1442  0.1224
11748TIP3    H156659   0.281   3.674  12.006  1.0617 -0.4361  0.1789
11748TIP3    H256660   0.324   3.781  12.105  1.8766 -0.4773 -0.1232
11749TIP3   OH256661   0.558   4.909  11.035  1.0249  0.2971 -0.0581
11749TIP3    H156662   0.563   4.887  10.942  1.4380 -0.5385  0.1546
11749TIP3    H256663   0.497   4.845  11.071  0.4748  0.9336  0.1633
11750TIP3   OH256664   5.766   1.632  14.873 -0.7914 -0.1119  0.5004
11750TIP3    H156665   5.771   1.691  14.798 -0.7077  1.0258  1.3809
11750TIP3    H256666   5.800   1.683  14.946 -0.5647 -1.3122  1.2601
11751TIP3   OH256667   3.752   4.681  14.407 -0.1616  0.4228  0.2924
11751TIP3    H156668   3.738   4.731  14.488 -0.0254  0.2481  0.4245
11751TIP3    H256669   3.762   4.747  14.339 -0.4769  0.5697  0.3865
11752TIP3   OH256670   0.054   2.676   5.713  0.1892 -0.0021 -0.0823
11752TIP3    H156671   0.043   2.594   5.761 -0.2768  0.7146  1.0518
11752TIP3    H256672  -0.029   2.723   5.724  0.3858  0.5604 -0.8621
11753TIP3   OH256673   3.028   6.335   0.231  0.2329 -0.9552  0.0965
11753TIP3    H156674   2.977   6.377   0.299  2.5213  2.4520 -0.0283
11753TIP3    H256675   3.072   6.263   0.275 -1.2187 -1.1972  1.2303
11754TIP3   OH256676   0.174   3.397  11.304  0.6198 -0.5518 -0.0667
11754TIP3    H156677   0.162   3.441  11.219 -1.6839 -0.4115  0.2784
11754TIP3    H256678   0.156   3.304  11.285  1.0209 -0.6697  0.1108
11755TIP3   OH256679   3.366   2.807   6.015  0.2524 -0.1696  0.2169
11755TIP3    H156680   3.294   2.870   6.022  0.2424 -0.1110 -0.3664
11755TIP3    H256681   3.389   2.788   6.106  1.2795  1.8526  0.4429
11756TIP3   OH256682   4.989   0.668  16.423 -0.3538  0.5597 -0.2849
11756TIP3    H156683   4.904   0.683  16.382  0.1350  0.3363 -1.4113
11756TIP3    H256684   5.048   0.646  16.350  0.7657  1.1225  0.4154
11757TIP3   OH256685   5.145   2.947   0.284  0.3206 -0.5339 -0.0614
11757TIP3    H156686   5.224   2.928   0.232 -0.6023  0.2179 -1.8299
11757TIP3    H256687   5.174   2.939   0.375  3.1065  2.0020 -0.5257
11758TIP3   OH256688   2.830   6.538  10.358 -0.2770  0.4805 -0.4766
11758TIP3    H156689   2.747   6.558  10.314 -0.9751  2.4080  1.5268
11758TIP3    H256690   2.816   6.564  10.449  2.2912  0.1269  0.1009
11759TIP3   OH256691   4.159   2.697  13.583 -0.1892  0.2711  0.3842
11759TIP3    H156692   4.197   2.732  13.503 -0.0121  1.1296  0.8282
11759TIP3    H256693   4.151   2.603  13.567  2.5171 -0.0478  0.3986
11760TIP3   OH256694   4.366   6.556  13.402  0.0464  0.2687  0.5108
11760TIP3    H156695   4.441   6.563  13.343 -1.1497 -1.9808 -1.5072
11760TIP3    H256696   4.383   6.477  13.453 -0.2305  0.6195  1.1499
11761TIP3   OH256697   0.816   4.726  11.350 -0.4168 -0.7647 -0.2185
11761TIP3    H156698   0.889   4.755  11.404 -0.6779 -0.1162 -0.2127
11761TIP3    H256699   0.790   4.803  11.300 -1.2693 -0.9167 -0.0207
11762TIP3   OH256700   5.393   1.791  13.348  0.0405 -0.1502 -0.0689
11762TIP3    H156701   5.405   1.711  13.399 -1.3419  0.4858  1.3519
11762TIP3    H256702   5.327   1.840  13.396  0.6751  1.7530 -1.0357
11763TIP3   OH256703   3.149   3.195  11.692 -0.0546 -0.0911 -0.3699
11763TIP3    H156704   3.131   3.285  11.664  0.2347 -0.1515 -0.7692
11763TIP3    H256705   3.065   3.150  11.682  0.0089 -0.0776 -1.0442
11764TIP3   OH256706   5.611   1.464  12.169  0.1967  0.1981 -0.5347
11764TIP3    H156707   5.655   1.545  12.145  0.0830  0.1562 -0.8898
11764TIP3    H256708   5.682   1.407  12.200  0.1994  0.6290  0.2690
11765TIP3   OH256709   3.731   2.104   4.147  0.1750 -0.4353 -0.0762
11765TIP3    H156710   3.692   2.042   4.209 -0.7693  1.1594  1.0225
11765TIP3    H256711   3.820   2.072   4.134  0.5404 -0.6559  2.4216
11766TIP3   OH256712   6.113   0.059   6.455 -0.3888 -0.3018 -0.1196
11766TIP3    H156713   6.094   0.004   6.531  1.5435  0.8214  1.2454
11766TIP3    H256714   6.207   0.053   6.443 -0.3401  1.4461 -0.9315
11767TIP3   OH256715   4.779   0.283  13.529 -0.1682  0.8366 -0.6009
11767TIP3    H156716   4.733   0.315  13.607  0.5005  0.5772 -0.0923
11767TIP3    H256717   4.736   0.327  13.456 -0.9912  0.8742 -0.1083
11768TIP3   OH256718   3.383   0.063  16.661  0.0519  0.8537 -0.1757
11768TIP3    H156719   3.405  -0.007  16.599 -0.2177 -1.5680  2.2907
11768TIP3    H256720   3.297   0.040  16.694  0.5016  1.6260  1.6477
11769TIP3   OH256721   2.235   3.791  13.618  0.3499 -0.1312 -0.5321
11769TIP3    H156722   2.274   3.839  13.545  0.6840 -1.3326 -1.1812
11769TIP3    H256723   2.142   3.813  13.615  1.0256  4.4542  2.3040
11770TIP3   OH256724   3.353   2.302   5.373  0.4828  0.0588  0.1511
11770TIP3    H156725   3.304   2.348   5.305  0.1016  0.6404  0.8031
11770TIP3    H256726   3.290   2.292   5.445  1.3848  1.0761  1.1220
11771TIP3   OH256727   5.125   6.062  11.338  0.4067  0.1821 -0.3102
11771TIP3    H156728   5.160   6.079  11.426 -0.1835  1.0752 -0.2420
11771TIP3    H256729   5.201   6.038  11.286  1.0034  1.3079  0.0327
11772TIP3   OH256730   0.877   2.799  11.413 -0.2809 -0.1702 -0.5687
11772TIP3    H156731   0.910   2.825  11.327 -0.3009  0.0467 -0.5094
11772TIP3    H256732   0.877   2.703  11.410  0.0820 -0.1666 -0.6685
11773TIP3   OH256733   3.178   1.770   4.136  0.1251  0.7237  0.2046
11773TIP3    H156734   3.167   1.679   4.108  0.2479  0.7300  0.1375
11773TIP3    H256735   3.099   1.815   4.105  0.8536  1.0251 -1.2902
11774TIP3   OH256736   6.037   4.445   0.798  0.2433 -0.5133  0.3789
11774TIP3    H156737   6.003   4.375   0.742  1.2249 -0.2403 -0.6096
11774TIP3    H256738   5.963   4.471   0.852  0.0054 -2.7111  1.2038
11775TIP3   OH256739   5.694   6.181  12.290  0.7024 -0.6268  0.0734
11775TIP3    H156740   5.660   6.223  12.211 -0.4757 -0.5286  0.6135
11775TIP3    H256741   5.654   6.230  12.362  2.2760 -0.2818  0.7658
11776TIP3   OH256742   2.145   3.944  16.927 -0.1632  0.1408 -0.0722
11776TIP3    H156743   2.055   3.927  16.897 -0.8060  0.3165  1.6360
11776TIP3    H256744   2.136   3.955  17.022  1.4209  1.8949 -0.0834
11777TIP3   OH256745   0.684   0.735   4.835  0.1013  0.3017 -0.0070
11777TIP3    H156746   0.713   0.680   4.909 -1.5429  0.6689  0.9485
11777TIP3    H256747   0.657   0.672   4.768 -1.1770 -0.0797  0.8412
11778TIP3   OH256748   4.226   2.083   4.500  0.2411 -0.1527 -0.6437
11778TIP3    H156749   4.238   2.170   4.462 -0.0403  0.1215 -0.1217
11778TIP3    H256750   4.187   2.100   4.586  0.5993 -0.7750 -0.3562
11779TIP3   OH256751   4.001   2.781  15.183  0.2188  0.0411  0.3720
11779TIP3    H156752   4.034   2.693  15.199  1.1617  0.2380 -0.3542
11779TIP3    H256753   3.981   2.816  15.270  1.4082 -0.3091  0.8042
11780TIP3   OH256754   2.597   1.427  13.208 -0.0959  0.2889 -0.3924
11780TIP3    H156755   2.564   1.339  13.224 -0.5701  0.3526 -0.9900
11780TIP3    H256756   2.664   1.415  13.141  0.9967  0.1854  0.6699
11781TIP3   OH256757   4.296   6.562   2.947  0.0385  0.1701  0.1802
11781TIP3    H156758   4.308   6.484   3.002  0.1684 -0.5431 -0.8307
11781TIP3    H256759   4.381   6.575   2.906 -0.7452 -0.9609 -1.9459
11782TIP3   OH256760   3.370   0.179   3.159 -0.4164  0.0838 -0.1187
11782TIP3    H156761   3.410   0.224   3.085  0.3938  0.4859  0.5439
11782TIP3    H256762   3.437   0.180   3.227 -1.7474  1.3724  1.2842
11783TIP3   OH256763   4.816   1.912   0.948  0.2952  0.2363 -0.1793
11783TIP3    H156764   4.896   1.895   0.998  1.1166  0.1360 -1.4824
11783TIP3    H256765   4.747   1.916   1.014  1.4557  0.9408  1.0435
11784TIP3   OH256766   3.218   0.537   5.192 -0.0760 -0.1782  0.0859
11784TIP3    H156767   3.181   0.625   5.191  0.2834  0.0159  1.5582
11784TIP3    H256768   3.211   0.507   5.102 -1.8557  0.6681 -0.1060
11785TIP3   OH256769   1.199   2.828   3.198 -0.0926  0.2206 -0.3848
11785TIP3    H156770   1.125   2.851   3.254  0.6621 -0.4219  0.9240
11785TIP3    H256771   1.255   2.906   3.198  0.6261 -0.2636  0.9949
11786TIP3   OH256772   4.322   4.249   1.399  0.2432  0.0716 -0.3801
11786TIP3    H156773   4.354   4.162   1.422  0.3599  0.2675  0.2194
11786TIP3    H256774   4.370   4.308   1.457 -1.9907  0.2976  1.3373
11787TIP3   OH256775   6.095   1.612  15.535  0.2443  0.3088 -0.4676
11787TIP3    H156776   6.013   1.562  15.535  1.1903 -1.3203  0.4370
11787TIP3    H256777   6.117   1.620  15.442 -0.8667  0.6793 -0.7185
11788TIP3   OH256778   2.098   6.263  14.659  0.3510  0.7045  0.0720
11788TIP3    H156779   2.186   6.302  14.652  1.5062 -1.4592  1.2687
11788TIP3    H256780   2.110   6.189  14.719 -2.3686  0.4496  0.4131
11789TIP3   OH256781   4.999   3.256   1.006  0.2381  0.1362  0.0034
11789TIP3    H156782   4.986   3.331   1.064  0.3653 -0.0619  0.2886
11789TIP3    H256783   4.911   3.228   0.982  0.1933  0.5016 -0.2644
11790TIP3   OH256784   4.830   1.049  11.514 -0.5903 -0.3488 -0.5285
11790TIP3    H156785   4.885   0.976  11.545  0.6218  0.6711 -0.1730
11790TIP3    H256786   4.876   1.127  11.545 -3.2974  0.5551  1.5759
11791TIP3   OH256787   1.351   0.325   3.765  0.0818 -0.2399  0.2451
11791TIP3    H156788   1.377   0.294   3.852  1.0080  0.7854  0.3487
11791TIP3    H256789   1.428   0.309   3.710 -0.8719 -1.9211 -0.6828
11792TIP3   OH256790   0.168   0.659   1.844  0.1254  0.4789  0.7266
11792TIP3    H156791   0.261   0.645   1.864 -0.3362  0.3650  2.9845
11792TIP3    H256792   0.143   0.582   1.792  0.7131 -0.7583  2.2068
11793TIP3   OH256793   2.734   2.246  16.826  0.3871 -0.5765  0.4020
11793TIP3    H156794   2.703   2.311  16.763 -0.1362 -0.2053  1.0336
11793TIP3    H256795   2.819   2.218  16.792  1.7894  2.1965  1.3526
11794TIP3   OH256796   3.030   6.314   3.920 -0.6002  0.5231 -0.4385
11794TIP3    H156797   3.061   6.224   3.925 -0.5520  0.5250 -0.6996
11794TIP3    H256798   3.104   6.363   3.884 -0.6571  0.6531 -0.3813
11795TIP3   OH256799   1.631   2.202   3.150 -0.6462  0.7311  0.1951
11795TIP3    H156800   1.701   2.214   3.086 -1.3843 -0.1929 -0.8128
11795TIP3    H256801   1.572   2.276   3.134 -0.7943  0.5397 -0.1611
11796TIP3   OH256802   0.304   5.393  12.818 -0.0012  0.4247  0.1413
11796TIP3    H156803   0.252   5.408  12.897 -0.5578 -0.8110  0.0296
11796TIP3    H256804   0.386   5.440  12.835 -0.2614  0.5155  1.2806
11797TIP3   OH256805   4.818   6.553  13.296 -0.2337 -0.2263 -0.0018
11797TIP3    H156806   4.771   6.634  13.319  1.2992  0.3639  1.2101
11797TIP3    H256807   4.759   6.483  13.321 -0.6902  0.5033  1.0288
11798TIP3   OH256808   3.690   0.041  16.986 -0.2640 -1.0569  0.2150
11798TIP3    H156809   3.754  -0.013  17.033  2.2827 -0.4683 -2.3311
11798TIP3    H256810   3.702   0.129  17.022 -1.4980 -1.3407  1.4467
11799TIP3   OH256811   1.217   5.050  16.898 -0.1013 -1.0358 -0.2925
11799TIP3    H156812   1.237   5.022  16.809  0.5579  0.8799 -0.8044
11799TIP3    H256813   1.281   5.004  16.953  1.1101 -0.3902 -1.1159
11800TIP3   OH256814   6.538   4.967  13.811 -0.2926 -0.0908  0.6878
11800TIP3    H156815   6.519   4.880  13.776  1.4174 -0.2688  0.1217
11800TIP3    H256816   6.452   5.007  13.823 -1.0671 -1.4617 -0.0633
11801TIP3   OH256817   0.671   4.866   0.708 -0.6122 -0.2104 -0.2124
11801TIP3    H156818   0.614   4.890   0.782 -0.2020  2.0216 -0.5490
11801TIP3    H256819   0.746   4.925   0.716 -1.2792  1.2582 -3.2395
11802TIP3   OH256820   3.692   3.996  12.676 -0.1474  0.7371 -0.4879
11802TIP3    H156821   3.657   4.038  12.755 -0.5454  1.0035 -0.8020
11802TIP3    H256822   3.785   3.984  12.695 -0.3183  0.4313  0.1827
11803TIP3   OH256823   0.915   4.040  13.450  0.5516  0.0335  0.2528
11803TIP3    H156824   0.842   4.047  13.511  0.5967 -1.2988  0.4918
11803TIP3    H256825   0.988   4.082  13.494 -0.0719  1.4525 -0.0225
11804TIP3   OH256826   0.653   5.874  14.938 -0.0498  0.0638  0.1372
11804TIP3    H156827   0.586   5.921  14.889 -1.3056 -1.1594  0.6108
11804TIP3    H256828   0.645   5.783  14.909 -1.4385 -0.9119  3.0858
11805TIP3   OH256829   5.945   2.860  16.007  0.1739 -0.1034  0.1001
11805TIP3    H156830   5.909   2.942  15.971  2.1543  0.4478 -0.7412
11805TIP3    H256831   6.017   2.887  16.063 -0.7154 -1.1846  1.8892
11806TIP3   OH256832   0.317   5.380  16.891 -0.3394 -0.3468 -0.1130
11806TIP3    H156833   0.242   5.325  16.870 -1.5885  0.6909  1.4136
11806TIP3    H256834   0.297   5.464  16.849  0.4556 -0.3412 -0.5025
11807TIP3   OH256835   2.335   4.614  13.886  0.3155  0.2041  0.1046
11807TIP3    H156836   2.296   4.541  13.837  2.4717 -0.2005 -1.1157
11807TIP3    H256837   2.318   4.691  13.833 -0.4382  0.3394  0.5270
11808TIP3   OH256838   3.111   0.159   0.997 -0.6631  0.0428 -0.5485
11808TIP3    H156839   3.028   0.115   1.009 -0.6682  0.3919  0.7972
11808TIP3    H256840   3.107   0.236   1.054  1.3362 -1.0069  1.1674
11809TIP3   OH256841   3.082   0.606  14.421  0.3182 -0.3091  0.1645
11809TIP3    H156842   3.083   0.517  14.385  0.9756 -0.9638  1.7065
11809TIP3    H256843   3.169   0.616  14.461  0.4577  1.2471 -0.4715
11810TIP3   OH256844   0.995   3.930   0.935  0.5063 -0.4933  0.3795
11810TIP3    H156845   1.031   3.851   0.894  0.1226  0.0032 -0.9566
11810TIP3    H256846   1.030   4.002   0.883  0.9676  0.2452  1.6756
11811TIP3   OH256847   5.082   0.353   1.532  0.1834  0.3571  0.0624
11811TIP3    H156848   5.175   0.356   1.508 -0.0767 -0.4555 -1.1537
11811TIP3    H256849   5.045   0.432   1.494  0.2855  0.4242  0.1023
11812TIP3   OH256850   3.709   5.946   0.442  0.0733 -0.1312 -0.1220
11812TIP3    H156851   3.770   6.014   0.412  1.4805 -0.8329  1.0125
11812TIP3    H256852   3.746   5.864   0.410 -0.9187 -0.4820 -0.4014
11813TIP3   OH256853   1.660   0.908   5.432 -0.7039 -0.0882  0.5752
11813TIP3    H156854   1.661   1.003   5.421  1.4101 -0.2861 -1.7240
11813TIP3    H256855   1.707   0.893   5.514 -0.8061  0.8138  0.8138
11814TIP3   OH256856   2.976   4.219  15.604  0.0851 -0.0896 -0.0862
11814TIP3    H156857   2.989   4.231  15.510 -2.2493  0.1845 -0.4276
11814TIP3    H256858   2.882   4.205  15.614 -0.1225  2.3023  2.4596
11815TIP3   OH256859   4.145   0.928  13.888 -0.1249 -0.2006  0.2650
11815TIP3    H156860   4.155   0.837  13.861 -0.0266 -0.0013 -0.3823
11815TIP3    H256861   4.128   0.975  13.807  0.9930  0.5351  0.4377
11816TIP3   OH256862   5.111   1.618   1.808  0.0127 -0.1495 -0.3185
11816TIP3    H156863   5.093   1.592   1.898  1.2574  3.0054  0.9893
11816TIP3    H256864   5.205   1.638   1.807 -0.0060  0.0141 -2.2888
11817TIP3   OH256865   3.133   2.458   0.458  0.1365  0.0978  0.1739
11817TIP3    H156866   3.137   2.363   0.466 -1.2511  0.0125  0.0076
11817TIP3    H256867   3.136   2.474   0.363  1.1546  0.2738  0.2264
11818TIP3   OH256868   1.624   1.401  14.853 -0.1779 -0.5424  0.1164
11818TIP3    H156869   1.572   1.335  14.899  0.7802 -1.9035 -0.6838
11818TIP3    H256870   1.711   1.362  14.844  0.7583  1.3004  0.6052
11819TIP3   OH256871   1.622   0.646  10.886  0.2635 -0.4317  0.2400
11819TIP3    H156872   1.590   0.724  10.841  0.2679 -0.9656 -0.7031
11819TIP3    H256873   1.613   0.667  10.979 -0.5455  0.3510 -0.0044
11820TIP3   OH256874   4.844   2.444  15.611 -0.4322  0.2945 -0.4860
11820TIP3    H156875   4.922   2.422  15.561  0.4210  3.6441 -0.8887
11820TIP3    H256876   4.817   2.530  15.577 -2.5648  0.5879  1.6369
11821TIP3   OH256877   2.073   3.808  13.257  0.3280  0.4437 -0.2010
11821TIP3    H156878   2.147   3.747  13.263  0.9149  0.7807 -2.8099
11821TIP3    H256879   1.997   3.751  13.243  0.2713  0.1774  1.0311
11822TIP3   OH256880   6.666   2.750  15.292 -0.2485  0.2160 -0.2892
11822TIP3    H156881   6.701   2.832  15.325  1.3902 -0.6726  0.2859
11822TIP3    H256882   6.722   2.727  15.218 -0.3151 -0.6579 -0.0863
11823TIP3   OH256883   3.096   6.429   5.161 -0.2163  0.2091 -0.5373
11823TIP3    H156884   3.166   6.446   5.098 -0.7868 -2.0994 -1.9160
11823TIP3    H256885   3.129   6.358   5.215 -0.7540  0.4193  0.0774
11824TIP3   OH256886   6.396   1.241  16.787  0.6684 -0.2484 -0.4266
11824TIP3    H156887   6.435   1.280  16.709  0.2809  0.6340 -0.1913
11824TIP3    H256888   6.307   1.217  16.760  0.8625 -0.8624 -0.5346
11825TIP3   OH256889   6.465   5.960  16.759 -0.3632 -0.1837  0.2387
11825TIP3    H156890   6.452   6.051  16.734 -0.4767 -0.7359 -1.9756
11825TIP3    H256891   6.543   5.933  16.709 -1.2894 -1.7141 -0.4479
11826TIP3   OH256892   6.477   4.879  14.402 -0.1303  0.4369 -0.4679
11826TIP3    H156893   6.493   4.914  14.315 -0.2854  1.8152  0.0395
11826TIP3    H256894   6.389   4.841  14.397 -0.4114  1.1059 -0.7442
11827TIP3   OH256895   3.824   2.300  11.987  0.0709 -0.2932  0.4789
11827TIP3    H156896   3.871   2.353  12.051 -0.5267  1.5855 -0.5437
11827TIP3    H256897   3.837   2.346  11.904 -0.1207 -2.0309 -0.5568
11828TIP3   OH256898   2.376   4.943  11.482  0.3943 -0.1667 -0.1192
11828TIP3    H156899   2.402   4.887  11.555 -0.7835 -0.4394  0.0989
11828TIP3    H256900   2.340   4.883  11.417 -3.5504  0.4588  1.2418
11829TIP3   OH256901   5.349   6.349   6.164  0.2534  0.0046  0.1548
11829TIP3    H156902   5.300   6.271   6.190  0.4510 -0.2795 -0.2934
11829TIP3    H256903   5.319   6.418   6.222  1.0893 -0.7237  1.5045
11830TIP3   OH256904   0.757   0.329  11.571  0.9151  0.4336 -0.3153
11830TIP3    H156905   0.778   0.271  11.498 -0.8597  0.0634 -0.5876
11830TIP3    H256906   0.772   0.276  11.649 -1.5954 -0.8054 -0.5796
11831TIP3   OH256907   2.813   5.904  13.776  0.3141 -0.0674 -0.7726
11831TIP3    H156908   2.751   5.832  13.788  1.7672 -1.1670  0.7278
11831TIP3    H256909   2.823   5.912  13.681 -0.6321 -1.1705 -0.9850
11832TIP3   OH256910   3.799   5.736  13.060 -0.4487 -0.3964 -0.3354
11832TIP3    H156911   3.872   5.791  13.032 -0.5737 -0.4210 -0.7241
11832TIP3    H256912   3.821   5.648  13.029 -0.4919 -0.4648 -0.1731
11833TIP3   OH256913   4.702   1.240   6.237 -0.4715  0.5621 -0.0442
11833TIP3    H156914   4.650   1.198   6.169 -0.6111 -0.3523  0.6076
11833TIP3    H256915   4.793   1.230   6.207 -0.6205  1.9075 -1.0397
11834TIP3   OH256916   3.602   0.446   5.861  0.4461  0.2075  0.5182
11834TIP3    H156917   3.650   0.370   5.829 -0.5271 -0.1937 -0.0030
11834TIP3    H256918   3.670   0.503   5.896  1.3571 -0.1999 -0.5084
11835TIP3   OH256919   5.632   4.162  16.187  0.3951 -0.1233  0.0035
11835TIP3    H156920   5.617   4.184  16.095 -0.7749  1.5807  0.5592
11835TIP3    H256921   5.692   4.088  16.184  2.3792  1.4064 -2.1157
11836TIP3   OH256922   1.318   3.127  12.323  0.0843 -0.0027 -0.1313
11836TIP3    H156923   1.342   3.094  12.237 -0.1512 -0.4286 -0.0379
11836TIP3    H256924   1.335   3.221  12.318  1.4082 -0.2264 -0.1752
11837TIP3   OH256925   0.267   3.041   1.447  0.5261  0.1174 -0.4376
11837TIP3    H156926   0.294   3.025   1.538 -0.8206 -0.0783 -0.0518
11837TIP3    H256927   0.218   2.963   1.423 -0.3092  0.7586 -0.8565
11838TIP3   OH256928   2.048   6.800   0.844 -0.4244 -0.8758  0.0050
11838TIP3    H156929   2.074   6.865   0.778 -0.1316 -0.6436  0.3438
11838TIP3    H256930   2.077   6.837   0.927 -0.1456 -1.4954  0.1917
11839TIP3   OH256931   2.720   0.878   0.954 -0.5637 -0.0781  0.2290
11839TIP3    H156932   2.705   0.970   0.976  0.7589  0.1329  0.3156
11839TIP3    H256933   2.711   0.874   0.858  1.1304  0.5206  0.0159
11840TIP3   OH256934   2.884   4.826   0.991  0.1020  0.0381 -1.2079
11840TIP3    H156935   2.930   4.777   1.059 -1.2521  2.0990  1.3818
11840TIP3    H256936   2.802   4.778   0.978 -0.6210  0.7942  0.3237
11841TIP3   OH256937   5.716   2.178  17.036 -0.2176 -0.0641  0.0125
11841TIP3    H156938   5.669   2.103  16.998 -1.3586  0.3799  0.5082
11841TIP3    H256939   5.735   2.150  17.126 -1.6965  0.6587  0.5822
11842TIP3   OH256940   3.000   2.462   0.841  0.0768  0.1107  0.4737
11842TIP3    H156941   2.959   2.473   0.755 -1.8929  1.0919  1.4681
11842TIP3    H256942   2.946   2.396   0.885  2.1052 -1.6921  0.3990
11843TIP3   OH256943   1.102   0.564  11.909 -0.1709 -0.5130 -0.2185
11843TIP3    H156944   1.182   0.512  11.899  0.1980 -0.0051  0.0096
11843TIP3    H256945   1.095   0.578  12.004 -0.5747 -0.6136 -0.2302
11844TIP3   OH256946   2.108   3.233   2.815  0.8467 -0.1869  0.2185
11844TIP3    H156947   2.175   3.251   2.749  0.0990 -0.7836 -0.7535
11844TIP3    H256948   2.142   3.158   2.864  1.3378  0.1507  0.3905
11845TIP3   OH256949   0.144   1.856  14.498  0.1159 -0.1961  0.1048
11845TIP3    H156950   0.153   1.896  14.585 -0.2089  0.1250 -0.0090
11845TIP3    H256951   0.093   1.920  14.447  1.6720  0.3832 -0.8119
11846TIP3   OH256952   3.926   5.532  14.341 -0.2883  0.8332 -0.5907
11846TIP3    H156953   3.934   5.512  14.435 -0.3963  1.0093 -0.5432
11846TIP3    H256954   3.846   5.584  14.335 -0.1418  1.0392 -0.7462
11847TIP3   OH256955   1.228   5.937  15.218  0.7006 -0.0207 -0.5223
11847TIP3    H156956   1.238   6.016  15.271 -0.5372  1.3331 -2.1966
11847TIP3    H256957   1.233   5.968  15.127  1.1232 -2.0135 -1.2397
11848TIP3   OH256958   1.181   3.161  15.493 -0.2464  0.0252 -0.4349
11848TIP3    H156959   1.120   3.099  15.532 -1.7972  1.5191 -0.3738
11848TIP3    H256960   1.165   3.156  15.399  0.3111 -0.3469 -0.5149
11849TIP3   OH256961   4.827   0.014   3.015 -0.4147  0.0740  0.2781
11849TIP3    H156962   4.789   0.030   2.928  1.0775 -0.3257 -0.4851
11849TIP3    H256963   4.752   0.007   3.073 -1.4765 -0.0870 -1.0625
11850TIP3   OH256964   2.881   4.406  12.324 -0.4026  0.0973 -0.0546
11850TIP3    H156965   2.791   4.421  12.353 -0.1029  1.4320  0.2515
11850TIP3    H256966   2.929   4.388  12.405  0.0013  1.5395  0.0431
11851TIP3   OH256967   5.232   0.491  15.824  0.0820 -0.2947  0.0796
11851TIP3    H156968   5.245   0.560  15.889  1.3662 -0.3879 -0.0546
11851TIP3    H256969   5.281   0.521  15.747 -2.1481  0.2599 -1.2272
11852TIP3   OH256970   1.018   0.386  11.227  0.0937 -1.0016  0.5919
11852TIP3    H156971   1.080   0.444  11.270  0.2401 -0.6793 -0.0314
11852TIP3    H256972   0.956   0.446  11.185 -0.2059 -1.3109  0.5889
11853TIP3   OH256973   0.762   6.591  16.669  0.4578  0.1018 -0.0647
11853TIP3    H156974   0.778   6.583  16.763 -1.1498 -1.4292  0.1330
11853TIP3    H256975   0.794   6.678  16.646  0.8619  0.5051  1.9010
11854TIP3   OH256976   4.028   0.910  14.689 -0.0522 -0.3557 -0.2801
11854TIP3    H156977   4.066   0.824  14.670  0.3018  0.2143 -2.4171
11854TIP3    H256978   4.074   0.970  14.629 -1.3422  1.0664  0.1017
11855TIP3   OH256979   3.252   5.013  16.869 -0.6680 -0.1368 -0.6798
11855TIP3    H156980   3.190   5.005  16.941 -0.2731 -0.9195 -0.4206
11855TIP3    H256981   3.300   5.094  16.888 -1.1264  0.1008 -0.5139
11856TIP3   OH256982   1.819   1.404   1.238 -0.2631  0.6094 -0.1780
11856TIP3    H156983   1.871   1.377   1.163  0.8988  2.6424 -0.1793
11856TIP3    H256984   1.883   1.412   1.309 -1.1486 -0.1211  0.7310
11857TIP3   OH256985   3.377   5.984   3.265 -0.0247  0.5948 -0.1052
11857TIP3    H156986   3.300   6.040   3.261  0.7341  1.7097  0.3960
11857TIP3    H256987   3.345   5.897   3.240 -1.7725  0.6748  1.6077
11858TIP3   OH256988   4.759   3.405   1.987 -0.4175 -0.4950  0.5935
11858TIP3    H156989   4.740   3.313   1.968  1.8302 -1.7377  3.4909
11858TIP3    H256990   4.837   3.425   1.934  0.0433 -0.8301  1.1249
11859TIP3   OH256991   1.256   6.112   6.263 -0.1789 -0.6155 -1.0491
11859TIP3    H156992   1.271   6.155   6.347  1.7740  0.7226 -2.0116
11859TIP3    H256993   1.173   6.066   6.274  0.3937 -1.1247  1.8546
11860TIP3   OH256994   5.053   2.081   5.526 -0.6388  0.4446  0.3513
11860TIP3    H156995   5.101   2.162   5.540 -0.3927  0.5792 -1.1764
11860TIP3    H256996   5.119   2.012   5.538 -0.2121  0.5983 -0.9671
11861TIP3   OH256997   2.213   0.442   1.740 -0.1312  0.0215  0.1154
11861TIP3    H156998   2.216   0.537   1.725  1.1907  0.1572  0.9899
11861TIP3    H256999   2.235   0.403   1.656 -0.6849  0.4868 -0.2498
11862TIP3   OH257000   0.492   2.988  15.890 -0.3589  0.1460 -0.4302
11862TIP3    H157001   0.499   2.904  15.845  0.2797 -0.0021 -0.0648
11862TIP3    H257002   0.412   3.027  15.855 -1.1434 -0.9913  0.0283
11863TIP3   OH257003   6.007   1.409   2.774 -0.0277 -0.7394  0.2317
11863TIP3    H157004   5.981   1.328   2.818  2.6215 -2.0677 -0.4356
11863TIP3    H257005   5.963   1.404   2.689 -1.8786 -0.1778  1.1034
11864TIP3   OH257006   4.308   6.128  12.388  0.0862 -0.5060  0.4393
11864TIP3    H157007   4.263   6.076  12.321 -0.8661  0.4895  0.2752
11864TIP3    H257008   4.386   6.163  12.343 -0.5718  0.1963 -0.1907
11865TIP3   OH257009   6.036   2.940  10.211 -0.4494 -0.1310  0.6589
11865TIP3    H157010   5.980   3.017  10.197 -0.5806 -0.2262  0.6608
11865TIP3    H257011   5.981   2.866  10.187 -0.6941 -0.3027  1.7472
11866TIP3   OH257012   4.009   2.237  14.352  0.3684 -0.8311 -0.3823
11866TIP3    H157013   3.959   2.202  14.425  0.5117 -2.0068 -0.8344
11866TIP3    H257014   3.970   2.198  14.274  1.0023 -0.5711 -0.8445
11867TIP3   OH257015   6.355   3.098  15.548 -0.7130 -0.3569 -0.0443
11867TIP3    H157016   6.376   3.019  15.599 -0.3066  1.7129  3.2546
11867TIP3    H257017   6.440   3.139  15.531 -1.0504  1.6620  2.4574
11868TIP3   OH257018   3.614   6.754   0.838  0.1674 -0.0256 -0.2615
11868TIP3    H157019   3.586   6.713   0.920 -0.7112  2.3249  0.7024
11868TIP3    H257020   3.710   6.752   0.841  0.2703 -3.4850 -1.1416
11869TIP3   OH257021   6.445   4.078   4.037  0.2345  0.6814  0.0794
11869TIP3    H157022   6.540   4.075   4.025  0.3025 -0.3797  0.7632
11869TIP3    H257023   6.418   3.986   4.043 -1.1289  0.8735 -2.1573
11870TIP3   OH257024   2.928   5.897   3.376  0.5037  0.1362  0.0465
11870TIP3    H157025   2.864   5.826   3.372 -0.1940  0.6414  1.4903
11870TIP3    H257026   2.966   5.901   3.289 -0.3049 -1.2225 -0.3838
11871TIP3   OH257027   5.232   3.000  13.532 -0.1175  0.0746  0.1168
11871TIP3    H157028   5.214   2.948  13.453  0.7454 -0.8461  0.5048
11871TIP3    H257029   5.147   3.037  13.556 -0.7584 -1.1257 -0.2063
11872TIP3   OH257030   5.012   6.668  15.805  0.1692  0.8555  0.4632
11872TIP3    H157031   4.971   6.589  15.842  0.4063  0.6168  0.2211
11872TIP3    H257032   4.954   6.693  15.733  1.0150 -0.1362 -0.6095
11873TIP3   OH257033   5.875   5.658   1.312  0.0339  0.0410  0.0146
11873TIP3    H157034   5.854   5.565   1.309 -0.8840  0.1929  1.1497
11873TIP3    H257035   5.889   5.677   1.405 -5.2164  2.1277  0.7118
11874TIP3   OH257036   6.192   4.169  12.952  0.0504  0.2301  0.0302
11874TIP3    H157037   6.115   4.125  12.917 -0.6668  0.4538  1.2742
11874TIP3    H257038   6.266   4.117  12.921 -0.6125 -0.2413 -0.8123
11875TIP3   OH257039   2.484   2.759  14.528 -0.9019 -0.2734  0.0588
11875TIP3    H157040   2.415   2.805  14.577 -2.4682 -1.4063 -0.9726
11875TIP3    H257041   2.438   2.686  14.485  0.9989 -1.2028 -0.5065
11876TIP3   OH257042   1.028   0.904  15.924 -0.2051  0.4379 -0.1017
11876TIP3    H157043   1.008   0.896  15.830  1.9006  0.2347 -0.5930
11876TIP3    H257044   1.089   0.977  15.929  0.2135  0.0283  1.0159
11877TIP3   OH257045   1.822   6.507   4.847  0.0576  0.0514  0.1158
11877TIP3    H157046   1.885   6.481   4.780 -0.0683 -1.0658  0.4171
11877TIP3    H257047   1.867   6.575   4.897  0.1006  1.0187 -1.1822
11878TIP3   OH257048   3.344   1.293   0.219  0.3428  0.3332 -0.4381
11878TIP3    H157049   3.314   1.370   0.265  0.9902  0.2156  0.2047
11878TIP3    H257050   3.275   1.228   0.232  1.2696 -0.2948  1.9462
11879TIP3   OH257051   1.221   5.952   2.000 -0.1269 -0.3867 -0.2656
11879TIP3    H157052   1.281   5.876   2.002  0.5427  0.1463  0.6159
11879TIP3    H257053   1.166   5.936   1.923  0.2795 -1.5567 -0.3480
11880TIP3   OH257054   1.297   4.127  15.086  0.4891 -0.1721  0.0071
11880TIP3    H157055   1.296   4.092  14.997  1.7894 -2.3380  0.7840
11880TIP3    H257056   1.227   4.193  15.086  0.3266 -0.2453 -2.5342
11881TIP3   OH257057   3.279   0.612   4.572  0.1701  0.3064  0.2529
11881TIP3    H157058   3.204   0.553   4.569  0.6329 -0.3379  0.9903
11881TIP3    H257059   3.280   0.654   4.486 -0.8075  0.0436  0.1064
11882TIP3   OH257060   0.854   1.663   1.596  0.3357  0.3673  0.1385
11882TIP3    H157061   0.845   1.745   1.548 -0.1036 -0.6296 -1.5753
11882TIP3    H257062   0.858   1.595   1.528 -0.0277 -1.1035  1.5092
11883TIP3   OH257063   4.629   1.929  17.016  0.6857  0.2161  0.1357
11883TIP3    H157064   4.694   1.917  16.947  0.2956  0.2131 -0.2406
11883TIP3    H257065   4.549   1.956  16.969  0.6249  0.9795  0.6578
11884TIP3   OH257066   6.257   3.257   0.991 -0.0620 -0.2884  0.3913
11884TIP3    H157067   6.292   3.219   0.910 -1.8518  1.3965 -1.2878
11884TIP3    H257068   6.312   3.335   1.006 -0.1318 -0.2488  0.4413
11885TIP3   OH257069   6.016   3.086   1.548  0.5166  0.3806 -0.2587
11885TIP3    H157070   6.037   3.092   1.642  1.5930  0.5640 -0.4989
11885TIP3    H257071   5.967   3.004   1.540 -2.4789  1.9067  0.9588
11886TIP3   OH257072   1.490   5.106  15.796 -0.2337 -0.8506  0.0107
11886TIP3    H157073   1.557   5.038  15.798  1.8209  1.0404  0.9602
11886TIP3    H257074   1.475   5.127  15.889  1.4812  1.9883 -0.2497
11887TIP3   OH257075   2.007   3.851   0.317  0.2877  0.1789  0.0493
11887TIP3    H157076   1.975   3.781   0.374 -1.3298  0.4823 -0.4384
11887TIP3    H257077   2.030   3.922   0.376  1.7881 -0.6683  0.5370
11888TIP3   OH257078   2.222   2.400  17.020  0.6148  0.3791  0.4567
11888TIP3    H157079   2.276   2.441  16.952  1.5382  0.2193  1.0802
11888TIP3    H257080   2.140   2.378  16.975  0.4362  2.0727 -0.1091
11889TIP3   OH257081   1.108   6.616   2.161  0.2651  0.1831  0.4827
11889TIP3    H157082   1.176   6.575   2.107 -0.0118 -0.8558  0.9030
11889TIP3    H257083   1.082   6.548   2.223 -1.3738  0.4384  0.1356
11890TIP3   OH257084   2.597   4.802   3.130 -0.1322 -0.3083  0.1353
11890TIP3    H157085   2.613   4.708   3.122  0.5124 -0.0485 -2.6317
11890TIP3    H257086   2.562   4.812   3.218 -0.7123 -3.2049  0.3668
11891TIP3   OH257087   2.117   2.504  12.456  0.1211 -0.0234 -0.8425
11891TIP3    H157088   2.141   2.474  12.368 -0.5000 -0.1481 -0.9724
11891TIP3    H257089   2.030   2.543  12.445  1.1201  2.4109 -0.8123
11892TIP3   OH257090   6.279   0.602  16.571 -0.5655 -0.3178  0.6533
11892TIP3    H157091   6.189   0.627  16.551 -0.7368 -0.3308  1.3668
11892TIP3    H257092   6.288   0.618  16.665 -0.4577 -2.2689  1.0165
11893TIP3   OH257093   3.112   3.698  14.350 -0.1180  0.3378  0.3644
11893TIP3    H157094   3.136   3.729  14.438 -2.8166  1.4110  0.8097
11893TIP3    H257095   3.090   3.606  14.362 -0.2858  0.4285  0.7670
11894TIP3   OH257096   2.241   2.631  15.802 -0.1905  0.0649 -0.4072
11894TIP3    H157097   2.175   2.639  15.871 -1.7254  1.4594 -1.9596
11894TIP3    H257098   2.220   2.547  15.760  0.5847 -0.6602  0.5786
11895TIP3   OH257099   2.695   3.710   5.571  0.5119  0.0260  0.2870
11895TIP3    H157100   2.661   3.622   5.589  1.1372  0.0406  1.6686
11895TIP3    H257101   2.628   3.750   5.515  0.2159 -1.3148 -0.3538
11896TIP3   OH257102   0.449   5.761  13.002 -0.0167  0.1073  0.6311
11896TIP3    H157103   0.454   5.850  12.968 -1.6498  0.1614  0.4722
11896TIP3    H257104   0.395   5.767  13.081  1.6321 -0.4307  1.8693
11897TIP3   OH257105   4.821   5.434  15.894  0.0967  0.3744 -0.3671
11897TIP3    H157106   4.831   5.461  15.985 -0.2346  1.3042 -0.5924
11897TIP3    H257107   4.856   5.345  15.891  0.2917  0.4077  0.6227
11898TIP3   OH257108   6.299   6.545  15.641 -0.0584  0.3103  0.2666
11898TIP3    H157109   6.261   6.626  15.676 -1.3773 -0.8389  1.6393
11898TIP3    H257110   6.257   6.476  15.692 -0.2414 -1.3529 -2.0276
11899TIP3   OH257111   4.394   4.341  15.903 -0.7954 -0.3572  0.3097
11899TIP3    H157112   4.417   4.430  15.875 -2.2180  0.0134  0.2058
11899TIP3    H257113   4.420   4.337  15.995 -0.6781  0.1567  0.3019
11900TIP3   OH257114   3.366   4.608   5.556  0.0032  0.0075 -0.2105
11900TIP3    H157115   3.363   4.682   5.617  2.3617 -1.2975  1.6347
11900TIP3    H257116   3.335   4.533   5.607 -0.2688 -0.7067 -1.3820
11901TIP3   OH257117   5.755   3.552   3.350  0.2888  0.2573  0.4652
11901TIP3    H157118   5.848   3.575   3.359 -0.0883  1.6600  0.8900
11901TIP3    H257119   5.717   3.625   3.302 -0.6954 -0.1105  0.6751
11902TIP3   OH257120   1.792   1.722   4.005 -0.0106  0.1613 -0.2881
11902TIP3    H157121   1.842   1.711   3.925 -0.9322 -2.4927 -0.5841
11902TIP3    H257122   1.714   1.771   3.978  1.0896  1.9730 -0.3389
11903TIP3   OH257123   3.297   2.590  15.133  0.2923  0.2159  0.2103
11903TIP3    H157124   3.316   2.504  15.095  1.8706  1.2456 -1.4701
11903TIP3    H257125   3.357   2.597  15.207  0.8793  0.2741 -0.2690
11904TIP3   OH257126   6.669   1.763   3.941 -0.3719 -0.3985 -0.4299
11904TIP3    H157127   6.636   1.811   4.017 -0.2348 -0.5314 -0.2875
11904TIP3    H257128   6.742   1.711   3.974 -0.2623 -0.4006 -0.6661
11905TIP3   OH257129   2.144   2.030  14.981  0.1664  0.0907 -0.3026
11905TIP3    H157130   2.148   2.040  14.886  0.3937  1.4382 -0.1578
11905TIP3    H257131   2.217   1.971  15.002  0.2460 -0.0396 -0.9327
11906TIP3   OH257132   0.824   1.944   1.920  0.0580  0.7923  0.4520
11906TIP3    H157133   0.874   1.863   1.911 -1.0625  0.2035 -0.7042
11906TIP3    H257134   0.841   1.992   1.839 -0.6950  0.8887  0.3437
11907TIP3   OH257135   3.104   3.592  12.291 -0.2318 -0.6607 -0.5061
11907TIP3    H157136   3.153   3.669  12.322 -0.9660 -0.6315  0.6652
11907TIP3    H257137   3.171   3.526  12.275  0.3008 -0.2243 -0.1270
11908TIP3   OH257138   5.388   0.300  13.323 -0.1749 -0.2402 -0.3744
11908TIP3    H157139   5.458   0.333  13.379  1.5149 -2.2031 -1.2089
11908TIP3    H257140   5.321   0.268  13.384 -0.0484  0.9610  0.4405
11909TIP3   OH257141   3.590   3.453  14.835  0.6433  0.3411  0.8909
11909TIP3    H157142   3.518   3.398  14.866 -0.1293  0.5583 -0.4105
11909TIP3    H257143   3.665   3.394  14.831 -0.2116 -0.7198 -0.6545
11910TIP3   OH257144   4.007   2.116  11.940  0.1109 -0.3823  0.0781
11910TIP3    H157145   3.927   2.167  11.934  0.8797  0.9419  0.6629
11910TIP3    H257146   4.075   2.180  11.962  0.9640 -1.7591  1.6886
11911TIP3   OH257147   2.803   6.782  13.940 -0.6207  0.0816  0.6467
11911TIP3    H157148   2.895   6.758  13.926 -0.7485 -0.3151  0.4592
11911TIP3    H257149   2.769   6.713  13.998 -1.6239 -1.5962 -1.7713
11912TIP3   OH257150   1.851   4.755  13.696 -0.0905  0.1333  0.5911
11912TIP3    H157151   1.886   4.709  13.619 -0.7291  0.0305  0.3510
11912TIP3    H257152   1.908   4.831  13.706  2.1763 -1.6124  2.1096
11913TIP3   OH257153   3.815   1.724   3.159 -0.0967 -0.4512 -0.2937
11913TIP3    H157154   3.748   1.682   3.106  0.2851 -0.1333 -1.0500
11913TIP3    H257155   3.883   1.657   3.170  0.2470 -0.2273 -1.0050
11914TIP3   OH257156   4.366   5.667   2.919  0.2607 -0.3315  0.2359
11914TIP3    H157157   4.307   5.741   2.909  0.9256  0.0309 -1.3766
11914TIP3    H257158   4.310   5.590   2.910 -0.3980 -0.0449  1.6979
11915TIP3   OH257159   2.263   0.373   1.175 -0.0831  0.1458  0.0629
11915TIP3    H157160   2.196   0.412   1.230  0.5936  0.4700  0.6791
11915TIP3    H257161   2.296   0.446   1.122  0.6017  0.2498  0.6155
11916TIP3   OH257162   2.932   0.376  13.202  0.1414  0.5221 -0.0602
11916TIP3    H157163   2.878   0.409  13.274 -0.3405  1.3357 -0.7799
11916TIP3    H257164   3.020   0.406  13.222  0.1496  0.0866  0.5826
11917TIP3   OH257165   6.626   4.532  13.482 -0.1685  0.8552  0.0210
11917TIP3    H157166   6.715   4.500  13.469 -0.0056  1.2521  0.1702
11917TIP3    H257167   6.572   4.452  13.480  0.1318  0.6588 -0.5359
11918TIP3   OH257168   4.639   5.394  10.829  0.2538  0.1907 -0.3013
11918TIP3    H157169   4.715   5.370  10.777  0.3335 -2.9930  1.0664
11918TIP3    H257170   4.574   5.327  10.810 -2.2042  2.6486 -1.1996
11919TIP3   OH257171   0.232   6.602   4.612 -0.5329 -0.3294 -0.3185
11919TIP3    H157172   0.284   6.635   4.538  0.9111 -0.3224  0.6486
11919TIP3    H257173   0.190   6.680   4.648  0.1430 -0.0499 -0.1074
11920TIP3   OH257174   0.154   3.930   4.439 -0.3435 -0.4376  0.1210
11920TIP3    H157175   0.174   3.887   4.522 -0.8210 -1.0096 -0.0577
11920TIP3    H257176   0.231   3.983   4.421  0.6465 -1.8960 -0.0950
11921TIP3   OH257177   0.088   4.824  11.941 -0.0020 -0.0220 -0.4649
11921TIP3    H157178   0.136   4.906  11.953  1.4667 -1.0027  0.6830
11921TIP3    H257179   0.019   4.827  12.007  0.4427  0.0184  0.0020
11922TIP3   OH257180   1.417   5.206  15.198 -0.5602 -0.0660  0.0456
11922TIP3    H157181   1.443   5.121  15.163  0.0891  0.1709 -0.0621
11922TIP3    H257182   1.326   5.194  15.225 -0.4909 -0.7780 -0.0179
11923TIP3   OH257183   1.522   3.856  13.990  0.1740 -0.3923  0.6897
11923TIP3    H157184   1.500   3.926  14.052 -1.3191  0.5963 -0.8590
11923TIP3    H257185   1.457   3.865  13.920  2.8064 -0.2878 -1.9373
11924TIP3   OH257186   0.295   2.154  14.571 -0.5084  0.8267 -0.3786
11924TIP3    H157187   0.210   2.140  14.528 -0.2641 -0.0415 -0.6019
11924TIP3    H257188   0.354   2.175  14.499  0.2606 -2.2036 -0.7642
11925TIP3   OH257189   0.963   5.611   1.050 -0.1831  0.3493 -0.6215
11925TIP3    H157190   0.926   5.635   1.135  0.6566  0.3778 -0.2512
11925TIP3    H257191   1.003   5.525   1.065  1.9891  1.3528 -0.3468
11926TIP3   OH257192   3.035   1.765  13.318  0.1540 -0.4271  0.2221
11926TIP3    H157193   3.083   1.811  13.248 -0.1515 -1.6178 -0.8070
11926TIP3    H257194   2.972   1.711  13.271 -1.1431 -0.0624  1.5100
11927TIP3   OH257195   6.710   5.545  10.367 -0.0521  0.3254  0.1948
11927TIP3    H157196   6.691   5.609  10.298  0.5105  1.2738  0.8910
11927TIP3    H257197   6.625   5.532  10.410 -0.6450 -1.0803 -1.2977
11928TIP3   OH257198   4.640   0.576  11.240  0.1803  0.7141 -0.3317
11928TIP3    H157199   4.664   0.652  11.292  0.5246  1.8580 -2.0762
11928TIP3    H257200   4.709   0.512  11.258  0.9825  1.5544 -0.3403
11929TIP3   OH257201   1.609   5.105  14.557  0.3046 -0.2963 -0.8159
11929TIP3    H157202   1.673   5.084  14.626  0.8999  1.1269 -0.9018
11929TIP3    H257203   1.597   5.022  14.510  2.4339 -0.5252 -1.0714
11930TIP3   OH257204   6.460   2.907  15.733  0.7187 -0.3188  0.2147
11930TIP3    H157205   6.543   2.942  15.765  0.0158 -0.0831  1.8971
11930TIP3    H257206   6.484   2.828  15.685  2.2603  1.7407 -2.7134
11931TIP3   OH257207   3.355   6.520  14.967 -0.0632 -0.1469 -1.0392
11931TIP3    H157208   3.328   6.585  15.033  0.8582  1.0386 -1.7901
11931TIP3    H257209   3.419   6.465  15.013 -0.4230 -0.1743 -0.5593
11932TIP3   OH257210   3.298   4.190  11.362  0.3125 -0.3057 -1.0924
11932TIP3    H157211   3.225   4.241  11.327  0.1491 -0.2904 -0.7385
11932TIP3    H257212   3.373   4.249  11.357  0.0706  0.0704 -0.4417
11933TIP3   OH257213   4.359   0.409  16.498 -0.2708  0.4386  0.1252
11933TIP3    H157214   4.439   0.362  16.477 -0.4331  0.2696 -0.1217
11933TIP3    H257215   4.329   0.370  16.581 -1.3373 -1.1332 -0.9327
11934TIP3   OH257216   5.432   0.270   5.042  0.2184  0.3164  0.5159
11934TIP3    H157217   5.428   0.255   5.136  0.4893  0.7560  0.6049
11934TIP3    H257218   5.342   0.261   5.011 -0.1211  1.6347  1.0634
11935TIP3   OH257219   3.823   5.421   2.981 -0.2631  0.5070  0.5876
11935TIP3    H157220   3.737   5.388   2.956 -0.3761  1.2616 -0.0582
11935TIP3    H257221   3.877   5.343   2.992 -1.0879  0.0152  1.2255
11936TIP3   OH257222   3.759   3.759  15.372  0.3447  0.3738  0.6596
11936TIP3    H157223   3.743   3.835  15.428 -2.2408  1.7073 -1.6418
11936TIP3    H257224   3.831   3.786  15.315  2.3457 -0.6356  2.5843
11937TIP3   OH257225   3.711   0.184   5.848  0.1804 -0.2407  0.2066
11937TIP3    H157226   3.679   0.154   5.933 -0.4742 -1.1039 -0.3201
11937TIP3    H257227   3.702   0.108   5.791 -2.4714  1.1285 -1.4555
11938TIP3   OH257228   1.239   0.055  14.082  0.2258 -0.7165 -0.2657
11938TIP3    H157229   1.314   0.059  14.022  1.7068  0.2902  1.5317
11938TIP3    H257230   1.193   0.138  14.069  0.9366 -0.2010  0.4334
11939TIP3   OH257231   5.874   3.661  15.206 -0.0661 -0.2204 -0.1606
11939TIP3    H157232   5.926   3.709  15.270  1.3678 -1.1036 -0.6147
11939TIP3    H257233   5.847   3.581  15.251 -0.5038 -0.0614 -0.1329
11940TIP3   OH257234   3.555   2.302   1.662 -0.1531 -0.2260  0.2436
11940TIP3    H157235   3.631   2.338   1.617 -1.5682  1.7438 -0.7359
11940TIP3    H257236   3.584   2.289   1.752  1.0312  1.5516  0.1676
11941TIP3   OH257237   4.395   6.664   5.226  0.1613  0.3454 -0.2128
11941TIP3    H157238   4.382   6.662   5.131 -0.7032  1.0488 -0.1268
11941TIP3    H257239   4.463   6.599   5.243 -2.5894 -2.9566 -0.8523
11942TIP3   OH257240   5.658   4.909   2.725 -0.5548 -0.4553  1.7522
11942TIP3    H157241   5.629   4.825   2.691 -0.2444 -0.4619  1.5029
11942TIP3    H257242   5.587   4.970   2.704 -0.3538 -0.4513  1.0693
11943TIP3   OH257243   3.979   1.136   2.344  0.1631  0.3692  0.1351
11943TIP3    H157244   3.980   1.045   2.375 -2.5359 -0.0269 -0.6780
11943TIP3    H257245   4.009   1.130   2.253  1.2134  0.4910  0.4683
11944TIP3   OH257246   6.496   5.530  12.450  0.4809 -0.1502 -0.1744
11944TIP3    H157247   6.535   5.443  12.458  0.7168 -0.0977 -0.7118
11944TIP3    H257248   6.568   5.591  12.469  0.5928 -0.0593 -0.8500
11945TIP3   OH257249   1.017   5.024   1.761 -0.0398 -0.3272 -0.2134
11945TIP3    H157250   0.939   5.067   1.726  0.5835 -0.3070 -1.6418
11945TIP3    H257251   1.048   5.084   1.830  0.1788  1.0052 -1.4159
11946TIP3   OH257252   0.110   4.372  16.566 -0.1366 -0.2350  0.0400
11946TIP3    H157253   0.153   4.446  16.608  0.0880 -0.4408  0.1808
11946TIP3    H257254   0.153   4.364  16.481 -1.1469  0.6856 -0.5735
11947TIP3   OH257255   0.804   6.082  13.688 -0.3991  0.1317  0.3688
11947TIP3    H157256   0.883   6.128  13.660 -0.2923 -0.3755 -0.2016
11947TIP3    H257257   0.835   5.995  13.713 -0.7465  0.0032  0.3544
11948TIP3   OH257258   3.052   0.017  11.235 -0.3120  0.3540 -0.5677
11948TIP3    H157259   3.077   0.005  11.144 -0.5726 -0.3288 -0.5548
11948TIP3    H257260   3.000  -0.060  11.256 -0.6387  0.7271  0.0268
11949TIP3   OH257261   1.586   5.423  15.126 -0.0063 -0.3056  0.1552
11949TIP3    H157262   1.606   5.388  15.040 -1.4388  0.8387 -0.6983
11949TIP3    H257263   1.516   5.368  15.159  0.3233 -0.5477  0.4549
11950TIP3   OH257264   3.858   0.069   0.606  0.6325 -0.6449  0.4041
11950TIP3    H157265   3.812   0.022   0.675  2.9397 -4.1346 -0.1777
11950TIP3    H257266   3.806   0.055   0.528  0.6737 -1.1861  0.4728
11951TIP3   OH257267   6.781   6.462   1.849 -0.0611 -1.0272  0.1699
11951TIP3    H157268   6.820   6.478   1.763 -0.5566 -0.5862  0.0200
11951TIP3    H257269   6.717   6.533   1.859  0.9291 -0.2815  1.4659
11952TIP3   OH257270   2.568   2.605   4.866  0.5155  0.0666  0.1297
11952TIP3    H157271   2.564   2.656   4.786 -0.5942 -0.2230 -0.0161
11952TIP3    H257272   2.486   2.555   4.867  0.9932 -0.7336  0.9075
11953TIP3   OH257273   2.875   0.077   0.136 -0.6208  0.3746  0.3460
11953TIP3    H157274   2.803   0.112   0.188 -2.3432 -0.0644 -1.6307
11953TIP3    H257275   2.896   0.147   0.074 -1.3581 -0.5747 -1.0007
11954TIP3   OH257276   4.753   2.798  15.097 -0.3872  0.0181 -0.2307
11954TIP3    H157277   4.758   2.884  15.055 -1.8765  0.2256 -0.0449
11954TIP3    H257278   4.820   2.746  15.053  1.9808  1.7996  1.0089
11955TIP3   OH257279   5.085   2.255   2.693 -0.8041 -0.5557  0.0272
11955TIP3    H157280   5.179   2.250   2.707 -1.0777  0.1386  2.5414
11955TIP3    H257281   5.069   2.348   2.674 -1.1525 -0.3567  1.2501
11956TIP3   OH257282   4.125   1.739  11.437 -0.3080  0.1684 -0.6356
11956TIP3    H157283   4.164   1.705  11.357  2.4654  1.3738  0.0586
11956TIP3    H257284   4.142   1.672  11.503 -0.9799 -0.0391 -0.6644
11957TIP3   OH257285   4.817   3.935  16.005  0.1446  0.7404 -0.3882
11957TIP3    H157286   4.875   3.933  16.081 -1.6603 -1.2534  1.0507
11957TIP3    H257287   4.759   4.010  16.020  0.2007  0.7295 -0.1174
11958TIP3   OH257288   6.073   6.238  15.589 -0.3417 -0.0439  0.0173
11958TIP3    H157289   6.123   6.303  15.541 -2.2641  1.3343 -0.2408
11958TIP3    H257290   6.120   6.156  15.575  1.0694  0.9405 -1.2721
11959TIP3   OH257291   0.221   4.961  10.964  0.0074  0.2313  0.1529
11959TIP3    H157292   0.202   4.913  10.884  1.0638  0.0177  0.0223
11959TIP3    H257293   0.290   5.023  10.940  1.2749 -0.7219  1.1693
11960TIP3   OH257294   3.505   5.278  13.966  0.0604  0.2834 -0.6780
11960TIP3    H157295   3.523   5.335  13.892  1.1247  3.6864  1.9100
11960TIP3    H257296   3.414   5.250  13.953 -0.6294  2.8166 -2.0671
11961TIP3   OH257297   5.904   3.418   5.407 -0.5075 -0.3480  0.0268
11961TIP3    H157298   5.846   3.346   5.434  0.7357 -0.8882  1.3937
11961TIP3    H257299   5.975   3.417   5.471 -0.8527  2.6252  0.6113
11962TIP3   OH257300   4.587   4.988   1.338 -0.2431  0.1463 -0.2722
11962TIP3    H157301   4.582   4.904   1.293 -1.9593  0.9653 -1.7246
11962TIP3    H257302   4.502   4.997   1.382 -0.7580  1.7912 -1.4905
11963TIP3   OH257303   2.417   3.186   4.153 -0.5224 -0.2569  0.3557
11963TIP3    H157304   2.397   3.253   4.218 -0.6003 -0.7100  0.8037
11963TIP3    H257305   2.405   3.103   4.199  0.3149 -0.5723  0.0281
11964TIP3   OH257306   4.610   2.968   5.600 -0.3674 -0.5020 -0.3130
11964TIP3    H157307   4.584   2.878   5.582  2.1250 -1.3848  0.1577
11964TIP3    H257308   4.655   2.996   5.520  0.3944 -0.3197  0.1686
11965TIP3   OH257309   2.315   1.408   4.423 -0.1781 -0.4213  0.3319
11965TIP3    H157310   2.220   1.406   4.435 -0.0864  1.3247  1.7771
11965TIP3    H257311   2.328   1.387   4.331 -2.0432  0.3482 -0.1551
11966TIP3   OH257312   1.208   2.491   4.681 -0.2340 -0.6271  0.1162
11966TIP3    H157313   1.132   2.480   4.624  0.3584  0.8017 -1.0043
11966TIP3    H257314   1.281   2.455   4.630 -0.0104 -1.2769  0.8664
11967TIP3   OH257315   0.770   4.953   1.205 -0.0312 -0.1856  0.1077
11967TIP3    H157316   0.717   4.998   1.141  0.4036 -2.1816 -1.7766
11967TIP3    H257317   0.728   4.868   1.216  0.4726 -0.2636  1.7435
11968TIP3   OH257318   6.312   2.813  10.876 -0.4809 -0.3264  0.7133
11968TIP3    H157319   6.338   2.726  10.844 -3.4333  0.2683 -4.2344
11968TIP3    H257320   6.223   2.801  10.908 -0.0724  0.5503  2.2860
11969TIP3   OH257321   3.460   0.684   2.029 -0.1621 -0.1789 -0.1653
11969TIP3    H157322   3.444   0.713   2.119  0.8726 -0.3950  0.0978
11969TIP3    H257323   3.474   0.765   1.980 -1.8537  0.0245 -0.4004
11970TIP3   OH257324   4.817   5.248  13.061 -0.0417 -0.3706 -0.2552
11970TIP3    H157325   4.778   5.194  12.992 -1.8611  0.4510  0.0736
11970TIP3    H257326   4.745   5.266  13.122  1.5479 -1.2108  1.9941
11971TIP3   OH257327   5.241   6.033   4.685 -0.5393 -0.1593  0.3440
11971TIP3    H157328   5.147   6.017   4.695 -0.9096  1.9290  0.6170
11971TIP3    H257329   5.251   6.128   4.696  1.4655 -0.1866 -0.7114
11972TIP3   OH257330   5.915   2.043   1.841 -0.4571 -0.1394  0.4109
11972TIP3    H157331   5.827   2.031   1.877 -0.4114 -0.0133  0.5704
11972TIP3    H257332   5.971   2.052   1.919 -0.2542 -0.5632  0.3149
11973TIP3   OH257333   2.445   4.880   2.236  0.2190 -0.0938 -0.4358
11973TIP3    H157334   2.366   4.833   2.263  0.7937 -1.7663 -1.5163
11973TIP3    H257335   2.412   4.956   2.188 -0.7304 -0.3565 -0.2251
11974TIP3   OH257336   1.858   4.335   0.126  0.0895  0.3185 -0.1176
11974TIP3    H157337   1.909   4.332   0.207  2.3499  2.2806 -1.3569
11974TIP3    H257338   1.921   4.362   0.059 -1.4055 -2.3811 -2.8285
11975TIP3   OH257339   3.114   2.940  10.566 -0.1398  0.1569  0.2529
11975TIP3    H157340   3.150   2.886  10.495 -1.6049  1.1856 -1.3701
11975TIP3    H257341   3.103   2.880  10.639  2.3388 -0.7455 -0.0344
11976TIP3   OH257342   3.938   3.756  10.990  0.2588 -0.2250 -0.1814
11976TIP3    H157343   3.907   3.843  10.963  0.7276  0.3470  1.0462
11976TIP3    H257344   3.860   3.701  10.986 -0.1350  0.3439 -0.5993
11977TIP3   OH257345   6.166   5.643  14.784 -0.2340 -0.0258 -0.2407
11977TIP3    H157346   6.204   5.559  14.812 -0.3238  0.1807  0.5164
11977TIP3    H257347   6.086   5.651  14.835 -0.3589  0.4025 -0.5026
11978TIP3   OH257348   3.107   0.191   4.452 -0.8080  0.1375 -0.2947
11978TIP3    H157349   3.156   0.235   4.522  1.1112  0.3443 -1.6988
11978TIP3    H257350   3.085   0.105   4.489  1.7719 -0.4701  0.0017
11979TIP3   OH257351   0.847   6.204   3.154  0.4731  0.9458  0.0543
11979TIP3    H157352   0.799   6.277   3.192 -0.1700 -0.4259  2.1065
11979TIP3    H257353   0.790   6.128   3.169  1.6093 -0.1490 -0.9384
11980TIP3   OH257354   0.508   1.252  13.221 -0.3089  0.2119  0.5643
11980TIP3    H157355   0.547   1.166  13.202 -1.2864 -0.3373  0.9673
11980TIP3    H257356   0.580   1.314  13.208  0.1333 -0.5456 -0.8079
11981TIP3   OH257357   6.165   0.323  14.531 -0.5977  0.2212 -0.9685
11981TIP3    H157358   6.163   0.233  14.564  0.4781  0.3014 -0.6356
11981TIP3    H257359   6.202   0.316  14.443 -0.0711  0.3749 -0.7658
11982TIP3   OH257360   2.029   1.199  13.869 -0.3450  0.6906 -0.0899
11982TIP3    H157361   2.083   1.124  13.843  0.4749  1.2639 -0.0928
11982TIP3    H257362   2.029   1.196  13.965 -0.2736  0.7076 -0.0885
11983TIP3   OH257363   5.627   1.388  15.032 -0.8741 -0.2318  0.1023
11983TIP3    H157364   5.593   1.457  15.089 -0.0461 -0.2558  0.6577
11983TIP3    H257365   5.716   1.416  15.011 -0.1708 -1.5681  1.1212
11984TIP3   OH257366   3.440   0.950  13.469 -0.1013  0.6565 -0.3437
11984TIP3    H157367   3.471   0.997  13.391 -0.9450 -0.6092 -1.5021
11984TIP3    H257368   3.476   0.862  13.460 -1.3914  0.0696 -0.0852
11985TIP3   OH257369   3.723   4.779   6.240  0.1187  0.0378 -0.1198
11985TIP3    H157370   3.743   4.863   6.281  0.9199 -0.2870  0.1644
11985TIP3    H257371   3.808   4.739   6.223 -0.2047 -0.0528 -1.6808
11986TIP3   OH257372   3.848   0.291   1.022 -0.0299 -0.2579 -0.6398
11986TIP3    H157373   3.843   0.368   0.964  1.3126  0.4307  0.0858
11986TIP3    H257374   3.907   0.319   1.093 -0.9086 -1.3819  0.5780
11987TIP3   OH257375   2.263   0.768  13.647 -0.3970  0.1603  0.4504
11987TIP3    H157376   2.354   0.738  13.644 -0.8020 -1.2704 -3.7433
11987TIP3    H257377   2.224   0.722  13.721  1.3616 -2.2942 -0.0562
11988TIP3   OH257378   1.794   3.462   3.578 -0.2207 -0.4357 -0.3021
11988TIP3    H157379   1.797   3.369   3.599 -0.2249 -0.6504 -1.2493
11988TIP3    H257380   1.753   3.467   3.492 -0.7756  0.4876  0.0006
11989TIP3   OH257381   6.287   3.103   1.505  0.1208  0.0687  0.4290
11989TIP3    H157382   6.193   3.117   1.499  0.1220 -0.3758 -1.4608
11989TIP3    H257383   6.297   3.007   1.502  0.6578  0.1420 -0.6271
11990TIP3   OH257384   4.698   4.258  14.627  0.6124  0.4543 -0.4319
11990TIP3    H157385   4.625   4.256  14.688  0.0492  0.0837 -1.1057
11990TIP3    H257386   4.719   4.166  14.611  1.5361  0.5599  0.1153
11991TIP3   OH257387   2.576   1.981  14.917  0.0099  0.2644  0.2297
11991TIP3    H157388   2.570   2.070  14.883 -2.0314 -0.7381 -2.4791
11991TIP3    H257389   2.640   1.938  14.861 -2.8513 -1.2297 -2.1656
11992TIP3   OH257390   2.975   5.064   0.251  0.3625  0.2838 -0.7461
11992TIP3    H157391   2.947   5.042   0.340 -0.9859  1.1558 -0.9278
11992TIP3    H257392   2.894   5.089   0.206  1.0823  0.2431 -2.1066
11993TIP3   OH257393   0.992   0.400   1.155  0.3989 -0.0815 -0.4089
11993TIP3    H157394   0.948   0.321   1.186 -1.2323  0.4506 -1.2987
11993TIP3    H257395   1.085   0.375   1.152  0.7818 -0.2984  4.4961
11994TIP3   OH257396   5.035   6.432   2.865 -0.3011  0.0775 -0.1461
11994TIP3    H157397   5.071   6.510   2.821  0.5648 -0.0762  0.2612
11994TIP3    H257398   4.974   6.467   2.929 -0.8058  0.3568 -0.7664
11995TIP3   OH257399   1.120   0.579  11.393  0.0823  0.1199  0.0394
11995TIP3    H157400   1.027   0.599  11.392 -0.1334 -0.8629 -1.2801
11995TIP3    H257401   1.143   0.577  11.486 -1.6228 -1.4251  0.4799
11996TIP3   OH257402   0.767   2.716   5.166  0.2145 -0.3415 -0.7241
11996TIP3    H157403   0.733   2.717   5.256  1.0228  0.2526 -0.4145
11996TIP3    H257404   0.691   2.696   5.112  0.1417 -3.1784  0.2650
11997TIP3   OH257405   5.240   4.092  15.616  0.7857  0.4706  0.3519
11997TIP3    H157406   5.258   4.168  15.671  1.2827  2.4535 -2.3398
11997TIP3    H257407   5.302   4.099  15.544 -2.1913  0.2021 -2.4481
11998TIP3   OH257408   1.388   6.201   3.604  0.2951 -0.5063  0.0646
11998TIP3    H157409   1.330   6.133   3.637 -0.0267 -0.0139  0.5357
11998TIP3    H257410   1.475   6.175   3.635  0.9864 -3.0560 -3.4129
11999TIP3   OH257411   6.789   2.067   3.030 -0.3719  0.4256 -0.6539
11999TIP3    H157412   6.740   2.118   2.965 -0.7510  0.9730  0.0459
11999TIP3    H257413   6.726   2.052   3.100  0.3429  0.7778  0.0777
12000TIP3   OH257414   1.929   6.406   3.517 -0.1967  0.4921 -0.1364
12000TIP3    H157415   1.899   6.493   3.544  0.0139 -0.0177  1.9427
12000TIP3    H257416   2.016   6.421   3.481 -1.0782  1.4049 -2.0479
12001TIP3   OH257417   4.418   5.305   0.639 -0.1040 -0.0464  0.1041
12001TIP3    H157418   4.461   5.362   0.702  0.4526 -2.3541  1.9513
12001TIP3    H257419   4.333   5.284   0.678 -0.2900 -0.4939 -0.5127
12002TIP3   OH257420   2.407   3.757  12.098  0.4667  0.1842 -0.6795
12002TIP3    H157421   2.408   3.792  12.009  0.2411  0.5006 -0.5623
12002TIP3    H257422   2.334   3.803  12.140  0.0790 -0.5388 -0.5577
12003TIP3   OH257423   0.318   1.687   6.047 -0.6182 -0.2149 -0.3997
12003TIP3    H157424   0.409   1.677   6.018 -0.4917  0.8326 -0.4053
12003TIP3    H257425   0.309   1.624   6.119  0.3924  0.2796  0.2000
12004TIP3   OH257426   3.686   0.884  15.428 -0.6947  0.0871  0.4095
12004TIP3    H157427   3.723   0.972  15.431  0.9250 -0.5722  1.4443
12004TIP3    H257428   3.592   0.896  15.441 -0.2098  1.5145  3.3215
12005TIP3   OH257429   1.315   1.484   0.859 -0.0974  1.0264  0.5358
12005TIP3    H157430   1.326   1.525   0.773 -0.7014  0.3523  0.1318
12005TIP3    H257431   1.401   1.445   0.878 -0.6214 -1.0073 -0.9284
12006TIP3   OH257432   4.041   3.974  11.707 -0.1733 -0.3690 -0.3588
12006TIP3    H157433   4.029   3.916  11.782 -0.2592  0.9289  0.6552
12006TIP3    H257434   4.076   3.917  11.638 -2.7365 -2.2049 -0.2704
12007TIP3   OH257435   0.120   6.080   2.355  0.1846 -0.4621 -0.0104
12007TIP3    H157436   0.188   6.013   2.355  0.1867 -0.4827 -1.6785
12007TIP3    H257437   0.164   6.160   2.329 -0.1588 -0.1646  0.3034
12008TIP3   OH257438   2.941   6.802   2.868  0.0033  0.0635  0.4440
12008TIP3    H157439   2.855   6.827   2.833 -0.4150  2.3634  2.8130
12008TIP3    H257440   2.947   6.708   2.852 -2.3808  0.0651 -0.9438
12009TIP3   OH257441   5.393   3.552   3.977 -0.0348  0.5088 -0.2692
12009TIP3    H157442   5.413   3.582   4.066 -0.5036  0.5914 -0.1867
12009TIP3    H257443   5.331   3.480   3.989 -0.4577  0.8211 -0.5423
12010TIP3   OH257444   6.537   1.366  16.974 -0.9176  0.0898 -0.1325
12010TIP3    H157445   6.495   1.300  16.919  1.6198 -0.6221 -1.3771
12010TIP3    H257446   6.575   1.429  16.912 -1.4219  1.5415  0.9648
12011TIP3   OH257447   5.872   2.934   3.963  0.1808 -0.5462  0.0400
12011TIP3    H157448   5.889   3.018   3.922  0.2058 -0.6250 -0.1106
12011TIP3    H257449   5.781   2.940   3.994 -0.5853 -1.2494 -1.8925
12012TIP3   OH257450   0.056   3.779  12.505 -0.1175  0.4737 -0.4313
12012TIP3    H157451   0.019   3.750  12.589 -0.8166  1.1997 -0.4801
12012TIP3    H257452   0.096   3.864  12.524 -0.4278  0.7201 -0.8705
12013TIP3   OH257453   0.172   1.573   0.956 -0.3049 -0.4648  0.1815
12013TIP3    H157454   0.133   1.636   1.017  1.5284 -0.2425  1.1981
12013TIP3    H257455   0.209   1.505   1.013  1.6803 -0.1212 -0.6224
12014TIP3   OH257456   3.789   2.053   1.653  0.2450  0.1926  0.6321
12014TIP3    H157457   3.696   2.034   1.641  0.2201  1.4666 -2.2446
12014TIP3    H257458   3.791   2.125   1.716 -0.6687 -0.2591  1.1885
12015TIP3   OH257459   1.753   4.492  15.454  0.0242 -0.2773 -0.3008
12015TIP3    H157460   1.730   4.428  15.522 -1.4932  2.5820  2.0723
12015TIP3    H257461   1.830   4.538  15.489  1.4624 -1.0472 -2.2409
12016TIP3   OH257462   3.200   4.833  14.567 -0.3495 -0.3328 -0.2352
12016TIP3    H157463   3.151   4.752  14.577 -1.7879  0.4821 -0.4449
12016TIP3    H257464   3.173   4.868  14.482 -0.1156  0.5855  0.0497
12017TIP3   OH257465   4.161   3.671  16.810  0.1853  0.2252 -0.2297
12017TIP3    H157466   4.126   3.753  16.775 -0.7406  0.3015  0.8422
12017TIP3    H257467   4.134   3.670  16.902 -0.0013 -1.3873 -0.2766
12018TIP3   OH257468   0.994   4.240   2.071  0.1129  0.1177  0.1270
12018TIP3    H157469   0.965   4.207   2.156 -0.7103 -0.3942 -0.3387
12018TIP3    H257470   1.071   4.188   2.050 -1.2471 -1.6928 -0.6638
12019TIP3   OH257471   2.173   4.832   1.099  0.4527 -0.0506  0.0365
12019TIP3    H157472   2.265   4.808   1.097  1.1785  2.3167  1.0675
12019TIP3    H257473   2.137   4.786   1.175  1.1431  0.0518  0.4323
12020TIP3   OH257474   4.452   0.420  15.035 -0.1669  0.3407  0.2343
12020TIP3    H157475   4.398   0.344  15.013  0.7678 -0.0510 -0.7707
12020TIP3    H257476   4.390   0.493  15.039 -0.9246 -0.2924  0.1879
12021TIP3   OH257477   6.583   6.286  15.645  0.0761  0.1372  0.2376
12021TIP3    H157478   6.563   6.369  15.602  0.1290 -0.5420 -1.1643
12021TIP3    H257479   6.670   6.263  15.612 -1.0753 -1.8331 -1.6801
12022TIP3   OH257480   1.741   2.723   2.480  0.3781 -0.1873  0.6309
12022TIP3    H157481   1.727   2.816   2.495  0.6183 -0.1238  0.4712
12022TIP3    H257482   1.743   2.714   2.385  0.6030 -0.3183  0.6477
12023TIP3   OH257483   2.258   2.453  11.352  0.0296 -0.6291  0.3613
12023TIP3    H157484   2.324   2.389  11.323 -0.6091 -0.7778 -0.8079
12023TIP3    H257485   2.272   2.529  11.296 -0.1421 -0.2807  0.7929
12024TIP3   OH257486   1.909   0.044   4.382 -0.4745  0.5495 -0.4629
12024TIP3    H157487   1.902   0.097   4.461 -0.5561  1.2951 -0.9583
12024TIP3    H257488   1.979   0.087   4.332 -0.5734  0.2114 -0.8870
12025TIP3   OH257489   3.975   1.830  14.389 -0.3689  0.3654  0.7055
12025TIP3    H157490   3.953   1.852  14.479 -0.4449 -3.0025  1.6550
12025TIP3    H257491   4.050   1.770  14.396  1.2299  1.8616 -1.6833
12026TIP3   OH257492   6.133   4.612   4.773 -0.2553 -0.4158  0.0362
12026TIP3    H157493   6.220   4.581   4.801 -0.1391 -0.0537  0.0726
12026TIP3    H257494   6.151   4.674   4.703 -0.3884  0.8912  1.1186
12027TIP3   OH257495   6.746   4.771  14.220  0.4108  0.1182  0.5755
12027TIP3    H157496   6.664   4.797  14.177 -0.6527 -1.5909  1.4501
12027TIP3    H257497   6.762   4.840  14.285 -0.8542  0.0465  1.0052
12028TIP3   OH257498   5.326   5.795  11.378  0.0256 -0.7677  1.3506
12028TIP3    H157499   5.259   5.858  11.405 -0.5829 -1.4930  1.5760
12028TIP3    H257500   5.390   5.796  11.449  0.0894 -0.3160  1.2906
12029TIP3   OH257501   4.560   5.482  15.748  0.1809  0.1340 -0.1389
12029TIP3    H157502   4.551   5.512  15.839  0.1654 -0.1283 -0.0510
12029TIP3    H257503   4.654   5.467  15.737  0.4100  1.7373 -0.6849
12030TIP3   OH257504   5.726   5.318   4.742  0.5382  0.3344  0.8516
12030TIP3    H157505   5.662   5.378   4.781  0.2437  1.5450 -1.3802
12030TIP3    H257506   5.680   5.234   4.739 -0.3471  0.8041  0.7722
12031TIP3   OH257507   5.382   6.251   4.272 -0.3257 -0.1648  0.2254
12031TIP3    H157508   5.420   6.302   4.200 -1.6082 -1.1702 -1.2399
12031TIP3    H257509   5.439   6.175   4.280  3.2977  2.4789  4.2968
12032TIP3   OH257510   5.561   6.462   4.674  0.1923  0.0511  0.0425
12032TIP3    H157511   5.627   6.519   4.633 -0.1249 -0.0718 -0.6456
12032TIP3    H257512   5.508   6.522   4.727  1.5163  0.0077  1.5133
12033TIP3   OH257513   3.261   5.538   5.198 -0.3892 -0.3053  0.6420
12033TIP3    H157514   3.229   5.622   5.232  0.8535  0.9801 -1.1603
12033TIP3    H257515   3.341   5.521   5.248 -0.3581 -0.1257  0.6540
12034TIP3   OH257516   1.467   1.698  14.063 -0.2612  1.0447  0.2627
12034TIP3    H157517   1.541   1.689  14.124 -0.7830  1.0904  0.9174
12034TIP3    H257518   1.474   1.788  14.030 -0.6719  1.4378  1.2047
12035TIP3   OH257519   6.746   1.711   5.006  0.3184 -0.1906  0.5031
12035TIP3    H157520   6.699   1.735   4.927 -0.2546 -1.1449  0.5383
12035TIP3    H257521   6.745   1.790   5.060  1.0033  0.5739 -0.5568
12036TIP3   OH257522   1.594   6.587   5.904  0.0393  0.0419 -0.6040
12036TIP3    H157523   1.603   6.590   5.809  1.8722  0.3228 -0.4593
12036TIP3    H257524   1.618   6.675   5.933  1.9541 -0.7068  0.2386
12037TIP3   OH257525   0.794   4.656  11.739  0.2166  0.0676 -0.6737
12037TIP3    H157526   0.803   4.584  11.802  1.8023  1.2278  0.4969
12037TIP3    H257527   0.700   4.675  11.737 -0.0931 -1.3208 -0.2145
12038TIP3   OH257528   5.009   5.261  15.310  0.6109 -0.6016  0.0863
12038TIP3    H157529   5.074   5.313  15.262 -0.4859 -0.0802 -0.8796
12038TIP3    H257530   5.010   5.176  15.266 -0.6609 -0.0092 -1.1895
12039TIP3   OH257531   0.921   3.799   4.016 -0.3017 -0.2638 -0.0103
12039TIP3    H157532   0.884   3.776   3.930 -0.8774  1.5488 -0.2755
12039TIP3    H257533   0.927   3.715   4.062 -2.0074 -0.9940 -1.0206
12040TIP3   OH257534   4.252   1.974  14.852 -0.5111  0.3207  0.3461
12040TIP3    H157535   4.272   1.884  14.877  2.5835  1.1205  1.1086
12040TIP3    H257536   4.255   2.023  14.934 -1.3415  1.2615 -0.1690
12041TIP3   OH257537   3.858   1.751  11.099 -0.8076  0.5151  0.1485
12041TIP3    H157538   3.879   1.815  11.032 -2.3683 -0.1515 -1.0143
12041TIP3    H257539   3.889   1.667  11.063  0.1546  0.4147  1.1456
12042TIP3   OH257540   3.281   1.334  14.527  0.2935  0.1271  0.8067
12042TIP3    H157541   3.352   1.281  14.563 -0.2758  0.2989  2.2802
12042TIP3    H257542   3.203   1.301  14.571 -0.7522 -0.7761 -1.5446
12043TIP3   OH257543   0.347   4.394  15.687  0.1525 -0.7443  0.2157
12043TIP3    H157544   0.279   4.353  15.633 -0.9077  1.5394 -0.2922
12043TIP3    H257545   0.324   4.371  15.776 -1.3174 -0.0114  0.0451
12044TIP3   OH257546   5.741   5.533   1.077 -0.2373  0.3823  0.5053
12044TIP3    H157547   5.771   5.612   1.032  0.7871 -0.6267 -0.6464
12044TIP3    H257548   5.821   5.488   1.103 -0.7893 -0.7764  0.2574
12045TIP3   OH257549   4.087   0.381  12.776 -0.0199  0.2193  0.6872
12045TIP3    H157550   4.091   0.295  12.735  0.7928  0.3407  0.4953
12045TIP3    H257551   4.072   0.363  12.868 -1.4174 -0.0704  0.4267
12046TIP3   OH257552   1.220   0.322   3.034 -0.8656  0.3748 -0.3282
12046TIP3    H157553   1.258   0.398   3.078  0.8730 -0.5830 -0.1177
12046TIP3    H257554   1.255   0.246   3.080 -1.0951 -0.5967 -1.6775
12047TIP3   OH257555   5.400   1.693  14.969  0.4375 -0.1733 -0.4913
12047TIP3    H157556   5.426   1.603  14.949  0.1106 -0.3886  0.0109
12047TIP3    H257557   5.350   1.721  14.892 -0.3381 -0.7939 -0.2359
12048TIP3   OH257558   6.179   0.974   0.876  0.1846  0.3422 -0.2217
12048TIP3    H157559   6.154   0.882   0.867  0.5823  0.0534  1.3354
12048TIP3    H257560   6.173   1.009   0.787 -3.7168 -0.2018 -0.3536
12049TIP3   OH257561   2.157   3.329   5.538 -0.0344 -0.3612  0.3948
12049TIP3    H157562   2.122   3.273   5.469 -0.3363 -0.9694  1.0229
12049TIP3    H257563   2.081   3.348   5.594  0.2808 -0.1902  0.7665
12050TIP3   OH257564   5.941   1.929  14.365 -0.5449  0.0360 -0.7418
12050TIP3    H157565   5.964   1.902  14.275 -1.1062 -0.8106 -0.6438
12050TIP3    H257566   5.979   1.860  14.420  0.2898  0.8445 -0.2689
12051TIP3   OH257567   1.280   1.624   2.343 -0.5495  0.4384 -0.1024
12051TIP3    H157568   1.210   1.678   2.379 -1.5193 -0.9491  0.1937
12051TIP3    H257569   1.235   1.544   2.313  0.8195 -0.2019 -0.5279
12052TIP3   OH257570   2.919   5.289   4.143 -0.6774 -0.1760 -0.3536
12052TIP3    H157571   2.880   5.365   4.186  0.6613 -0.3398  1.2763
12052TIP3    H257572   2.855   5.262   4.078 -2.2117  0.9235  0.6405
12053TIP3   OH257573   5.964   2.621   3.946 -0.3283 -0.0027  0.0577
12053TIP3    H157574   5.962   2.709   3.909  1.0089  0.1991  0.3911
12053TIP3    H257575   5.933   2.565   3.875 -0.7800  0.6925 -0.3101
12054TIP3   OH257576   0.967   2.933   0.272  0.4782 -0.2850 -0.4849
12054TIP3    H157577   0.917   2.860   0.236  1.1675  0.2871 -2.7557
12054TIP3    H257578   1.041   2.892   0.317  0.0938 -1.0155 -0.5012
12055TIP3   OH257579   0.200   4.997  16.447  0.4141  0.2441  0.3174
12055TIP3    H157580   0.135   5.062  16.420 -0.6342 -0.5161  0.9221
12055TIP3    H257581   0.246   5.038  16.521 -1.3051 -0.2618  1.7265
12056TIP3   OH257582   6.633   0.415   4.865  0.3822  0.5166 -0.0126
12056TIP3    H157583   6.726   0.422   4.887  0.0983  0.2718  1.3809
12056TIP3    H257584   6.599   0.504   4.877  0.3874  0.5592 -0.3047
12057TIP3   OH257585   2.988   1.051   6.238  0.0086  0.2777 -0.4003
12057TIP3    H157586   2.918   1.077   6.178 -0.5511 -1.1203 -0.4079
12057TIP3    H257587   2.955   0.971   6.279  2.2615 -1.3968 -1.6140
12058TIP3   OH257588   1.670   1.996   0.057  0.4596 -0.1985 -0.2627
12058TIP3    H157589   1.732   2.016  -0.013  1.2677  0.1853  0.5448
12058TIP3    H257590   1.711   1.925   0.106  1.0735  1.1460  1.2627
12059TIP3   OH257591   0.983   0.756  11.149 -0.1458  0.2744 -0.2794
12059TIP3    H157592   1.065   0.708  11.161  0.0954  1.2299  2.8169
12059TIP3    H257593   0.914   0.690  11.161  0.1279 -0.2066 -1.2153
12060TIP3   OH257594   6.478   1.531   1.030  0.2960 -0.1832  0.5648
12060TIP3    H157595   6.548   1.483   1.074  1.1125  0.0954 -0.3875
12060TIP3    H257596   6.478   1.618   1.070  0.3470 -0.2481  0.7060
12061TIP3   OH257597   1.640   3.793   1.825 -0.9191 -0.1819 -0.1383
12061TIP3    H157598   1.660   3.798   1.918 -0.1187  0.0328 -0.3183
12061TIP3    H257599   1.635   3.699   1.806  1.4036 -0.3118 -0.3805
12062TIP3   OH257600   3.643   4.518   3.327 -0.4242  0.5666  0.1257
12062TIP3    H157601   3.685   4.600   3.301  1.0000  0.4877  1.9231
12062TIP3    H257602   3.649   4.462   3.249  2.1006  0.8788  0.0080
12063TIP3   OH257603   1.081   5.525  11.092 -0.4708  0.0214  0.0911
12063TIP3    H157604   1.048   5.610  11.063  1.9979  1.1183  0.2801
12063TIP3    H257605   1.101   5.478  11.011 -0.3443  0.2473 -0.0099
12064TIP3   OH257606   3.107   6.495  15.769  0.5451 -0.3808  0.4810
12064TIP3    H157607   3.175   6.454  15.717 -0.3880 -1.0863 -0.2202
12064TIP3    H257608   3.118   6.589  15.754  0.3592 -0.5691 -0.9199
12065TIP3   OH257609   6.259   1.305  11.695  0.6323 -0.9283 -0.0004
12065TIP3    H157610   6.186   1.318  11.756  1.6379 -0.4866  1.1522
12065TIP3    H257611   6.253   1.213  11.670  0.4490 -1.2399  1.1228
12066TIP3   OH257612   6.563   1.787   2.686  0.2828  0.0598 -0.3644
12066TIP3    H157613   6.607   1.857   2.637  1.4851  0.2225  0.8882
12066TIP3    H257614   6.623   1.766   2.758 -1.7235  0.3294  1.4954
12067TIP3   OH257615   6.563   1.986  12.324 -0.3245 -0.4410  0.6095
12067TIP3    H157616   6.517   1.912  12.365  0.6896 -0.3299  2.0262
12067TIP3    H257617   6.558   1.968  12.230 -1.2731 -1.6050  0.8589
12068TIP3   OH257618   5.611   4.821   1.710 -0.2116  0.4709 -0.2996
12068TIP3    H157619   5.559   4.854   1.783 -0.8772 -1.9582  0.4263
12068TIP3    H257620   5.551   4.819   1.636 -0.8079 -1.0256  0.1918
12069TIP3   OH257621   0.269   1.299  15.205  0.2403  0.1150  0.2280
12069TIP3    H157622   0.203   1.238  15.174 -0.3227  0.3080  1.0044
12069TIP3    H257623   0.341   1.244  15.235 -0.1998 -0.1682  0.7786
12070TIP3   OH257624   3.519   3.557  14.462 -0.0800  0.1572  0.3531
12070TIP3    H157625   3.465   3.623  14.506 -1.1174  0.4824 -1.3263
12070TIP3    H257626   3.604   3.600  14.451 -0.1429  0.4701  1.0299
12071TIP3   OH257627   1.712   2.698   3.553  0.0210 -0.2239 -0.3280
12071TIP3    H157628   1.625   2.706   3.592  0.0106  0.0316 -0.4059
12071TIP3    H257629   1.696   2.664   3.465  0.0322 -0.6198 -0.1819
12072TIP3   OH257630   3.009   1.469   2.784 -0.0701 -0.0664 -0.0601
12072TIP3    H157631   3.007   1.398   2.849 -0.3296  1.2424  1.4195
12072TIP3    H257632   3.098   1.502   2.787 -0.3140  0.5713  0.2812
12073TIP3   OH257633   1.499   2.366   1.444  0.5016  0.1789  0.0867
12073TIP3    H157634   1.559   2.351   1.371  3.0757 -1.2409  2.3173
12073TIP3    H257635   1.541   2.434   1.496  0.6060 -1.3542  2.0885
12074TIP3   OH257636   3.932   2.121  15.066 -0.3971 -0.0987  0.4678
12074TIP3    H157637   3.872   2.072  15.123 -0.0775 -0.6629  0.3305
12074TIP3    H257638   4.018   2.082  15.082 -0.4492 -0.9351 -1.0928
12075TIP3   OH257639   4.555   5.508   3.047 -0.2214 -0.0908 -0.5026
12075TIP3    H157640   4.484   5.569   3.027 -0.4930 -0.3582 -0.3624
12075TIP3    H257641   4.529   5.426   3.004  0.3698  0.0185 -1.0909
12076TIP3   OH257642   2.305   0.250   4.446  0.2671 -0.4694 -0.1449
12076TIP3    H157643   2.335   0.336   4.476 -1.0267  0.2608 -0.8578
12076TIP3    H257644   2.241   0.222   4.511 -0.0799 -0.4024 -0.4492
12077TIP3   OH257645   0.312   6.297  16.742  0.0732 -0.1144 -0.0958
12077TIP3    H157646   0.255   6.221  16.755  0.9190 -1.0164 -1.4002
12077TIP3    H257647   0.252   6.371  16.732 -0.7622 -0.1300  3.4402
12078TIP3   OH257648   2.466   4.963   5.542  0.3594 -0.7695  0.2076
12078TIP3    H157649   2.543   4.952   5.598 -0.2326 -2.1466  0.7828
12078TIP3    H257650   2.503   4.972   5.454  1.1836 -1.4656  0.4651
12079TIP3   OH257651   3.361   1.389  10.120 -0.0311  0.1181  0.2444
12079TIP3    H157652   3.320   1.369  10.204 -0.1287  0.4476  0.2746
12079TIP3    H257653   3.433   1.448  10.141  0.4133 -0.3933  0.1825
12080TIP3   OH257654   2.618   4.708  13.161 -0.1627  0.2049  0.2193
12080TIP3    H157655   2.648   4.649  13.231  0.0456  0.5996  0.4724
12080TIP3    H257656   2.646   4.666  13.080  2.4673  1.2668  0.4833
12081TIP3   OH257657   2.077   2.834   0.657 -0.8369  0.1492 -0.1257
12081TIP3    H157658   2.030   2.797   0.731  1.6857 -1.2367  0.9177
12081TIP3    H257659   2.136   2.764   0.628 -1.0715  0.9501 -2.8826
12082TIP3   OH257660   1.400   6.739   2.129 -0.0400  0.5647  0.6179
12082TIP3    H157661   1.345   6.720   2.053  1.2318  1.5753 -0.6049
12082TIP3    H257662   1.438   6.654   2.153  0.7263  0.4701 -0.8490
12083TIP3   OH257663   3.356   4.747   1.358 -0.1398  0.1181  0.0172
12083TIP3    H157664   3.304   4.790   1.290 -2.1516  0.0089  1.4153
12083TIP3    H257665   3.389   4.668   1.316  1.4381  1.6086 -1.7895
12084TIP3   OH257666   4.017   5.171  12.952  0.3648  0.1197  0.1973
12084TIP3    H157667   4.018   5.189  13.046  1.5658 -0.8252  0.3902
12084TIP3    H257668   4.016   5.076  12.945 -1.3455  0.1721 -0.7798
12085TIP3   OH257669   3.385   2.538  11.637 -0.2621  0.3707  0.1189
12085TIP3    H157670   3.402   2.444  11.634  0.2931  0.4770 -0.2346
12085TIP3    H257671   3.364   2.555  11.729  0.7128  0.0764  0.4131
12086TIP3   OH257672   1.066   4.429   2.374 -0.6342 -0.5599 -0.0403
12086TIP3    H157673   1.147   4.441   2.423 -0.7037 -0.5688  0.0763
12086TIP3    H257674   1.092   4.440   2.282 -0.6127  0.0251  0.0325
12087TIP3   OH257675   3.248   4.245  13.831 -0.3879  0.1152  0.2256
12087TIP3    H157676   3.221   4.308  13.764  1.4634  0.6642 -0.0575
12087TIP3    H257677   3.196   4.267  13.908  0.5493  2.3531  0.2849
12088TIP3   OH257678   3.660   5.249  12.730 -0.1641  1.0128 -0.4784
12088TIP3    H157679   3.587   5.271  12.672 -0.2524 -1.5137 -1.4620
12088TIP3    H257680   3.738   5.269  12.679 -0.2401 -0.5827 -1.2719
12089TIP3   OH257681   2.862   6.220  12.981 -0.6676  0.3673 -0.1862
12089TIP3    H157682   2.898   6.239  12.894 -0.6016  1.2964  0.0325
12089TIP3    H257683   2.845   6.306  13.019 -1.5151 -0.0452  0.3890
12090TIP3   OH257684   1.411   2.082   0.097  0.4543 -0.9933  0.1402
12090TIP3    H157685   1.503   2.060   0.108  0.6184 -1.4350 -1.6937
12090TIP3    H257686   1.395   2.154   0.158  2.3565 -0.0314 -0.4403
12091TIP3   OH257687   1.302   2.074  14.594 -0.2694  0.1777 -0.7906
12091TIP3    H157688   1.291   2.169  14.588 -0.0439  0.2132 -0.6834
12091TIP3    H257689   1.351   2.051  14.515  1.3813  0.4315  0.1056
12092TIP3   OH257690   6.632   0.934   3.163 -0.2656 -0.4607  0.5942
12092TIP3    H157691   6.696   0.910   3.096 -0.3058 -1.0105  0.7523
12092TIP3    H257692   6.549   0.902   3.130 -0.6605  1.1518 -0.0989
12093TIP3   OH257693   6.207   6.751  16.803  0.3293  0.1048 -0.2402
12093TIP3    H157694   6.284   6.726  16.752  0.4098 -0.0696 -0.0335
12093TIP3    H257695   6.218   6.705  16.887  1.1061  1.7884  0.6304
12094TIP3   OH257696   0.670   0.263   6.036  0.7595 -0.1587 -0.2530
12094TIP3    H157697   0.599   0.238   6.095  2.1435 -0.2083  1.4806
12094TIP3    H257698   0.636   0.243   5.949 -0.8365 -1.4591  0.5949
12095TIP3   OH257699   2.067   4.221   0.951  0.4073 -0.1569  0.3728
12095TIP3    H157700   2.024   4.236   1.035  0.0397  1.3806 -0.0590
12095TIP3    H257701   2.147   4.274   0.955  2.0781 -2.5507  0.9493
12096TIP3   OH257702   6.007   5.310  16.493 -0.0692  0.8788  0.2402
12096TIP3    H157703   6.035   5.332  16.404  2.3893 -1.1825  0.3983
12096TIP3    H257704   6.081   5.334  16.548 -0.5950 -0.1012  1.4219
12097TIP3   OH257705   3.748   4.004   1.149  0.2785  0.1136 -0.1981
12097TIP3    H157706   3.715   3.939   1.086  0.6761  0.2564 -0.5585
12097TIP3    H257707   3.724   4.088   1.111  2.5036  0.2982 -1.3327
12098TIP3   OH257708   2.485   3.137  16.696  0.5107 -0.5098  0.1719
12098TIP3    H157709   2.578   3.145  16.673  0.3980 -0.1934 -0.1960
12098TIP3    H257710   2.459   3.051  16.662  0.2875  0.0525 -1.1302
12099TIP3   OH257711   6.564   4.198  10.402 -0.0099  0.0113  0.2455
12099TIP3    H157712   6.571   4.292  10.385  0.3432  0.2095  1.3920
12099TIP3    H257713   6.470   4.184  10.417  0.2237  0.7260  2.8246
12100TIP3   OH257714   2.442   4.622  12.128  0.2754  0.0104 -1.0581
12100TIP3    H157715   2.418   4.648  12.217  0.2644 -1.1205 -0.7142
12100TIP3    H257716   2.531   4.655  12.116  0.8815 -1.1790 -0.0383
12101TIP3   OH257717   0.785   3.584  11.660  0.1536  0.0144 -0.0698
12101TIP3    H157718   0.863   3.623  11.699 -1.2989  1.8214  1.2219
12101TIP3    H257719   0.713   3.638  11.692 -1.4068  0.0901 -3.3304
12102TIP3   OH257720   6.634   6.013   4.198  0.1204 -0.2296 -0.1507
12102TIP3    H157721   6.721   6.027   4.161 -0.6564 -0.3093 -2.0855
12102TIP3    H257722   6.650   6.005   4.292  2.2022 -0.2854 -0.4541
12103TIP3   OH257723   6.193   4.305  11.469 -0.6371  0.1441  0.0404
12103TIP3    H157724   6.240   4.222  11.483 -0.6201  0.0147 -0.7605
12103TIP3    H257725   6.107   4.290  11.508 -0.1187  0.2980  1.3021
12104TIP3   OH257726   6.775   4.396  13.132  0.1961  0.0737  0.2532
12104TIP3    H157727   6.861   4.412  13.092 -0.6770  2.5256 -0.9111
12104TIP3    H257728   6.749   4.482  13.166 -2.1552 -0.3824 -0.2288
12105TIP3   OH257729   2.862   6.487  15.241  0.0862 -0.6502 -0.2327
12105TIP3    H157730   2.927   6.541  15.287  0.0854 -0.1981 -0.7656
12105TIP3    H257731   2.793   6.473  15.306  1.3689 -2.3878  0.8623
12106TIP3   OH257732   1.562   3.950   3.506  0.2517  0.0023  0.4240
12106TIP3    H157733   1.586   3.877   3.563 -1.3554 -1.5413 -0.7596
12106TIP3    H257734   1.466   3.944   3.499 -0.1639  3.2972  1.6235
12107TIP3   OH257735   6.394   2.994  10.527 -0.0892  0.1846 -0.0414
12107TIP3    H157736   6.413   3.087  10.538  0.7986 -0.0211  0.2182
12107TIP3    H257737   6.434   2.952  10.603 -0.5450 -0.4079 -0.1169
12108TIP3   OH257738   5.570   5.806   3.635 -0.1964 -0.4680 -0.1796
12108TIP3    H157739   5.573   5.775   3.545 -0.0929  0.3347 -0.4595
12108TIP3    H257740   5.490   5.858   3.641  0.1487  0.0544 -0.0045
12109TIP3   OH257741   4.487   3.734  16.869  0.1009  0.1738  0.1672
12109TIP3    H157742   4.469   3.825  16.843  0.5037 -0.2171 -1.6833
12109TIP3    H257743   4.404   3.701  16.901 -0.0820  1.1641  0.7557
12110TIP3   OH257744   0.561   6.472   5.981  0.1527  0.1360 -1.0828
12110TIP3    H157745   0.573   6.452   6.073 -0.6029  0.3845 -0.9250
12110TIP3    H257746   0.613   6.551   5.966 -1.4930  1.4452 -0.3084
12111TIP3   OH257747   1.458   4.960  14.085  0.2867  0.6351  0.5857
12111TIP3    H157748   1.487   4.875  14.052  3.5140  1.9731 -0.4048
12111TIP3    H257749   1.456   5.016  14.008  0.3078  1.9751  1.5323
12112TIP3   OH257750   3.446   6.010   5.848  0.0228 -0.3051 -0.4216
12112TIP3    H157751   3.415   5.993   5.937 -0.2792  1.5549 -0.1261
12112TIP3    H257752   3.393   5.953   5.792 -0.0262 -1.2304  0.5407
12113TIP3   OH257753   1.950   1.189   5.279 -0.3105 -0.0212 -0.3108
12113TIP3    H157754   1.984   1.270   5.241 -1.9599  0.2021 -1.3857
12113TIP3    H257755   1.870   1.215   5.324 -0.3988 -0.9085  0.0574
12114TIP3   OH257756   1.975   1.837  11.900 -0.2698 -0.5390 -0.2242
12114TIP3    H157757   1.901   1.897  11.913 -1.3271 -1.6781 -0.8092
12114TIP3    H257758   1.956   1.762  11.956  1.2716 -0.1582  0.8426
12115TIP3   OH257759   0.117   3.679  11.548 -0.2069 -0.5812  0.6893
12115TIP3    H157760   0.155   3.740  11.611 -0.6394 -0.8751  1.2440
12115TIP3    H257761   0.024   3.675  11.571 -0.4466 -0.3896 -0.2209
12116TIP3   OH257762   2.757   6.171  11.735  0.5908 -0.5468  0.1693
12116TIP3    H157763   2.675   6.138  11.773  0.9081 -1.6157 -0.0507
12116TIP3    H257764   2.732   6.200  11.647  0.5547 -1.3857 -0.0986
12117TIP3   OH257765   5.439   4.900  15.657 -0.2406  0.3195 -0.3642
12117TIP3    H157766   5.431   4.980  15.606 -2.7135  0.4613  0.1110
12117TIP3    H257767   5.474   4.929  15.742  2.5964  0.2619 -1.4149
12118TIP3   OH257768   0.870   3.593   3.380 -0.3759  0.5559 -0.7266
12118TIP3    H157769   0.866   3.532   3.307  0.4578 -0.1946 -0.1643
12118TIP3    H257770   0.837   3.545   3.455 -0.0141  0.8922 -0.3416
12119TIP3   OH257771   4.563   5.009  15.084 -0.3425  0.2461 -0.3077
12119TIP3    H157772   4.532   4.953  15.012 -0.3390  0.8752 -0.8031
12119TIP3    H257773   4.501   4.993  15.155  0.2382 -1.1623 -0.0726
12120TIP3   OH257774   3.188   0.845  11.407 -0.9716 -0.4413 -0.3258
12120TIP3    H157775   3.183   0.798  11.491  1.9827 -1.6024 -0.6906
12120TIP3    H257776   3.163   0.779  11.342 -2.9496  0.3703 -0.4661
12121TIP3   OH257777   5.754   0.208  10.685 -0.0622 -0.5053 -0.0164
12121TIP3    H157778   5.786   0.293  10.655 -0.8832 -0.4392 -0.7299
12121TIP3    H257779   5.736   0.159  10.605 -0.3458 -1.0723  0.3888
12122TIP3   OH257780   6.154   6.191   1.559 -0.1745  0.1553  0.0305
12122TIP3    H157781   6.192   6.270   1.598  2.5802 -0.2364 -1.6026
12122TIP3    H257782   6.064   6.188   1.593  0.0854  3.1730  1.2586
12123TIP3   OH257783   6.317   4.543   0.697  0.1803  0.5327  0.0038
12123TIP3    H157784   6.357   4.568   0.614 -1.0299  2.3910 -0.0912
12123TIP3    H257785   6.255   4.473   0.674 -2.0634  2.7448 -1.2434
12124TIP3   OH257786   0.725   5.741   5.962  0.1289 -0.1794 -0.2382
12124TIP3    H157787   0.791   5.703   6.020 -0.6662 -2.2703 -0.5992
12124TIP3    H257788   0.644   5.697   5.987 -0.3531 -0.6630 -2.4897
12125TIP3   OH257789   5.153   6.585  14.340 -0.4097 -0.7842  0.6935
12125TIP3    H157790   5.132   6.504  14.293  0.5719 -0.1628 -0.8908
12125TIP3    H257791   5.069   6.628  14.353 -0.7244 -0.9697 -0.5598
12126TIP3   OH257792   3.701   6.193   1.092 -0.2163 -0.1380 -0.3956
12126TIP3    H157793   3.612   6.226   1.096 -0.2870 -0.3440 -0.2732
12126TIP3    H257794   3.697   6.119   1.030  0.1342  0.6977 -1.4569
12127TIP3   OH257795   3.965   0.127   5.723 -0.3822  0.3219  0.0963
12127TIP3    H157796   3.996   0.053   5.671  2.2594  0.5838  1.1207
12127TIP3    H257797   3.968   0.096   5.814 -0.5573  1.2419  0.4273
12128TIP3   OH257798   3.402   3.771  14.292  0.1541  0.4910  0.6692
12128TIP3    H157799   3.325   3.714  14.294  0.3674  0.1816  0.0959
12128TIP3    H257800   3.414   3.798  14.383  0.6277 -1.1413  1.1110
12129TIP3   OH257801   6.784   0.040   4.401  0.2682 -0.7245  0.1434
12129TIP3    H157802   6.759   0.112   4.458 -0.3622 -0.0481 -0.9461
12129TIP3    H257803   6.711  -0.021   4.406  0.5792 -1.0566  0.6821
12130TIP3   OH257804   5.802   4.276   6.546 -0.4725  0.7797  0.1470
12130TIP3    H157805   5.857   4.246   6.618  0.0954  1.7386  0.1328
12130TIP3    H257806   5.745   4.342   6.585  0.0317  1.5075 -0.3248
12131TIP3   OH257807   6.115   0.870  15.941  1.3454  0.0991  0.5077
12131TIP3    H157808   6.035   0.921  15.953  1.5955  0.4774  0.5886
12131TIP3    H257809   6.185   0.935  15.938  1.3156  0.1285 -3.4034
12132TIP3   OH257810   6.490   3.208   1.690 -0.2825 -0.4706 -0.1376
12132TIP3    H157811   6.412   3.178   1.643 -0.4846 -0.2087  0.0186
12132TIP3    H257812   6.504   3.298   1.658 -0.0363 -0.5220 -0.1746
12133TIP3   OH257813   1.349   2.186   2.076 -0.9601  0.3046  0.4486
12133TIP3    H157814   1.308   2.100   2.086  1.1883 -0.7406  0.9181
12133TIP3    H257815   1.399   2.198   2.157 -1.1559  1.9818  0.3505
12134TIP3   OH257816   6.805   0.849   3.998 -0.3196 -0.4063  0.0323
12134TIP3    H157817   6.827   0.889   3.914  1.2051 -0.6833  0.2660
12134TIP3    H257818   6.820   0.756   3.985 -0.2955 -0.4743  0.5389
12135TIP3   OH257819   6.670   6.025  11.968  0.4530 -0.6954  0.2873
12135TIP3    H157820   6.634   6.039  12.055  1.3367 -0.1818  0.5874
12135TIP3    H257821   6.706   5.937  11.971 -0.3438 -1.0332  0.1333
12136TIP3   OH257822   3.722   4.703  13.161 -0.0777 -0.2674  0.4103
12136TIP3    H157823   3.660   4.633  13.177 -1.1097  0.4244 -0.4787
12136TIP3    H257824   3.668   4.781  13.147  0.9380  0.2205 -1.0780
12137TIP3   OH257825   6.035   6.483   5.764 -0.5119 -0.8458  0.0457
12137TIP3    H157826   6.124   6.514   5.779 -0.3353 -0.4226 -1.6605
12137TIP3    H257827   6.014   6.431   5.842  0.5702  0.4632  1.2735
12138TIP3   OH257828   3.012   6.650   2.426 -0.5392 -0.5076 -0.8123
12138TIP3    H157829   3.006   6.579   2.490 -1.1551  0.2403 -0.0143
12138TIP3    H257830   2.992   6.608   2.342  0.3158 -1.5102 -0.5399
12139TIP3   OH257831   3.975   3.761  15.213  0.4479  0.5972 -0.1714
12139TIP3    H157832   4.030   3.703  15.266  0.4490  2.6877  2.3630
12139TIP3    H257833   3.971   3.719  15.127  2.9740 -1.4856  0.5905
12140TIP3   OH257834   5.317   3.517  16.068  0.1505  0.0094 -0.1809
12140TIP3    H157835   5.260   3.498  16.142 -0.7703  0.6977 -0.6967
12140TIP3    H257836   5.308   3.441  16.011 -0.4956  0.2505 -0.4052
12141TIP3   OH257837   0.417   3.947  11.075  0.4904 -0.5570 -0.0329
12141TIP3    H157838   0.381   3.946  10.986  0.3395 -1.4143  0.0221
12141TIP3    H257839   0.511   3.932  11.063  0.8611  1.5735 -0.1711
12142TIP3   OH257840   2.570   6.582  15.727 -0.2252 -0.4421 -0.2515
12142TIP3    H157841   2.536   6.622  15.807  0.2431  0.3213 -0.4206
12142TIP3    H257842   2.663   6.607  15.725  0.1228 -1.6716 -0.2929
12143TIP3   OH257843   1.256   3.345   1.328 -0.0532  0.3119  0.0908
12143TIP3    H157844   1.285   3.322   1.416  3.2528 -0.9918 -1.1874
12143TIP3    H257845   1.191   3.279   1.305 -0.9854  0.6925  1.4834
12144TIP3   OH257846   0.028   4.430  14.266 -0.3210 -0.7828 -0.1272
12144TIP3    H157847   0.040   4.513  14.314 -1.2925 -0.3572 -0.5922
12144TIP3    H257848   0.046   4.362  14.331  3.4828 -0.2841 -0.4505
12145TIP3   OH257849   6.104   5.657   1.110 -0.3885  0.2436  0.3009
12145TIP3    H157850   6.043   5.709   1.057  0.4747  0.2580 -0.7095
12145TIP3    H257851   6.064   5.571   1.115 -0.4733  0.2315 -0.4277
12146TIP3   OH257852   3.448   5.025  14.386 -0.4977 -0.0023 -0.2497
12146TIP3    H157853   3.399   5.035  14.468 -4.2316 -2.2411 -1.9353
12146TIP3    H257854   3.391   5.061  14.319  1.7578  0.3532 -2.0921
12147TIP3   OH257855   3.732   4.598   2.768 -0.3903 -0.4470  1.1953
12147TIP3    H157856   3.754   4.539   2.695 -0.9374  0.0144  0.6550
12147TIP3    H257857   3.655   4.558   2.808 -1.1028  0.1918  0.4817
12148TIP3   OH257858   0.656   4.857  13.663 -0.0270  0.3048 -0.1534
12148TIP3    H157859   0.562   4.836  13.658 -0.4626  2.3011 -1.1544
12148TIP3    H257860   0.673   4.867  13.757 -0.8353  0.0626  0.0299
12149TIP3   OH257861   4.045   3.589   2.775  0.3966  0.0531 -0.0319
12149TIP3    H157862   4.019   3.512   2.826  1.5974 -0.2832  0.0903
12149TIP3    H257863   4.111   3.633   2.828 -2.0404  2.6654  1.1419
12150TIP3   OH257864   1.674   1.151   4.900 -0.5565 -0.7718 -0.1452
12150TIP3    H157865   1.579   1.141   4.893 -0.8254  0.5123  1.1453
12150TIP3    H257866   1.699   1.093   4.972 -0.4017 -0.9227 -0.3204
12151TIP3   OH257867   5.544   6.392  14.687 -0.2781 -0.0081 -0.5433
12151TIP3    H157868   5.596   6.338  14.746  0.6916  1.2715 -0.1794
12151TIP3    H257869   5.538   6.341  14.606 -1.6686 -1.8139  0.6257
12152TIP3   OH257870   4.860   4.746  11.623 -0.4806  0.0863  0.4422
12152TIP3    H157871   4.908   4.827  11.602  1.2781 -0.9325  0.2953
12152TIP3    H257872   4.822   4.719  11.539  1.9382 -1.0576 -0.4102
12153TIP3   OH257873   3.393   4.044  13.475  0.0387  0.1083 -0.8899
12153TIP3    H157874   3.368   3.984  13.405 -1.9181  1.6048 -1.5807
12153TIP3    H257875   3.376   4.131  13.438 -0.7481  0.9622  1.3267
12154TIP3   OH257876   5.948   6.490   4.268  0.2370  0.1514  0.0635
12154TIP3    H157877   5.987   6.456   4.348  2.0192 -0.1701 -0.8778
12154TIP3    H257878   6.009   6.558   4.238  0.8460 -1.2497 -2.1557
12155TIP3   OH257879   5.892   6.805   5.201  0.2942  0.3152 -0.5850
12155TIP3    H157880   5.818   6.744   5.194 -1.6041  2.5301 -0.9708
12155TIP3    H257881   5.969   6.752   5.179 -1.0969 -2.1500  0.0464
12156TIP3   OH257882   0.650   2.341   5.234  0.5623  0.7725  0.2103
12156TIP3    H157883   0.653   2.360   5.328  0.3483  0.6399  0.2447
12156TIP3    H257884   0.629   2.248   5.229  0.6881  0.7527  0.0316
12157TIP3   OH257885   6.547   4.588   5.167  0.4468  0.5130  0.5182
12157TIP3    H157886   6.570   4.495   5.175 -1.1389  0.0128 -0.3880
12157TIP3    H257887   6.501   4.594   5.083  0.1711  2.0496  0.7561
12158TIP3   OH257888   2.264   4.174  14.387 -0.3243 -0.8568 -0.6310
12158TIP3    H157889   2.301   4.099  14.342  1.9036 -1.7113  2.2844
12158TIP3    H257890   2.340   4.224  14.417 -1.5826 -0.2484  1.8714
12159TIP3   OH257891   4.872   0.215  15.916  0.4920 -0.4160 -0.5127
12159TIP3    H157892   4.958   0.196  15.953  1.2892 -1.0190 -2.5051
12159TIP3    H257893   4.886   0.290  15.859 -1.5856  3.3115  3.3493
12160TIP3   OH257894   1.546   3.353  14.690 -0.4006 -0.0292 -0.2024
12160TIP3    H157895   1.587   3.426  14.736  0.1366  0.3194 -1.2009
12160TIP3    H257896   1.460   3.345  14.729 -0.2260  0.7335  0.3537
12161TIP3   OH257897   1.154   2.973   2.910 -0.4393 -0.2313  0.6608
12161TIP3    H157898   1.174   2.979   2.816 -2.5086 -0.6397  0.1272
12161TIP3    H257899   1.066   3.010   2.917 -0.0900  0.3203  2.5646
12162TIP3   OH257900   2.957   5.177   4.391 -0.0870  0.2726  0.2626
12162TIP3    H157901   2.974   5.258   4.439  2.5696  0.3396 -0.6208
12162TIP3    H257902   2.967   5.201   4.299  1.7786 -1.1757  0.0125
12163TIP3   OH257903   4.090   2.454   5.308 -0.6909 -0.3241 -0.4688
12163TIP3    H157904   4.072   2.384   5.245 -0.3455 -0.9911  0.1536
12163TIP3    H257905   4.155   2.509   5.265  0.6584 -1.5935 -0.1675
12164TIP3   OH257906   4.954   4.218  12.039  0.7500  1.2429  0.0673
12164TIP3    H157907   4.984   4.203  11.950  0.0116  0.1024 -0.0079
12164TIP3    H257908   4.999   4.152  12.092 -1.6082 -0.5952 -0.0701
12165TIP3   OH257909   2.871   2.189  11.234  0.6965  0.0097  0.1971
12165TIP3    H157910   2.875   2.265  11.176  0.4702  0.6580  1.0214
12165TIP3    H257911   2.942   2.203  11.297  0.9340 -0.6861  0.0954
12166TIP3   OH257912   4.595   4.540  16.420  0.0564  0.3572 -0.2905
12166TIP3    H157913   4.663   4.524  16.485 -0.5174  0.1149  0.2621
12166TIP3    H257914   4.640   4.587  16.350  0.6198  0.8958  0.4102
12167TIP3   OH257915   3.594   2.806   1.700  0.0807  0.0232 -0.2993
12167TIP3    H157916   3.662   2.806   1.766  0.8980 -0.7169 -1.1123
12167TIP3    H257917   3.600   2.892   1.659  0.8413 -0.1946 -0.6643
12168TIP3   OH257918   1.335   0.464   1.828 -0.3997  0.6722  0.0090
12168TIP3    H157919   1.352   0.535   1.766 -0.5935  0.9791  0.3045
12168TIP3    H257920   1.385   0.390   1.794  0.9375  1.3485  0.4763
12169TIP3   OH257921   3.088   6.054   1.227 -0.0467  0.5712  0.1758
12169TIP3    H157922   3.069   6.142   1.259  1.6075  1.0987 -0.1993
12169TIP3    H257923   3.072   5.997   1.303 -3.2857  0.8258 -0.1591
12170TIP3   OH257924   6.174   4.413  16.298  0.0946 -0.1642  0.3673
12170TIP3    H157925   6.149   4.471  16.370 -4.7555  0.1264 -1.2044
12170TIP3    H257926   6.108   4.343  16.299  1.9339 -2.1163 -1.7141
12171TIP3   OH257927   4.357   2.914   1.003 -0.1844 -0.4311 -0.0431
12171TIP3    H157928   4.319   2.898   1.090 -0.6695  0.3267 -0.1085
12171TIP3    H257929   4.295   2.876   0.942 -1.0899  1.1922 -0.1728
12172TIP3   OH257930   5.998   4.197   0.254 -0.4032  0.5090 -0.7081
12172TIP3    H157931   5.984   4.284   0.215 -2.3360  0.5747  0.0110
12172TIP3    H257932   5.932   4.192   0.323  1.4609 -0.4800  1.0942
12173TIP3   OH257933   1.835   2.248   2.613 -0.1471 -0.0353 -0.2853
12173TIP3    H157934   1.747   2.280   2.596 -0.1001  0.3250  0.1161
12173TIP3    H257935   1.848   2.177   2.551 -1.6306 -1.7752  1.2975
12174TIP3   OH257936   3.300   5.809   2.139 -0.2163 -0.0966 -0.1383
12174TIP3    H157937   3.301   5.864   2.218 -0.4320  0.4093 -0.4782
12174TIP3    H257938   3.211   5.774   2.137 -0.5384  0.7165 -0.7020
12175TIP3   OH257939   0.133   3.177  16.956  0.1356 -0.0835 -0.3720
12175TIP3    H157940   0.132   3.138  16.869 -1.3422 -1.6780  0.2955
12175TIP3    H257941   0.042   3.203  16.972  0.6573  1.5616  0.1343
12176TIP3   OH257942   0.886   1.951   6.167 -0.4390  0.0379  0.2210
12176TIP3    H157943   0.853   1.868   6.202 -2.1089  0.8028  0.5952
12176TIP3    H257944   0.914   1.999   6.245  1.5425 -0.5470 -0.0851
12177TIP3   OH257945   6.000   6.613   1.374 -0.3773 -0.5897  0.5075
12177TIP3    H157946   5.912   6.615   1.411 -0.8667  0.5817 -0.6449
12177TIP3    H257947   6.025   6.705   1.367  0.6842 -0.8885  0.2380
12178TIP3   OH257948   6.317   2.407  11.141  0.3851 -0.9318  0.2864
12178TIP3    H157949   6.352   2.352  11.070 -1.8518 -0.3360 -1.3766
12178TIP3    H257950   6.364   2.490  11.132  0.9330 -1.2405  0.2496
12179TIP3   OH257951   3.713   0.130  16.270 -0.7630  0.3524 -0.4168
12179TIP3    H157952   3.786   0.174  16.226  0.3427 -1.3313 -0.3648
12179TIP3    H257953   3.648   0.117  16.201 -0.3171  0.4129 -0.8562
12180TIP3   OH257954   5.528   2.055  14.142  0.9163  0.9163  0.0675
12180TIP3    H157955   5.560   1.981  14.091  1.4441  1.0858  0.1512
12180TIP3    H257956   5.436   2.064  14.117  0.5228 -0.4748  0.8884
12181TIP3   OH257957   1.242   4.585  15.572  0.0288  0.2793  0.0850
12181TIP3    H157958   1.302   4.591  15.498 -1.1623  0.8866 -0.8633
12181TIP3    H257959   1.226   4.491  15.582  0.7735  0.1437  0.0577
12182TIP3   OH257960   4.444   3.485   6.594 -0.2187  0.1845 -0.3359
12182TIP3    H157961   4.454   3.391   6.607 -0.4319  0.2427  0.2602
12182TIP3    H257962   4.466   3.524   6.679 -0.8375  0.6220 -0.3665
12183TIP3   OH257963   1.977   6.423  13.927 -0.0212 -0.2653 -0.1808
12183TIP3    H157964   2.001   6.342  13.972 -0.5760  0.5649  1.6839
12183TIP3    H257965   2.060   6.466  13.907  0.3616 -1.8342 -2.3852
12184TIP3   OH257966   5.247   1.330   1.481 -0.3760  0.7231  0.0705
12184TIP3    H157967   5.222   1.317   1.389 -0.0114 -0.0349  0.0744
12184TIP3    H257968   5.211   1.254   1.526  2.2451 -0.6707  0.0117
12185TIP3   OH257969   3.510   4.938   0.280 -0.6632 -0.0174 -0.2226
12185TIP3    H157970   3.591   4.989   0.289  1.5237 -3.3124  0.6759
12185TIP3    H257971   3.454   4.970   0.351  0.0714  1.8946 -0.4410
12186TIP3   OH257972   5.418   4.520   3.760 -0.3113 -0.6244 -0.6557
12186TIP3    H157973   5.411   4.536   3.666  1.8234 -0.0626 -0.7720
12186TIP3    H257974   5.481   4.586   3.791  1.1948 -2.5538  0.6302
12187TIP3   OH257975   3.224   3.934   6.337 -0.2002  0.7380 -0.2320
12187TIP3    H157976   3.199   3.917   6.428 -0.3876 -0.8611 -0.5551
12187TIP3    H257977   3.229   4.030   6.332 -2.2457  0.9733  0.9196
12188TIP3   OH257978   5.638   4.452   3.115 -0.0013  0.4609 -0.3391
12188TIP3    H157979   5.716   4.407   3.148 -0.4915 -0.7876 -0.7975
12188TIP3    H257980   5.569   4.385   3.118 -0.9228  1.3793 -0.4565
12189TIP3   OH257981   0.880   2.638  12.607  0.4234 -0.7043 -0.5371
12189TIP3    H157982   0.923   2.657  12.691  1.9057  0.5564 -1.5444
12189TIP3    H257983   0.799   2.594  12.632  0.5227  0.1979  1.5903
12190TIP3   OH257984   5.768   0.497   3.129 -0.0067 -0.3039  0.2019
12190TIP3    H157985   5.841   0.447   3.168 -0.5429 -0.9973  0.3300
12190TIP3    H257986   5.701   0.432   3.110 -1.3338  0.5482  1.7366
12191TIP3   OH257987   5.626   3.775   3.869  0.0516  0.4625 -0.3160
12191TIP3    H157988   5.604   3.850   3.814 -1.8104 -0.2242 -0.5901
12191TIP3    H257989   5.567   3.782   3.944 -1.0868 -1.3551 -0.9638
12192TIP3   OH257990   6.405   2.158  12.630  0.0803 -0.1654  0.0394
12192TIP3    H157991   6.424   2.065  12.638  1.5496  0.0132 -1.0239
12192TIP3    H257992   6.475   2.200  12.681  0.1682  0.3895 -0.5335
12193TIP3   OH257993   3.061   1.309  15.031  0.0494  0.1865  0.0101
12193TIP3    H157994   3.059   1.403  15.016 -0.9131  0.4016  1.2677
12193TIP3    H257995   3.143   1.295  15.080  0.7331  0.1906 -1.1045
12194TIP3   OH257996   6.644   6.583   3.667  0.2088  0.3824 -0.5362
12194TIP3    H157997   6.616   6.523   3.598  1.6583 -0.0512 -0.7844
12194TIP3    H257998   6.565   6.630   3.692 -1.0262 -1.7701 -0.1884
12195TIP3   OH257999   6.726   3.037  15.358  0.4748 -0.2341  0.1149
12195TIP3    H158000   6.735   3.106  15.424 -0.6414 -0.9331  1.0394
12195TIP3    H258001   6.644   3.058  15.313 -0.6158 -1.6730  1.3369
12196TIP3   OH258002   6.505   0.911   2.142 -0.3073  0.1525  0.0058
12196TIP3    H158003   6.416   0.945   2.131 -0.0871  0.6111 -0.3801
12196TIP3    H258004   6.494   0.832   2.196 -1.0080 -0.1065 -0.5008
12197TIP3   OH258005   3.140   5.515   0.535  0.3597  0.7766 -0.2347
12197TIP3    H158006   3.046   5.500   0.520  0.9197 -1.3379 -2.3352
12197TIP3    H258007   3.169   5.436   0.581  0.9038  2.0912  1.7893
12198TIP3   OH258008   2.718   6.317   1.039  0.0653  0.0719  0.1364
12198TIP3    H158009   2.727   6.412   1.035  0.4390  0.0511  0.4285
12198TIP3    H258010   2.785   6.284   0.978 -0.7104  0.0135 -0.7155
12199TIP3   OH258011   2.174   5.393   3.540  0.3366  0.1868 -0.1312
12199TIP3    H158012   2.197   5.302   3.560  0.8259  0.1240 -0.9321
12199TIP3    H258013   2.111   5.418   3.608 -2.2618 -1.7396 -1.6682
12200TIP3   OH258014   4.840   4.273  12.433 -0.0856  0.1230  0.1900
12200TIP3    H158015   4.752   4.255  12.399 -0.0815  1.4716 -0.5970
12200TIP3    H258016   4.885   4.188  12.428 -0.4594 -0.0037 -2.1135
12201TIP3   OH258017   1.402   4.375  15.697 -0.0593 -0.6654  0.4766
12201TIP3    H158018   1.373   4.286  15.716 -1.9180  0.2060  2.1629
12201TIP3    H258019   1.329   4.430  15.726  0.4912  1.3651 -1.6763
12202TIP3   OH258020   1.581   0.782   1.721  0.1427  0.0756 -0.6283
12202TIP3    H158021   1.513   0.719   1.744  0.1888  0.4457  0.5930
12202TIP3    H258022   1.557   0.814   1.634 -0.4767 -0.8151 -0.7884
12203TIP3   OH258023   1.188   5.362   3.619 -0.7372  0.0620  0.7314
12203TIP3    H158024   1.194   5.323   3.532  0.4927  2.2345 -0.2515
12203TIP3    H258025   1.272   5.340   3.661 -0.1658  1.2851  0.2841
12204TIP3   OH258026   2.318   1.074   0.479 -0.0256  0.5251  0.0803
12204TIP3    H158027   2.344   1.043   0.392  1.2525  0.1600  0.5692
12204TIP3    H258028   2.228   1.044   0.489  0.0794 -0.1338 -0.8028
12205TIP3   OH258029   5.450   0.227   3.750  0.0608 -0.0162  0.2075
12205TIP3    H158030   5.464   0.284   3.826 -1.0720 -1.2408  1.3845
12205TIP3    H258031   5.356   0.207   3.752  0.1540 -0.6986 -1.0836
12206TIP3   OH258032   6.456   5.351   1.270  0.3057  0.6536  0.5613
12206TIP3    H158033   6.407   5.387   1.197  0.3368 -1.0902 -0.3719
12206TIP3    H258034   6.548   5.356   1.242  0.3827  0.6606  0.8071
12207TIP3   OH258035   1.037   1.107   0.701 -0.3136 -0.1791 -0.1167
12207TIP3    H158036   0.962   1.139   0.750  0.7552 -0.0859  1.5586
12207TIP3    H258037   1.109   1.166   0.727  0.8816 -1.7316  0.2841
12208TIP3   OH258038   2.549   2.593   2.368 -0.4675 -0.3830  0.5470
12208TIP3    H158039   2.529   2.637   2.451  0.3772  2.0439 -0.4795
12208TIP3    H258040   2.634   2.551   2.383 -0.6471 -0.5717  1.1000
12209TIP3   OH258041   6.562   1.233  13.499  0.1180 -0.1437  0.1458
12209TIP3    H158042   6.582   1.202  13.411  0.6209 -0.4325  0.3579
12209TIP3    H258043   6.647   1.235  13.544 -0.1908 -0.3947  0.7460
12210TIP3   OH258044   2.245   3.598  13.844 -0.1454  0.4504  0.0315
12210TIP3    H158045   2.262   3.662  13.774 -1.7197  2.1328  1.1050
12210TIP3    H258046   2.161   3.625  13.881  0.1753 -0.9868  1.9455
12211TIP3   OH258047   5.456   4.113   6.378 -0.8601 -0.5140 -0.1569
12211TIP3    H158048   5.551   4.114   6.367 -0.9756 -0.0677 -1.1869
12211TIP3    H258049   5.440   4.172   6.452 -0.4091  0.3590 -0.7322
12212TIP3   OH258050   2.808   1.144  13.680 -0.2850  0.2331 -0.0623
12212TIP3    H158051   2.832   1.104  13.597 -0.5933 -1.5536  0.6647
12212TIP3    H258052   2.891   1.170  13.719  0.2603 -2.4173  0.7301
12213TIP3   OH258053   1.903   1.614  15.738 -0.7555  0.0002  0.6199
12213TIP3    H158054   1.921   1.693  15.686 -1.9974 -0.0342  0.1139
12213TIP3    H258055   1.920   1.542  15.677 -2.2562 -0.0399  0.2208
12214TIP3   OH258056   0.533   1.909   2.653  0.0536 -0.0411 -0.1928
12214TIP3    H158057   0.618   1.906   2.609 -0.2808 -2.6465 -0.8519
12214TIP3    H258058   0.553   1.887   2.744  0.3612  2.2388  0.3572
12215TIP3   OH258059   0.815   5.369   4.127  0.0825 -0.3496  0.1079
12215TIP3    H158060   0.755   5.374   4.053 -1.8699  0.0046  1.6240
12215TIP3    H258061   0.794   5.286   4.170 -0.0992  0.2631  1.2553
12216TIP3   OH258062   1.103   3.491  12.433 -0.1561 -0.4190  0.1471
12216TIP3    H158063   1.091   3.485  12.338  0.3554  1.4539 -0.0857
12216TIP3    H258064   1.034   3.550  12.462 -0.0200 -0.6117  0.8823
12217TIP3   OH258065   5.108   3.603  14.716  0.6078 -0.1295 -0.1500
12217TIP3    H158066   5.198   3.588  14.745  1.5067  1.8101 -1.6666
12217TIP3    H258067   5.073   3.668  14.778  0.9778  0.6210 -0.7060
12218TIP3   OH258068   5.188   5.688  12.989 -0.4575 -0.3788 -0.0702
12218TIP3    H158069   5.170   5.635  13.067 -1.8986 -2.1211 -1.4985
12218TIP3    H258070   5.105   5.732  12.970 -0.4956 -0.9448 -1.2972
12219TIP3   OH258071   3.906   1.468  16.368 -0.0866 -0.1408  0.7268
12219TIP3    H158072   3.913   1.493  16.460 -0.1759  0.7438  0.5066
12219TIP3    H258073   3.982   1.412  16.352  0.3412  0.3126  1.1527
12220TIP3   OH258074   5.607   0.139   4.884 -0.4083  0.2995  0.5325
12220TIP3    H158075   5.541   0.189   4.932 -0.7263 -0.5508  1.0099
12220TIP3    H258076   5.637   0.198   4.815 -1.4812  0.7924  0.4703
12221TIP3   OH258077   4.135   1.982   5.129  0.2518 -0.0338  0.6992
12221TIP3    H158078   4.142   1.998   5.034  0.7216 -1.3903  0.4806
12221TIP3    H258079   4.103   2.065   5.165 -0.9518  0.1942 -0.7744
12222TIP3   OH258080   2.060   5.796   0.921 -0.1812  0.0502  0.1453
12222TIP3    H158081   2.031   5.879   0.959  0.8769  0.2828  0.4929
12222TIP3    H258082   2.067   5.737   0.996  0.7439  0.1604  0.1602
12223TIP3   OH258083   3.536   3.090   4.319 -0.2126 -0.0134 -0.6410
12223TIP3    H158084   3.506   3.027   4.253  0.7964 -1.0112 -0.1812
12223TIP3    H258085   3.545   3.038   4.399 -3.1744  1.5107  0.8587
12224TIP3   OH258086   4.287   1.949  16.612 -0.2603 -0.3900 -0.2920
12224TIP3    H158087   4.233   2.027  16.598 -0.1749 -0.3793 -0.5770
12224TIP3    H258088   4.316   1.924  16.524  1.0073  0.1909 -0.0711
12225TIP3   OH258089   6.496   3.980  16.904  0.6258 -0.4052  0.6168
12225TIP3    H158090   6.566   3.926  16.866  1.0802  0.5019  0.1388
12225TIP3    H258091   6.422   3.968  16.844  0.6084 -0.7657  0.7055
12226TIP3   OH258092   2.431   2.464   0.121  0.2845 -0.0558 -1.1983
12226TIP3    H158093   2.345   2.465   0.079 -0.3589  0.2152  0.0702
12226TIP3    H258094   2.474   2.386   0.088 -0.5044 -0.2657 -1.7416
12227TIP3   OH258095   0.169   4.517   3.245 -0.5198 -0.0072 -0.3245
12227TIP3    H158096   0.098   4.467   3.284 -0.0576  0.6680  1.4941
12227TIP3    H258097   0.126   4.574   3.181 -1.8830  1.3474  1.6677
12228TIP3   OH258098   5.833   6.012   2.144 -0.0982  0.4198  0.3617
12228TIP3    H158099   5.832   6.055   2.059 -1.2223 -0.1083  0.0848
12228TIP3    H258100   5.883   6.071   2.200 -0.7596  1.5945 -0.2409
12229TIP3   OH258101   4.610   3.083  16.324 -0.0358 -0.4321 -0.2046
12229TIP3    H158102   4.555   3.150  16.283  0.3643 -1.3066 -2.2856
12229TIP3    H258103   4.682   3.132  16.362  0.2070  0.3761 -1.6282
12230TIP3   OH258104   4.819   6.612   5.662  0.0394 -0.1668  0.7152
12230TIP3    H158105   4.818   6.533   5.716  0.0324 -0.7424 -0.1044
12230TIP3    H258106   4.728   6.642   5.660  0.1489  0.2649  1.5815
12231TIP3   OH258107   4.855   3.452  15.407  0.0506 -0.0101 -0.1534
12231TIP3    H158108   4.911   3.394  15.458 -0.2227 -0.5048 -0.3998
12231TIP3    H258109   4.766   3.425  15.429 -0.0962  0.8116  0.2843
12232TIP3   OH258110   0.651   0.336   1.401 -0.7527 -0.2673 -0.0621
12232TIP3    H158111   0.564   0.376   1.406 -0.2761  1.1617 -2.0606
12232TIP3    H258112   0.685   0.340   1.490 -1.1382  2.9113  0.0305
12233TIP3   OH258113   1.200   0.926   1.216  0.0612 -0.2379  0.2997
12233TIP3    H158114   1.112   0.958   1.195  0.3428  0.9068  0.8052
12233TIP3    H258115   1.185   0.840   1.256 -0.6004 -1.8660 -3.0760
12234TIP3   OH258116   0.554   6.639   6.385  0.0405 -0.0809  0.7607
12234TIP3    H158117   0.551   6.708   6.451 -1.2351  0.6984 -0.0670
12234TIP3    H258118   0.635   6.656   6.335 -0.8497  1.5926 -0.2015
12235TIP3   OH258119   1.225   3.058   2.611  0.2198  0.2299  0.6576
12235TIP3    H158120   1.321   3.059   2.618  0.3426  1.6502 -0.7943
12235TIP3    H258121   1.207   2.981   2.557  0.2573 -1.8589  3.3883
12236TIP3   OH258122   2.616   6.808   0.156  0.2179 -0.6031  0.0195
12236TIP3    H158123   2.702   6.770   0.137  0.3665 -0.8705  1.1645
12236TIP3    H258124   2.577   6.748   0.219 -0.1534  0.3685  0.7230
12237TIP3   OH258125   4.368   4.786   3.587  0.0102 -0.2893 -0.4012
12237TIP3    H158126   4.442   4.822   3.635  1.3858 -1.2361 -1.7110
12237TIP3    H258127   4.362   4.839   3.508  0.6928 -1.5124 -1.3186
12238TIP3   OH258128   1.643   6.383  15.988 -0.1929  0.0840  0.3397
12238TIP3    H158129   1.724   6.403  16.035 -0.9582  1.9266  0.9649
12238TIP3    H258130   1.671   6.365  15.898  0.9693 -0.0297  0.7092
12239TIP3   OH258131   1.501   0.507   4.903  0.1601  0.0101  0.2929
12239TIP3    H158132   1.570   0.565   4.869  0.1856  1.3877  2.5217
12239TIP3    H258133   1.517   0.503   4.997 -1.6750 -1.2059  0.6030
12240TIP3   OH258134   0.067   4.492  14.858  0.4062 -0.2779 -0.0414
12240TIP3    H158135   0.101   4.493  14.947  1.1864 -2.0247 -0.2882
12240TIP3    H258136   0.042   4.583  14.841  3.5480  0.8465  0.6973
12241TIP3   OH258137   3.426   4.689   0.224 -0.2937  0.1809 -0.2394
12241TIP3    H158138   3.469   4.774   0.228 -0.5757  0.4451 -1.8763
12241TIP3    H258139   3.494   4.629   0.197 -0.2493  0.0042  0.2553
12242TIP3   OH258140   5.363   5.304   3.513  0.1446 -0.9895 -0.1541
12242TIP3    H158141   5.432   5.269   3.568  0.5925  1.4445  0.9589
12242TIP3    H258142   5.298   5.234   3.508  1.4302 -2.3255  1.0429
12243TIP3   OH258143   2.813   0.537  11.683  0.0216 -0.3016  0.3263
12243TIP3    H158144   2.780   0.448  11.694 -2.6826  0.7416  1.8004
12243TIP3    H258145   2.820   0.571  11.772 -1.0745  1.5899 -0.2448
12244TIP3   OH258146   1.071   4.265  12.997  0.5565  0.3853 -0.4004
12244TIP3    H158147   1.048   4.243  12.906 -1.1993 -0.8371  0.2882
12244TIP3    H258148   1.095   4.181  13.036 -0.1034  0.6598  0.6243
12245TIP3   OH258149   1.612   1.044   3.284 -0.0557 -0.6523 -0.4067
12245TIP3    H158150   1.690   0.990   3.267  0.7817  0.7908 -1.3169
12245TIP3    H258151   1.624   1.077   3.373  0.5908 -0.1179 -0.6829
12246TIP3   OH258152   4.871   3.345  12.749  0.3611  0.0724 -0.2552
12246TIP3    H158153   4.908   3.433  12.743 -0.8378  0.7179  1.0036
12246TIP3    H258154   4.929   3.290  12.697  2.4819  1.1832  0.8269
12247TIP3   OH258155   1.293   2.893  15.455  0.2774 -0.0886  0.6815
12247TIP3    H158156   1.370   2.877  15.401  2.6608  0.8668  3.5237
12247TIP3    H258157   1.299   2.985  15.481 -1.5547 -0.1222  1.4245
12248TIP3   OH258158   5.884   0.529  14.847  0.1520 -0.0393  0.0314
12248TIP3    H158159   5.843   0.485  14.922  0.7336  2.1855  1.7437
12248TIP3    H258160   5.826   0.602  14.827  0.2397 -0.3452 -1.4474
12249TIP3   OH258161   2.790   4.089   5.136  0.3622 -0.1251 -0.0998
12249TIP3    H158162   2.695   4.097   5.136  0.3227 -0.4767 -0.9522
12249TIP3    H258163   2.817   4.124   5.221 -0.6231 -1.3513  0.7619
12250TIP3   OH258164   2.212   6.565  15.367 -0.1378  0.2459 -0.4564
12250TIP3    H158165   2.205   6.470  15.367  1.1945  0.1057 -1.9107
12250TIP3    H258166   2.297   6.583  15.405  0.9920  0.6371 -2.9556
12251TIP3   OH258167   0.838   5.418   4.408 -0.7036 -0.0171  0.2820
12251TIP3    H158168   0.848   5.405   4.314  0.2635  1.5370  0.1305
12251TIP3    H258169   0.817   5.511   4.418  1.4804  0.4167  1.6829
12252TIP3   OH258170   3.346   2.211   1.123 -0.1211 -0.0408 -0.0788
12252TIP3    H158171   3.330   2.149   1.194 -0.3328  0.7173  0.5444
12252TIP3    H258172   3.283   2.186   1.055 -0.7935  0.0226  0.5083
12253TIP3   OH258173   5.930   1.513  10.668  0.2495  0.2427 -0.2143
12253TIP3    H158174   5.982   1.547  10.595  1.4107 -0.7635  0.1113
12253TIP3    H258175   5.987   1.523  10.745  0.6609 -2.3302 -0.0993
12254TIP3   OH258176   2.686   5.897  15.928  0.3592 -0.2810 -0.0286
12254TIP3    H158177   2.679   5.930  15.839 -1.4915  1.4574  0.6774
12254TIP3    H258178   2.727   5.967  15.978 -4.3050  1.6921  1.6464
12255TIP3   OH258179   0.309   4.558  14.171  0.1590 -0.2431 -0.2286
12255TIP3    H158180   0.315   4.629  14.107  0.8562 -0.6901 -0.6787
12255TIP3    H258181   0.306   4.602  14.256  2.1336  0.3294 -0.4000
12256TIP3   OH258182   5.415   3.961  14.614 -0.1049 -0.1356 -0.6265
12256TIP3    H158183   5.379   4.045  14.586  1.9885  0.6222 -1.2198
12256TIP3    H258184   5.377   3.896  14.554 -0.2880  0.6579 -1.3797
12257TIP3   OH258185   6.421   1.118   2.403  0.0023 -0.5363 -1.0242
12257TIP3    H158186   6.364   1.042   2.417  0.0029 -0.7085 -1.9112
12257TIP3    H258187   6.432   1.156   2.490 -1.9322 -0.1533 -0.8979
12258TIP3   OH258188   6.655   3.905   4.145 -0.2989  0.1497 -0.1334
12258TIP3    H158189   6.717   3.882   4.214 -0.8262 -2.6468 -0.4624
12258TIP3    H258190   6.690   3.864   4.066 -1.0062  1.1347 -0.9792
12259TIP3   OH258191   0.961   3.315  11.976 -0.4327  0.9340 -0.4268
12259TIP3    H158192   1.016   3.371  11.921 -1.4064  1.7270 -0.6228
12259TIP3    H258193   0.872   3.334  11.948 -0.9205  0.9435  1.0489
12260TIP3   OH258194   3.141   4.416  13.192 -0.0188  0.2250 -0.2639
12260TIP3    H158195   3.071   4.450  13.248 -0.3158 -0.3387 -0.2880
12260TIP3    H258196   3.135   4.321  13.201  0.4286  0.1563 -0.6531
12261TIP3   OH258197   1.722   1.313  13.887  0.0573  0.3408 -0.1073
12261TIP3    H158198   1.666   1.391  13.889  1.5540  1.4952 -1.1831
12261TIP3    H258199   1.666   1.245  13.848 -1.2055  0.8987  0.6501
12262TIP3   OH258200   3.115   0.019   4.202  0.1367 -0.0348 -0.3000
12262TIP3    H158201   3.102   0.051   4.112  1.5973  0.9326 -0.1923
12262TIP3    H258202   3.072   0.084   4.257  1.6960  0.9207 -0.1686
12263TIP3   OH258203   3.751   1.167   0.991  0.2355 -0.2952 -0.0217
12263TIP3    H158204   3.713   1.083   1.016 -1.0892  0.5685  0.9657
12263TIP3    H258205   3.685   1.232   1.013  1.0806  1.0030 -1.1049
12264TIP3   OH258206   0.273   4.750   0.704 -0.2604 -0.1670 -0.0628
12264TIP3    H158207   0.182   4.748   0.733 -0.8919  0.2506 -1.8676
12264TIP3    H258208   0.322   4.707   0.774 -1.7874 -0.0644  1.1142
12265TIP3   OH258209   3.952   6.039  12.602 -0.3875  0.2528  0.2283
12265TIP3    H158210   3.954   5.972  12.670 -1.2806  1.2560  1.2936
12265TIP3    H258211   4.043   6.070  12.597 -0.0916 -0.6067  0.1540
12266TIP3   OH258212   5.280   4.828   2.102  0.0918 -0.5430 -0.4032
12266TIP3    H158213   5.220   4.755   2.117 -1.3539  0.0692 -2.6304
12266TIP3    H258214   5.229   4.906   2.123  0.3576 -0.0472 -1.5060
12267TIP3   OH258215   3.277   2.259  14.276 -0.9718 -0.2362  0.3465
12267TIP3    H158216   3.363   2.215  14.275 -0.7403  0.2122 -0.0736
12267TIP3    H258217   3.256   2.268  14.368 -1.2674 -1.6975  0.4413
12268TIP3   OH258218   4.295   4.909  15.925  0.2899  0.2425 -0.0573
12268TIP3    H158219   4.354   4.865  15.985 -0.6791  0.0748  0.8061
12268TIP3    H258220   4.221   4.937  15.980 -0.9963 -0.5875 -1.2807
12269TIP3   OH258221   5.167   5.603  14.513 -0.7010  0.2851 -0.0268
12269TIP3    H158222   5.112   5.559  14.449 -0.6434  0.2474 -0.0500
12269TIP3    H258223   5.257   5.585  14.485 -0.6215  2.9028 -1.8317
12270TIP3   OH258224   0.800   6.234  16.996 -0.1279  0.4807 -0.2094
12270TIP3    H158225   0.709   6.231  17.026 -0.1359  0.0517 -0.2610
12270TIP3    H258226   0.809   6.156  16.941  0.9861 -0.9631  1.8969
12271TIP3   OH258227   4.968   4.285   4.851  0.8274 -0.4071  0.6846
12271TIP3    H158228   4.922   4.318   4.774  1.4682 -0.9149  0.0730
12271TIP3    H258229   5.056   4.323   4.844  0.8544 -0.3595  1.2368
12272TIP3   OH258230   2.592   2.355   5.974 -0.0385  0.0895  0.1384
12272TIP3    H158231   2.666   2.298   5.995  0.2388 -0.1143 -1.3020
12272TIP3    H258232   2.625   2.443   5.992  0.8630  0.0659 -1.2484
12273TIP3   OH258233   4.022   0.122  13.952 -0.0493  0.4040 -0.2011
12273TIP3    H158234   4.009   0.096  14.043  0.2524  0.3386 -0.1773
12273TIP3    H258235   4.058   0.044  13.910  1.9120  1.0815  0.1105
12274TIP3   OH258236   5.660   6.223   0.840  0.3244 -0.4550 -0.5071
12274TIP3    H158237   5.572   6.226   0.877 -0.1721 -2.6810 -1.3342
12274TIP3    H258238   5.671   6.307   0.796 -0.8739  0.3624  0.6861
12275TIP3   OH258239   3.059   2.657  11.930  0.1560  0.1169  0.4447
12275TIP3    H158240   3.153   2.652  11.912  0.0462  0.4151 -0.2266
12275TIP3    H258241   3.020   2.691  11.849 -0.4436  0.6865  0.9555
12276TIP3   OH258242   5.029   5.369   2.351 -0.6127 -0.1300 -0.6527
12276TIP3    H158243   5.109   5.417   2.375 -1.0209  0.1012  0.3219
12276TIP3    H258244   5.027   5.371   2.256  0.2647  0.3309 -0.6708
12277TIP3   OH258245   1.975   1.732  10.757  0.2456  0.3357 -0.3673
12277TIP3    H158246   2.015   1.651  10.724  0.8693  0.6214 -0.3410
12277TIP3    H258247   2.041   1.767  10.817 -0.7180  0.0145  0.8964
12278TIP3   OH258248   3.020   0.485  12.182 -0.0809 -0.0690  0.2070
12278TIP3    H158249   3.076   0.417  12.220 -0.5547 -1.4171 -1.4053
12278TIP3    H258250   2.971   0.520  12.257  0.2733 -1.3943  1.0893
12279TIP3   OH258251   3.544   1.600  12.896  0.5129 -0.3307  0.5677
12279TIP3    H158252   3.621   1.584  12.951  1.7379  0.9034 -0.7010
12279TIP3    H258253   3.521   1.514  12.862  1.2412 -0.7492  1.0853
12280TIP3   OH258254   3.958   2.533  11.172  0.5843 -0.2452  0.7013
12280TIP3    H158255   3.971   2.542  11.077  0.3967 -0.8998  0.6122
12280TIP3    H258256   3.875   2.579  11.189  0.2384 -0.7601  0.4301
12281TIP3   OH258257   0.629   6.372  13.268  0.0438  0.9415 -0.2570
12281TIP3    H158258   0.665   6.458  13.292 -0.4781  0.5765  2.1264
12281TIP3    H258259   0.534   6.383  13.278 -0.1146  0.3903 -1.0787
12282TIP3   OH258260   1.374   1.154   2.861  0.0925 -0.0975 -0.2039
12282TIP3    H158261   1.384   1.080   2.921  1.0086 -1.2349 -1.6927
12282TIP3    H258262   1.373   1.114   2.774 -0.2672  1.5808 -1.0084
12283TIP3   OH258263   2.048   6.227   3.134  0.2817 -0.2740  0.2659
12283TIP3    H158264   2.074   6.241   3.043  1.8960 -0.7962  0.6104
12283TIP3    H258265   2.102   6.154   3.164  1.4850  1.3355  2.2885
12284TIP3   OH258266   4.654   4.875   5.663 -0.1188 -0.1919 -0.4886
12284TIP3    H158267   4.660   4.793   5.613 -0.9807  0.0913 -1.0855
12284TIP3    H258268   4.687   4.853   5.750  1.8492 -0.5913 -1.2875
12285TIP3   OH258269   0.818   0.551  11.149 -0.5244 -0.1484 -0.1716
12285TIP3    H158270   0.746   0.494  11.176 -0.8479  0.7916  1.0645
12285TIP3    H258271   0.786   0.595  11.070 -0.8648 -0.5468 -0.2587
12286TIP3   OH258272   2.171   0.527   4.046  0.2480  0.3558 -0.1444
12286TIP3    H158273   2.162   0.619   4.068  1.0887  0.3222  0.3972
12286TIP3    H258274   2.089   0.487   4.074 -0.0491  0.9115 -0.2251
12287TIP3   OH258275   5.991   5.197  11.727  0.4310 -0.0515 -0.3114
12287TIP3    H158276   6.063   5.134  11.730  1.0669  0.6953  0.5471
12287TIP3    H258277   5.943   5.182  11.808  0.0084 -0.0854 -0.5645
12288TIP3   OH258278   6.210   3.310   6.118 -0.6153  0.2140  0.1492
12288TIP3    H158279   6.147   3.300   6.046 -0.5584 -0.5049  0.1902
12288TIP3    H258280   6.262   3.230   6.115  0.1523  0.7027  0.2623
12289TIP3   OH258281   2.431   6.292   1.017  0.6838  0.3652 -0.0635
12289TIP3    H158282   2.527   6.293   1.025  0.8730  0.7852 -1.9517
12289TIP3    H258283   2.407   6.202   1.038  1.6289 -0.0477 -0.6519
12290TIP3   OH258284   5.742   4.853  16.104  0.6823 -0.1727  0.0865
12290TIP3    H158285   5.788   4.911  16.165 -1.2816  0.6682  0.8523
12290TIP3    H258286   5.700   4.788  16.161 -0.9916  0.4944 -0.3005
12291TIP3   OH258287   0.736   2.386  15.523 -0.1066 -0.2520  0.1031
12291TIP3    H158288   0.757   2.479  15.532  0.3454 -0.3418  0.0131
12291TIP3    H258289   0.819   2.345  15.499  0.2415 -1.0131  2.3684
12292TIP3   OH258290   1.290   2.326  15.434 -0.4036  0.3525  0.0734
12292TIP3    H158291   1.356   2.257  15.434  1.1098  1.6605  2.2241
12292TIP3    H258292   1.327   2.395  15.489 -2.9078  1.8582  0.0616
12293TIP3   OH258293   5.825   3.369   1.783 -0.4435 -0.5996 -0.0263
12293TIP3    H158294   5.870   3.299   1.831 -2.8193 -2.6388 -0.5325
12293TIP3    H258295   5.893   3.410   1.730  1.0584 -2.6107  0.2245
12294TIP3   OH258296   1.017   0.189   1.561 -0.1684  0.4119 -0.1850
12294TIP3    H158297   1.026   0.259   1.626 -0.8883  0.0828  0.2890
12294TIP3    H258298   1.097   0.137   1.569 -0.8032 -0.3813  1.3655
12295TIP3   OH258299   2.889   2.157   0.699 -0.6592 -0.3254 -0.1862
12295TIP3    H158300   2.911   2.063   0.698  1.8944  0.2007  0.5406
12295TIP3    H258301   2.889   2.180   0.791  0.0266  0.6493 -0.4194
12296TIP3   OH258302   3.922   2.045  12.917  0.3544 -0.7530 -0.3301
12296TIP3    H158303   3.831   2.045  12.949  0.4061 -1.5258 -0.1581
12296TIP3    H258304   3.965   2.113  12.969 -0.1880 -0.1713 -0.6197
12297TIP3   OH258305   4.758   6.277  11.728  0.5014 -0.0410  0.1335
12297TIP3    H158306   4.799   6.195  11.702  0.7208  0.7832 -2.3472
12297TIP3    H258307   4.831   6.337  11.742  0.3000  0.0477  0.8485
12298TIP3   OH258308   3.430   2.467   0.120 -0.9750  0.2288  0.0772
12298TIP3    H158309   3.458   2.558   0.111 -1.4480  0.1491 -3.3588
12298TIP3    H258310   3.495   2.417   0.072 -0.0082 -1.5316  2.9643
12299TIP3   OH258311   1.037   5.015  15.641 -0.5367  0.5796 -0.2899
12299TIP3    H158312   1.033   4.923  15.613 -1.5054  1.0304 -1.7473
12299TIP3    H258313   0.985   5.018  15.721 -3.1073  0.3608 -1.8428
12300TIP3   OH258314   1.081   6.412  13.894 -0.5991  0.0646 -0.8553
12300TIP3    H158315   1.121   6.330  13.866 -0.0766 -0.2091  0.5713
12300TIP3    H258316   1.084   6.408  13.990 -1.1609  1.4608 -0.7537
12301TIP3   OH258317   5.833   1.532  11.039  0.3298 -0.6969 -0.0609
12301TIP3    H158318   5.872   1.576  11.115 -0.8013 -2.5027  1.6894
12301TIP3    H258319   5.898   1.465  11.015  0.3557 -0.6249 -0.1906
12302TIP3   OH258320   2.130   0.228  11.988  0.0160  0.6112 -0.3283
12302TIP3    H158321   2.172   0.178  12.058 -0.4197 -0.8489 -1.0703
12302TIP3    H258322   2.160   0.187  11.908 -1.4620  0.6282 -0.9258
12303TIP3   OH258323   1.889   0.362   2.245  0.2891  0.2322  0.2847
12303TIP3    H158324   1.803   0.360   2.287 -0.5111 -0.7626 -1.2969
12303TIP3    H258325   1.950   0.334   2.313 -0.7022  0.5081  1.3019
12304TIP3   OH258326   6.752   1.456   3.736 -0.1703  0.5077 -0.4183
12304TIP3    H158327   6.799   1.482   3.816  0.4984  2.4297 -1.3826
12304TIP3    H258328   6.663   1.488   3.750 -0.0407  0.8919 -0.4502
12305TIP3   OH258329   4.599   4.860  16.571  0.1695  0.3969  0.1751
12305TIP3    H158330   4.554   4.808  16.638 -1.0341  0.4174 -0.5969
12305TIP3    H258331   4.548   4.846  16.491  2.2340 -0.5835 -1.0548
12306TIP3   OH258332   1.268   5.123  14.219  0.0641 -0.0446  0.7174
12306TIP3    H158333   1.337   5.058  14.202 -0.9145 -0.4076 -2.4991
12306TIP3    H258334   1.192   5.070  14.245  0.0568  0.0865  0.9681
12307TIP3   OH258335   2.117   0.918   2.403 -0.5436  0.2369  0.1536
12307TIP3    H158336   2.182   0.934   2.335 -0.8929 -0.6894 -0.4227
12307TIP3    H258337   2.074   1.002   2.415  3.0962  1.9548  3.1589
12308TIP3   OH258338   3.612   0.732  13.096  0.5537  0.6656  0.0082
12308TIP3    H158339   3.600   0.805  13.035  1.4393 -0.1712 -1.2192
12308TIP3    H258340   3.705   0.735  13.118  0.5553  0.0282  0.0972
12309TIP3   OH258341   6.403   4.848  17.038  0.3556 -0.1841  0.2911
12309TIP3    H158342   6.482   4.899  17.058 -0.0202  0.5369 -0.0386
12309TIP3    H258343   6.404   4.840  16.942 -0.8508  1.2981  0.1155
12310TIP3   OH258344   2.544   4.944   3.394 -0.0230 -0.0808 -0.0561
12310TIP3    H158345   2.459   4.964   3.434  0.6351 -1.1784  2.0527
12310TIP3    H258346   2.600   5.017   3.419 -0.4233  0.9336 -1.9313
12311TIP3   OH258347   2.990   5.880   0.344  0.5484  0.2025 -0.2715
12311TIP3    H158348   3.008   5.962   0.391  1.2153  0.9937 -1.8128
12311TIP3    H258349   2.967   5.817   0.412  3.2842  0.7628  1.2991
12312TIP3   OH258350   0.361   3.942   0.198 -0.4230  0.1908  0.0277
12312TIP3    H158351   0.419   4.018   0.207  1.7950 -1.4512  0.5978
12312TIP3    H258352   0.397   3.894   0.123 -1.3106 -0.6873  0.1414
12313TIP3   OH258353   3.078   4.986   5.203  0.6979  0.0739  0.6248
12313TIP3    H158354   3.058   5.040   5.280 -0.1917  0.3292  0.2335
12313TIP3    H258355   3.171   4.967   5.210  1.5765  3.3420 -0.2633
12314TIP3   OH258356   3.682   4.730   3.985  0.3631 -0.2622 -0.3010
12314TIP3    H158357   3.682   4.775   4.069 -1.3425  0.4868 -0.6532
12314TIP3    H258358   3.606   4.671   3.988 -0.4921  0.6866 -1.7298
12315TIP3   OH258359   1.897   3.423   3.877  0.3332 -0.5533  0.4641
12315TIP3    H158360   1.857   3.509   3.893 -0.1756 -0.7349  0.1728
12315TIP3    H258361   1.823   3.362   3.872  0.7315 -1.1670  1.6134
12316TIP3   OH258362   0.730   1.016   4.174  0.0049  0.3890 -0.3484
12316TIP3    H158363   0.645   1.059   4.167 -0.5720 -0.5289  0.7207
12316TIP3    H258364   0.777   1.043   4.095 -0.5136  2.5210  0.0107
12317TIP3   OH258365   5.608   6.600   2.403 -0.2933 -0.0843 -0.1821
12317TIP3    H158366   5.666   6.635   2.336 -1.3900 -0.9999 -1.6643
12317TIP3    H258367   5.550   6.673   2.425  0.2530  0.3048 -0.0057
12318TIP3   OH258368   1.872   3.312   5.566  0.2209  0.3731 -0.4708
12318TIP3    H158369   1.837   3.388   5.519  2.6138  2.7527  1.2960
12318TIP3    H258370   1.830   3.315   5.652  0.2899 -0.3973 -0.3988
12319TIP3   OH258371   6.645   1.488  11.304 -0.6031 -0.1715 -0.2823
12319TIP3    H158372   6.667   1.398  11.329  2.0431  0.5137  0.1631
12319TIP3    H258373   6.637   1.485  11.208  2.3834 -0.4139 -0.6034
12320TIP3   OH258374   5.615   2.469   4.534 -0.4502  0.4500  0.3850
12320TIP3    H158375   5.676   2.482   4.606  1.2435  0.8852 -1.0619
12320TIP3    H258376   5.573   2.554   4.523  0.3871  0.8070 -0.0952
12321TIP3   OH258377   4.904   1.639   0.297 -0.2570  0.2337  0.3585
12321TIP3    H158378   4.995   1.660   0.277 -0.2362 -1.4238 -1.7067
12321TIP3    H258379   4.852   1.696   0.241 -0.3478 -1.1448 -1.0195
12322TIP3   OH258380   6.310   6.803   3.279 -0.0870 -0.0807  0.0518
12322TIP3    H158381   6.289   6.796   3.186 -0.1937 -0.7114  0.1159
12322TIP3    H258382   6.239   6.854   3.317  0.8183  1.6632 -0.4873
12323TIP3   OH258383   2.297   5.943  15.941  0.3971 -0.0444  0.3720
12323TIP3    H158384   2.280   5.899  16.024 -1.2699 -0.8425 -0.3275
12323TIP3    H258385   2.309   6.035  15.964  0.6139 -0.3583  1.5510
12324TIP3   OH258386   3.584   4.081   2.635 -0.0821  0.9875  0.0597
12324TIP3    H158387   3.674   4.088   2.602 -0.0568  1.2578  0.1803
12324TIP3    H258388   3.530   4.104   2.559 -0.0417  1.0273  0.0422
12325TIP3   OH258389   5.835   5.946  14.405  0.5628  0.7583 -0.2152
12325TIP3    H158390   5.843   5.929  14.311 -3.2438 -2.0678 -0.2968
12325TIP3    H258391   5.779   6.024  14.410 -1.0895 -0.3729 -0.4258
12326TIP3   OH258392   4.119   0.030   1.046 -0.8949 -0.0404 -0.0482
12326TIP3    H158393   4.211   0.052   1.055 -1.1526  0.9616  0.2567
12326TIP3    H258394   4.095  -0.007   1.131 -0.6688 -0.7334 -0.2803
12327TIP3   OH258395   2.189   2.429  10.520 -0.1118 -1.2490  0.0529
12327TIP3    H158396   2.220   2.368  10.587  0.7574 -0.9248 -0.0434
12327TIP3    H258397   2.125   2.484  10.564  1.2645 -0.2994  0.9431
12328TIP3   OH258398   2.913   1.226  16.862  0.7030 -0.0618 -0.4020
12328TIP3    H158399   2.962   1.188  16.788  0.7708  0.8915 -0.8648
12328TIP3    H258400   2.826   1.245  16.826  1.0677  1.4247 -0.5889
12329TIP3   OH258401   6.068   2.041   5.280  0.0334  0.3441  0.6994
12329TIP3    H158402   5.976   2.022   5.259  0.7768 -0.6470 -2.1281
12329TIP3    H258403   6.100   1.960   5.320 -0.1592  0.4846  1.1469
12330TIP3   OH258404   0.461   2.218   3.140  0.3045 -0.6239  0.0895
12330TIP3    H158405   0.556   2.234   3.138  0.0710  0.8762 -0.0412
12330TIP3    H258406   0.448   2.164   3.218  1.1416  0.0602  0.7286
12331TIP3   OH258407   6.809   3.483  12.602 -0.5713  0.4070 -0.5838
12331TIP3    H158408   6.900   3.500  12.574 -0.8220 -0.3608 -1.9894
12331TIP3    H258409   6.818   3.442  12.688  0.4212  0.3370 -0.6987
12332TIP3   OH258410   1.733   6.439   1.872 -0.2922  0.1794 -0.1553
12332TIP3    H158411   1.672   6.369   1.848  0.6236 -1.0284  0.9396
12332TIP3    H258412   1.784   6.403   1.944  0.6910  1.7304 -0.0387
12333TIP3   OH258413   2.325   4.777  11.264 -0.0454 -0.2924  0.4385
12333TIP3    H158414   2.381   4.821  11.200  0.6391 -0.4886  0.8880
12333TIP3    H258415   2.290   4.702  11.216 -1.1290  0.6525 -0.2939
12334TIP3   OH258416   6.623   1.520  12.082  0.5378  0.5205 -0.1927
12334TIP3    H158417   6.570   1.460  12.134 -0.9914  0.2321 -1.9661
12334TIP3    H258418   6.560   1.561  12.022  2.1369  1.1198 -1.5250
12335TIP3   OH258419   4.592   6.032   1.177 -0.5248  0.0695 -0.4631
12335TIP3    H158420   4.509   6.023   1.225 -1.0913 -0.3520 -1.5001
12335TIP3    H258421   4.645   5.958   1.208 -1.4675 -1.1210 -1.6072
12336TIP3   OH258422   6.105   5.966  15.475 -0.1603  0.0584  0.1009
12336TIP3    H158423   6.088   5.937  15.386 -1.3874  0.6012  0.1518
12336TIP3    H258424   6.185   5.919  15.500 -0.1440 -0.5617 -1.0593
12337TIP3   OH258425   0.981   0.560  13.123 -0.0540 -0.2496 -0.0707
12337TIP3    H158426   1.074   0.565  13.100 -0.2564 -1.0924 -1.1666
12337TIP3    H258427   0.972   0.477  13.168 -0.2199 -0.0019  0.3588
12338TIP3   OH258428   3.515   1.036  16.218 -0.9760  0.1165 -0.2422
12338TIP3    H158429   3.421   1.030  16.234 -0.9721 -0.8794 -0.4991
12338TIP3    H258430   3.554   0.978  16.284 -0.4206  1.6338  0.8157
12339TIP3   OH258431   0.459   0.233  16.252 -0.0123 -0.1835 -0.1862
12339TIP3    H158432   0.497   0.154  16.290  0.6637 -0.4843 -1.4317
12339TIP3    H258433   0.365   0.223  16.265  0.1671 -0.4978  0.9511
12340TIP3   OH258434   0.413   6.810   5.206  0.0567 -0.6149 -0.3116
12340TIP3    H158435   0.384   6.850   5.288  0.4361 -1.5559  0.2965
12340TIP3    H258436   0.460   6.880   5.161  0.7378 -0.3645  0.7453
12341TIP3   OH258437   4.837   6.538  16.174  0.1722 -0.5817 -0.5296
12341TIP3    H158438   4.801   6.594  16.244 -0.6990 -1.6724 -0.0803
12341TIP3    H258439   4.919   6.581  16.150 -0.5413  0.9818 -0.3160
12342TIP3   OH258440   3.571   3.826   1.460 -0.0298 -0.4638  0.1699
12342TIP3    H158441   3.508   3.883   1.415  0.6176  0.0304 -0.1292
12342TIP3    H258442   3.528   3.741   1.463  0.4891 -0.9546 -2.8340
12343TIP3   OH258443   2.998   4.627   1.146 -0.4776  0.2930 -0.2486
12343TIP3    H158444   3.071   4.589   1.195 -1.4748 -1.4468 -0.0576
12343TIP3    H258445   2.973   4.560   1.083 -2.4202  0.5349  0.2077
12344TIP3   OH258446   3.703   1.546  15.149  0.3322  0.4185  0.3002
12344TIP3    H158447   3.633   1.487  15.119  1.0724 -0.4840  0.3101
12344TIP3    H258448   3.722   1.516  15.238 -0.4676  1.8020  0.9791
12345TIP3   OH258449   1.477   3.810   3.195 -0.0887 -0.2197  0.1037
12345TIP3    H158450   1.444   3.723   3.217 -1.0066  0.2177  0.5243
12345TIP3    H258451   1.414   3.845   3.133  1.6156 -0.7980 -2.0668
12346TIP3   OH258452   6.576   0.680   4.834 -0.1200  0.4384  0.3858
12346TIP3    H158453   6.577   0.740   4.908 -0.9470  0.2859  0.5420
12346TIP3    H258454   6.622   0.725   4.764  1.1104  0.3814  1.1402
12347TIP3   OH258455   6.768   5.172   3.360 -0.2122 -0.5390 -0.1236
12347TIP3    H158456   6.804   5.085   3.377  1.2811  0.2025  0.7170
12347TIP3    H258457   6.825   5.208   3.291  0.9149  0.7476  1.4063
12348TIP3   OH258458   4.603   2.061   2.185  0.5537 -0.1461  0.3129
12348TIP3    H158459   4.530   2.079   2.126  0.3194  0.9527  0.9100
12348TIP3    H258460   4.576   1.984   2.235 -0.3813  0.4923  0.8101
12349TIP3   OH258461   0.960   3.281   5.657  0.0684  0.5697 -0.7598
12349TIP3    H158462   0.873   3.243   5.673  0.1581  0.2684 -0.9662
12349TIP3    H258463   0.971   3.346   5.726 -0.3019  0.5751 -0.7018
12350TIP3   OH258464   5.728   4.218  10.627  0.1369 -0.3411  0.1155
12350TIP3    H158465   5.815   4.221  10.668  0.5821  0.2173 -0.8317
12350TIP3    H258466   5.669   4.192  10.698  1.2302 -1.8863  0.5015
12351TIP3   OH258467   5.982   5.045  13.967 -0.0604 -0.1152  0.2016
12351TIP3    H158468   5.998   5.045  14.061 -1.4001 -1.8522  0.4746
12351TIP3    H258469   6.026   5.124  13.935 -2.7452  2.7455  2.8544
12352TIP3   OH258470   3.726   5.956   5.788 -0.2969  0.2821  0.6178
12352TIP3    H158471   3.736   5.861   5.789  0.5126  0.3629  1.8049
12352TIP3    H258472   3.632   5.970   5.792 -0.4710 -0.4597 -0.3496
12353TIP3   OH258473   5.938   6.283  14.873  0.0836  0.6932  0.0483
12353TIP3    H158474   5.857   6.317  14.835 -0.6196 -0.6016  0.3237
12353TIP3    H258475   5.992   6.258  14.798  0.3211  1.7543 -0.1400
12354TIP3   OH258476   0.233   0.865   5.857  0.3548 -0.3206  0.2011
12354TIP3    H158477   0.141   0.890   5.859  0.3617 -0.3173  1.9380
12354TIP3    H258478   0.235   0.783   5.806 -0.3532  0.4761 -1.1686
12355TIP3   OH258479   2.268   6.166  14.416  0.5097  1.0246 -0.3268
12355TIP3    H158480   2.302   6.138  14.331  1.9327 -2.2403  1.1325
12355TIP3    H258481   2.234   6.254  14.401  2.8725  1.5465 -3.6975
12356TIP3   OH258482   4.528   6.716  12.710  0.7392  0.2947 -0.9350
12356TIP3    H158483   4.487   6.717  12.623  0.0780 -0.2244 -0.6289
12356TIP3    H258484   4.494   6.794  12.753  0.3324  0.0420 -0.7992
12357TIP3   OH258485   5.033   5.661  16.404  0.9601  0.2575 -0.5609
12357TIP3    H158486   4.985   5.699  16.331 -0.8609  0.0728  0.4709
12357TIP3    H258487   5.051   5.734  16.463 -0.8648 -0.0640  0.5092
12358TIP3   OH258488   6.588   0.343   0.048  0.7224  0.2058 -0.0037
12358TIP3    H158489   6.533   0.279   0.094  1.2983  0.0886  0.5384
12358TIP3    H258490   6.648   0.289  -0.004  1.4402  0.2864  0.7247
12359TIP3   OH258491   2.721   4.441   6.229 -0.1143  0.0553  0.6896
12359TIP3    H158492   2.630   4.439   6.199 -0.2117  0.2391  0.9706
12359TIP3    H258493   2.765   4.376   6.174 -0.4623 -0.2065  0.7114
12360TIP3   OH258494   6.431   2.213  14.839  0.4561  0.0634  0.0636
12360TIP3    H158495   6.376   2.154  14.788 -0.6133  1.0352  0.0519
12360TIP3    H258496   6.439   2.170  14.924 -0.1574 -0.1918  0.0025
12361TIP3   OH258497   2.884   0.445  15.467 -0.2717  0.0358 -0.1972
12361TIP3    H158498   2.886   0.540  15.474  0.2978  0.3029 -2.8403
12361TIP3    H258499   2.908   0.414  15.554  2.2487  2.3519  0.0899
12362TIP3   OH258500   0.114   5.287  10.801  0.3336  0.3939  0.2267
12362TIP3    H158501   0.047   5.266  10.736 -0.1048  2.0210  0.0915
12362TIP3    H258502   0.163   5.206  10.814 -0.6043 -0.3774 -0.9249
12363TIP3   OH258503   6.303   0.918  12.997  0.3004  0.7487  0.3309
12363TIP3    H158504   6.389   0.883  12.973  0.4939  0.4801  1.3655
12363TIP3    H258505   6.240   0.866  12.948  0.7230  0.9196 -0.4044
12364TIP3   OH258506   0.825   6.711   1.131  0.3177  0.5697 -0.5800
12364TIP3    H158507   0.891   6.733   1.065  1.0235  2.1848  0.5964
12364TIP3    H258508   0.741   6.717   1.084  0.9391 -1.3576 -2.0572
12365TIP3   OH258509   0.403   1.851  16.941 -0.2125 -0.3667  0.2198
12365TIP3    H158510   0.449   1.791  16.882 -0.4061 -0.1218 -0.1802
12365TIP3    H258511   0.473   1.897  16.988  0.0542  1.5831 -1.9234
12366TIP3   OH258512   1.719   1.002   5.102 -0.9871  0.3147 -0.2284
12366TIP3    H158513   1.708   1.056   5.180  0.1332  1.9418 -1.1210
12366TIP3    H258514   1.792   0.944   5.123 -0.7412  0.6924 -0.0111
12367TIP3   OH258515   5.741   0.226   4.339 -0.3829 -0.2361  0.1620
12367TIP3    H158516   5.831   0.195   4.339  0.8136  2.9113  0.5531
12367TIP3    H258517   5.730   0.270   4.255 -1.5811 -0.5475  0.1297
12368TIP3   OH258518   5.391   0.208   4.204  0.2907 -0.0867  0.8022
12368TIP3    H158519   5.434   0.256   4.133  2.0402 -1.9567  0.5058
12368TIP3    H258520   5.459   0.150   4.238 -1.6892 -2.3665  1.1083
12369TIP3   OH258521   4.339   4.450  16.531  0.1427  0.8146 -0.2285
12369TIP3    H158522   4.412   4.512  16.535 -0.0519  1.0233  0.1516
12369TIP3    H258523   4.375   4.368  16.565  0.1383  0.9807  0.1837
12370TIP3   OH258524   4.030   6.280   3.676 -0.2939 -0.1888  0.3736
12370TIP3    H158525   4.060   6.215   3.740 -0.2080  0.6653  1.2062
12370TIP3    H258526   3.937   6.261   3.664 -0.3827 -0.1473  0.9953
12371TIP3   OH258527   5.290   3.640   5.774  0.4196 -0.1743 -0.4565
12371TIP3    H158528   5.316   3.704   5.708  0.2429 -2.4388 -2.8852
12371TIP3    H258529   5.212   3.598   5.737  0.4345 -1.6624  1.0968
12372TIP3   OH258530   0.068   6.779  14.080  0.1647  0.6477  0.2114
12372TIP3    H158531   0.091   6.799  13.989 -1.2558  0.6159 -0.1793
12372TIP3    H258532  -0.017   6.735  14.074  1.2783 -1.8878  1.3532
12373TIP3   OH258533   2.503   0.823   0.414 -0.0037  0.1162  0.3893
12373TIP3    H158534   2.582   0.769   0.410 -0.3085 -0.3282  0.3909
12373TIP3    H258535   2.536   0.912   0.424  0.5137 -0.0037 -0.1858
12374TIP3   OH258536   3.036   3.551   2.533  0.5220  0.1887 -0.4012
12374TIP3    H158537   3.058   3.458   2.535 -1.7908 -0.5699 -3.4544
12374TIP3    H258538   3.118   3.594   2.510  1.2833 -1.2538 -0.4953
12375TIP3   OH258539   5.868   0.315   5.824  0.0800 -0.3776 -0.6298
12375TIP3    H158540   5.782   0.329   5.784  0.5872  1.5449 -1.1367
12375TIP3    H258541   5.860   0.354   5.911 -0.1990 -2.2020  0.2213
12376TIP3   OH258542   4.293   1.153   1.369 -0.1723 -0.7692  0.1741
12376TIP3    H158543   4.302   1.129   1.462 -2.1510 -2.2184  0.0624
12376TIP3    H258544   4.215   1.209   1.367  0.6694  0.4164 -0.4684
12377TIP3   OH258545   3.218   0.175   4.922  0.1811  0.2505 -0.4328
12377TIP3    H158546   3.214   0.158   4.828 -1.2362  0.7057 -0.4850
12377TIP3    H258547   3.215   0.270   4.929  1.1137  0.2494  0.0560
12378TIP3   OH258548   2.674   0.639   4.569  0.2309 -0.0815  0.3520
12378TIP3    H158549   2.662   0.733   4.586 -1.3516 -0.4037  1.1831
12378TIP3    H258550   2.657   0.597   4.653 -3.5298 -1.3915 -0.8399
12379TIP3   OH258551   6.294   4.005  11.887  0.4831  0.4532 -0.0767
12379TIP3    H158552   6.277   3.982  11.978 -0.1975  3.8894  0.8006
12379TIP3    H258553   6.237   3.947  11.836 -2.6226  1.4475  2.0000
12380TIP3   OH258554   1.617   6.518   3.227  0.5494  0.0172 -0.2844
12380TIP3    H158555   1.704   6.485   3.205  0.9435  0.5347  0.4816
12380TIP3    H258556   1.575   6.446   3.274  1.2448  0.4158  0.9874
12381TIP3   OH258557   0.508   4.086  11.704  0.3254 -0.4380 -0.4382
12381TIP3    H158558   0.420   4.122  11.698  0.3055 -0.2409  0.7253
12381TIP3    H258559   0.508   4.037  11.787  1.8861  1.2863  0.6707
12382TIP3   OH258560   4.409   2.588   0.786 -0.4433 -0.7262 -0.2119
12382TIP3    H158561   4.423   2.683   0.793 -0.2129 -0.7920  0.2841
12382TIP3    H258562   4.388   2.561   0.875 -0.0925 -1.2053 -0.2700
12383TIP3   OH258563   5.428   2.462   2.483 -0.4495  0.4287 -0.2196
12383TIP3    H158564   5.486   2.386   2.477 -1.6243 -0.4807 -0.3559
12383TIP3    H258565   5.475   2.523   2.541  1.9523  0.9809 -2.5274
12384TIP3   OH258566   1.235   0.561  12.656  0.0445  0.5436 -0.0715
12384TIP3    H158567   1.266   0.500  12.723  2.1270  3.5429  1.9144
12384TIP3    H258568   1.170   0.615  12.701 -3.2709 -1.1562 -2.3199
12385TIP3   OH258569   6.679   3.481   1.855  1.0569  0.5139 -0.1838
12385TIP3    H158570   6.774   3.479   1.848  1.1634 -1.6633  0.8717
12385TIP3    H258571   6.647   3.464   1.766  1.8299 -3.0724  0.0518
12386TIP3   OH258572   0.417   0.540   1.928 -0.8679 -0.0105  0.1409
12386TIP3    H158573   0.475   0.595   1.874  0.6450  0.0034  1.6936
12386TIP3    H258574   0.477   0.481   1.973 -1.9031  0.8488  2.8081
12387TIP3   OH258575   3.866   1.696   0.255 -0.5691 -0.1157 -0.0099
12387TIP3    H158576   3.899   1.627   0.197 -0.1164 -1.0340  1.2981
12387TIP3    H258577   3.848   1.651   0.338 -1.3243  1.1442  0.5303
12388TIP3   OH258578   2.590   5.702  14.439  0.1129  0.4667  0.5996
12388TIP3    H158579   2.518   5.696  14.501 -0.7389 -0.3468 -0.4418
12388TIP3    H258580   2.588   5.793  14.409  0.2060  0.7261  1.3612
12389TIP3   OH258581   4.536   5.554   1.810  0.3504 -0.0917  0.1129
12389TIP3    H158582   4.591   5.610   1.755  0.7853 -0.7954 -0.1911
12389TIP3    H258583   4.581   5.552   1.894 -0.0478  0.5842  0.3443
12390TIP3   OH258584   3.763   4.239  16.508 -0.3150  0.3155 -0.0139
12390TIP3    H158585   3.714   4.259  16.587 -0.3094 -0.3878  0.1686
12390TIP3    H258586   3.783   4.325  16.470  0.8063  0.7266  1.4213
12391TIP3   OH258587   3.024   4.783   2.839 -0.1444  0.0086 -0.7585
12391TIP3    H158588   3.094   4.839   2.804  0.1707 -0.9031 -1.6492
12391TIP3    H258589   2.943   4.824   2.809  0.0162  0.8073 -0.1276
12392TIP3   OH258590   6.024   1.246  12.712 -0.3495  0.4294 -0.1044
12392TIP3    H158591   5.999   1.212  12.798 -0.1147  0.8254  0.1252
12392TIP3    H258592   6.038   1.340  12.727  0.0188  0.4407 -0.5031
12393TIP3   OH258593   6.412   3.202   3.031 -0.4449  0.1457  0.2865
12393TIP3    H158594   6.466   3.233   3.103 -1.0710 -0.4128  1.0081
12393TIP3    H258595   6.329   3.177   3.072 -1.3054  1.1038 -0.8114
12394TIP3   OH258596   0.359   2.353  15.990  0.0016  0.0707 -0.2426
12394TIP3    H158597   0.393   2.277  16.037  1.6097  0.5304 -0.6045
12394TIP3    H258598   0.307   2.401  16.055  2.2017  0.7140  1.1368
12395TIP3   OH258599   3.196   5.989   5.124  0.0197  0.1190  0.5077
12395TIP3    H158600   3.182   6.067   5.177 -0.4372  0.5793 -0.2628
12395TIP3    H258601   3.131   5.926   5.154 -1.6712  1.1223 -0.8930
12396TIP3   OH258602   4.032   3.673  12.109 -0.3171 -0.1806 -0.4643
12396TIP3    H158603   4.072   3.587  12.098 -3.2072 -1.7166  0.2105
12396TIP3    H258604   3.984   3.667  12.192 -1.9137  1.4884 -1.1977
12397TIP3   OH258605   3.459   0.576  15.364 -1.0692 -0.2818 -0.5277
12397TIP3    H158606   3.381   0.618  15.330 -0.2250  0.2036 -1.9473
12397TIP3    H258607   3.523   0.582  15.293 -0.5929 -3.1452 -0.4805
12398TIP3   OH258608   5.148   1.470   2.969  0.0265  0.5538 -0.4254
12398TIP3    H158609   5.083   1.540   2.970 -1.3734 -0.6748 -0.6738
12398TIP3    H258610   5.098   1.392   2.947  1.3026 -0.7478  1.0185
12399TIP3   OH258611   5.020   6.628   0.188  0.0871 -0.1938 -0.2301
12399TIP3    H158612   4.928   6.616   0.166  0.0649  0.5251 -0.5729
12399TIP3    H258613   5.067   6.606   0.107  0.3296 -1.9280  0.3474
12400TIP3   OH258614   5.216   3.938  15.852  0.0276  0.0576 -0.0169
12400TIP3    H158615   5.151   3.995  15.893  0.5910 -0.3842  1.5729
12400TIP3    H258616   5.236   3.980  15.768  1.5376  3.0879  1.6653
12401TIP3   OH258617   3.743   1.659   5.314 -0.2283  0.2614  0.2780
12401TIP3    H158618   3.760   1.688   5.403 -0.9141  0.6631  0.2899
12401TIP3    H258619   3.805   1.707   5.260 -0.0966  0.3387  0.4985
12402TIP3   OH258620   3.379   6.099  16.160  0.7110  0.2499  0.1890
12402TIP3    H158621   3.358   6.114  16.068 -1.4713 -2.1413  0.1910
12402TIP3    H258622   3.304   6.135  16.208  1.8349  1.5026  1.0885
12403TIP3   OH258623   2.835   5.542  14.070 -0.1295  0.4470  0.2314
12403TIP3    H158624   2.859   5.598  14.144  0.5257  0.6567 -0.1341
12403TIP3    H258625   2.783   5.472  14.110 -0.9687  1.2935  0.6990
12404TIP3   OH258626   2.704   6.352   2.658 -0.4006 -0.1107  0.2742
12404TIP3    H158627   2.681   6.391   2.742 -1.4397 -0.1926  0.0333
12404TIP3    H258628   2.674   6.261   2.665 -0.4028 -0.1429 -0.1590
12405TIP3   OH258629   6.018   1.347  15.787 -0.1662  0.3160 -0.3043
12405TIP3    H158630   5.960   1.390  15.724 -0.1700  3.1208  1.4522
12405TIP3    H258631   6.102   1.390  15.775  0.1486  0.0216  0.7674
12406TIP3   OH258632   5.641   4.065  12.690 -0.1801  0.6954 -0.3102
12406TIP3    H158633   5.732   4.083  12.667 -0.0832  0.6094  0.0035
12406TIP3    H258634   5.625   4.118  12.768 -0.1819  0.1574  0.0595
12407TIP3   OH258635   6.396   0.484   5.132  0.1005  0.3575 -0.6689
12407TIP3    H158636   6.356   0.558   5.177  2.8630  1.8617 -0.4555
12407TIP3    H258637   6.453   0.524   5.066  2.2114 -1.4707 -0.0871
12408TIP3   OH258638   0.880   3.274   4.619 -0.0469 -0.3626 -0.3641
12408TIP3    H158639   0.931   3.262   4.699 -0.7553 -0.3324  0.0912
12408TIP3    H258640   0.858   3.367   4.619  0.5167 -0.2204 -0.9401
12409TIP3   OH258641   3.576   6.394  13.487 -0.0431  1.1386 -0.3767
12409TIP3    H158642   3.512   6.332  13.522  0.3608  0.8569 -0.1282
12409TIP3    H258643   3.546   6.413  13.399  0.3927 -0.2274 -0.8489
12410TIP3   OH258644   1.421   5.452   4.032 -0.3680  0.0922 -0.3382
12410TIP3    H158645   1.462   5.408   3.958  0.3881  1.7330 -0.9413
12410TIP3    H258646   1.397   5.539   3.998 -3.2213 -0.3290  0.3451
12411TIP3   OH258647   0.902   6.508   2.576  0.2787 -0.3942  0.0958
12411TIP3    H158648   0.809   6.489   2.587  0.6703 -2.8017 -0.2245
12411TIP3    H258649   0.946   6.447   2.635  1.6794  1.0522  0.6302
12412TIP3   OH258650   3.890   6.296   4.514 -0.2701 -0.0580  0.5134
12412TIP3    H158651   3.889   6.291   4.419 -1.8777 -3.2922  0.5410
12412TIP3    H258652   3.814   6.350   4.536  0.8559  1.7982  0.0254
12413TIP3   OH258653   2.382   3.379   4.369 -0.2594 -0.4745 -0.2052
12413TIP3    H158654   2.328   3.457   4.373 -0.6410 -0.7127 -0.6097
12413TIP3    H258655   2.347   3.322   4.438 -0.5130 -0.6166 -0.4473
12414TIP3   OH258656   5.985   5.153   0.272 -0.0636  0.0240  0.2916
12414TIP3    H158657   6.018   5.171   0.184  3.7522  0.8588  1.7388
12414TIP3    H258658   5.980   5.238   0.314  0.2195 -0.5392  1.5171
12415TIP3   OH258659   5.306   0.996  16.331  0.3875 -0.3540 -0.2249
12415TIP3    H158660   5.230   0.990  16.389 -0.2800 -2.6321 -1.2282
12415TIP3    H258661   5.301   1.085  16.295 -1.1230 -0.0708  0.5813
12416TIP3   OH258662   1.932   3.864  12.182 -0.4883 -0.0039  0.8712
12416TIP3    H158663   2.024   3.839  12.176 -0.6959 -1.2251  2.2439
12416TIP3    H258664   1.931   3.956  12.156  1.0064 -0.1518  0.1534
12417TIP3   OH258665   5.675   5.932   4.073 -0.3248 -0.2863  0.1751
12417TIP3    H158666   5.601   5.872   4.085 -0.6061 -0.2334 -1.0822
12417TIP3    H258667   5.749   5.874   4.055  0.0074 -0.3488  1.6613
12418TIP3   OH258668   2.101   3.338   0.239 -0.2973  0.5274  0.0531
12418TIP3    H158669   2.176   3.379   0.282  2.0834 -2.7201 -0.5757
12418TIP3    H258670   2.099   3.378   0.151 -0.6381  2.0348  0.7102
12419TIP3   OH258671   0.070   0.298  15.804 -0.0463 -0.4611  0.4058
12419TIP3    H158672  -0.004   0.272  15.859 -0.3396 -0.0575  0.2071
12419TIP3    H258673   0.031   0.315  15.718  0.0607  0.9942  0.6128
12420TIP3   OH258674   6.458   4.164   4.871 -0.0267 -0.4977  0.3744
12420TIP3    H158675   6.473   4.121   4.787  1.9463  2.4954 -0.9583
12420TIP3    H258676   6.503   4.107   4.934  0.0882 -1.8237 -0.8345
12421TIP3   OH258677   1.749   5.991   1.706 -0.7341 -0.1688  0.0284
12421TIP3    H158678   1.692   6.026   1.637 -0.3031  1.7495  0.5588
12421TIP3    H258679   1.811   5.935   1.661 -1.4824 -0.2679 -0.9014
12422TIP3   OH258680   3.848   5.976   5.460  0.0660 -0.3381 -0.6060
12422TIP3    H158681   3.913   5.916   5.424  1.8623 -0.2715  2.1442
12422TIP3    H258682   3.873   5.985   5.552 -3.6210  0.1033  0.5254
12423TIP3   OH258683   5.078   2.152  13.549  0.2137  0.4491 -0.1509
12423TIP3    H158684   4.989   2.126  13.522  0.1559  0.4226  0.0647
12423TIP3    H258685   5.083   2.127  13.641  1.6157 -2.7948 -0.9396
12424TIP3   OH258686   5.347   1.084   4.463  0.2551 -0.3545  0.1599
12424TIP3    H158687   5.406   1.144   4.508 -0.1241 -0.0430  0.2490
12424TIP3    H258688   5.357   1.105   4.370 -0.7644  0.6881  0.2642
12425TIP3   OH258689   5.699   1.453   0.135 -0.0433 -0.2928  0.4506
12425TIP3    H158690   5.737   1.448   0.223  0.4453 -2.0946  0.1828
12425TIP3    H258691   5.610   1.418   0.145 -0.4819  0.7610  0.4426
12426TIP3   OH258692   2.227   5.433   5.841  0.1205  0.2702 -0.7068
12426TIP3    H158693   2.213   5.351   5.793 -0.6490  0.0435 -0.1264
12426TIP3    H258694   2.159   5.432   5.908  1.6576  0.1738  0.9263
12427TIP3   OH258695   1.127   0.005   4.366 -0.0835 -0.0377 -0.2333
12427TIP3    H158696   1.118  -0.088   4.341 -1.9307 -0.4922  1.8087
12427TIP3    H258697   1.180   0.003   4.446 -1.9915  0.3617  1.1147
12428TIP3   OH258698   1.366   5.934  13.562 -0.2012 -0.4618  0.4832
12428TIP3    H158699   1.288   5.911  13.511 -0.1447  0.7757 -0.1963
12428TIP3    H258700   1.370   5.867  13.630 -1.4540 -0.9642  0.1007
12429TIP3   OH258701   6.379   1.855  13.482  0.0736 -0.2684 -0.2836
12429TIP3    H158702   6.409   1.767  13.504 -1.2833 -0.5603  0.4984
12429TIP3    H258703   6.450   1.893  13.430  2.0175 -0.7308  1.8743
12430TIP3   OH258704   4.664   3.289  17.048 -0.0959  0.1702 -0.2894
12430TIP3    H158705   4.708   3.280  16.963 -0.2212  1.9674 -0.5844
12430TIP3    H258706   4.730   3.265  17.112  0.2714 -0.3723 -0.8559
12431TIP3   OH258707   2.491   4.339  13.748 -0.2358 -0.5037 -0.2811
12431TIP3    H158708   2.401   4.326  13.716 -0.5808  2.1484 -0.5840
12431TIP3    H258709   2.545   4.337  13.668 -0.2676 -0.2425 -0.3089
12432TIP3   OH258710   1.559   6.772   4.218  0.0910 -0.0009 -0.4453
12432TIP3    H158711   1.566   6.830   4.293  0.2690 -0.7968  0.1653
12432TIP3    H258712   1.465   6.758   4.207 -0.0123  1.0472 -1.1250
12433TIP3   OH258713   4.249   4.890   2.487 -0.4182 -0.2757 -0.2267
12433TIP3    H158714   4.232   4.938   2.406 -0.6116  2.9336  1.5443
12433TIP3    H258715   4.162   4.866   2.519 -0.2873 -2.9755 -1.6280
12434TIP3   OH258716   6.527   5.639   4.808 -0.2764  0.0190 -0.1190
12434TIP3    H158717   6.463   5.711   4.802 -0.4193 -0.0236  0.7598
12434TIP3    H258718   6.611   5.683   4.822  0.7588  0.3918 -5.2984
12435TIP3   OH258719   3.555   3.276  10.990  0.1257  0.1274  0.6619
12435TIP3    H158720   3.479   3.326  11.022  0.6491  0.2021  1.8251
12435TIP3    H258721   3.631   3.328  11.016  0.6310 -0.6620  0.7834
12436TIP3   OH258722   1.006   2.381   0.102  0.7741  0.3278 -0.2077
12436TIP3    H158723   1.094   2.386   0.138  0.2498  2.6142  0.9573
12436TIP3    H258724   1.019   2.373   0.007  2.2047 -0.3899  0.0291
12437TIP3   OH258725   3.760   0.211   3.129  0.1461 -0.7491 -0.4692
12437TIP3    H158726   3.724   0.246   3.048 -0.4327 -0.3195 -0.0459
12437TIP3    H258727   3.801   0.287   3.171 -0.9226 -0.5956  0.3528
12438TIP3   OH258728   3.377   1.482   4.850 -0.4380 -0.0504 -0.1032
12438TIP3    H158729   3.390   1.413   4.915  0.5725 -1.2016 -1.4533
12438TIP3    H258730   3.441   1.549   4.873 -0.4446 -0.2092  0.3844
12439TIP3   OH258731   1.966   5.513   2.557 -0.1503 -0.4696 -0.6502
12439TIP3    H158732   1.883   5.465   2.552 -0.1450 -0.5200 -0.2570
12439TIP3    H258733   1.958   5.567   2.635 -0.7477  1.3102 -1.8806
12440TIP3   OH258734   2.707   6.327   4.519 -0.2158 -0.2412  0.1321
12440TIP3    H158735   2.761   6.253   4.548  0.9097  1.1383  1.7792
12440TIP3    H258736   2.716   6.392   4.589 -1.5330  1.2908 -1.0355
12441TIP3   OH258737   4.755   1.205   5.462  0.3789  0.6760 -0.2147
12441TIP3    H158738   4.660   1.190   5.461  0.4786 -0.2263  1.1618
12441TIP3    H258739   4.791   1.131   5.413  0.3548  1.2857 -1.1688
12442TIP3   OH258740   2.864   6.033   4.961 -0.0877  0.2083 -0.5973
12442TIP3    H158741   2.850   6.077   5.044  1.5073  1.8309 -1.1262
12442TIP3    H258742   2.955   6.053   4.938 -0.3816 -0.4659 -2.5633
12443TIP3   OH258743   5.268   6.479  16.542  0.1102 -0.0130 -0.7108
12443TIP3    H158744   5.252   6.486  16.637 -0.0290 -0.5677 -0.6944
12443TIP3    H258745   5.195   6.525  16.502 -0.5177 -0.8785 -0.5809
12444TIP3   OH258746   4.136   1.668   3.503  0.1089 -0.2892  0.2805
12444TIP3    H158747   4.189   1.674   3.583 -1.2396 -0.7437  1.2370
12444TIP3    H258748   4.197   1.690   3.433  1.1754  0.7702  1.4785
12445TIP3   OH258749   6.710   4.022   1.931  0.4665  0.3851 -1.2663
12445TIP3    H158750   6.784   4.012   1.990 -0.6352  0.5976  0.2099
12445TIP3    H258751   6.646   3.956   1.960  0.2301 -0.1054 -2.7865
12446TIP3   OH258752   5.222   0.320  16.600  0.6672  0.5096 -0.1465
12446TIP3    H158753   5.187   0.269  16.674  0.4897  2.7072  1.3609
12446TIP3    H258754   5.314   0.293  16.594  0.2329 -1.0382 -0.3591
12447TIP3   OH258755   5.231   4.794  11.811  0.1552  0.1503 -0.4219
12447TIP3    H158756   5.272   4.784  11.897 -0.7703  2.7620  0.4253
12447TIP3    H258757   5.195   4.708  11.791  2.5104 -1.1644  0.6254
12448TIP3   OH258758   3.819   3.893   6.036  0.6577  0.3725  0.5848
12448TIP3    H158759   3.793   3.968   6.089 -1.9263 -0.0757  0.0734
12448TIP3    H258760   3.913   3.906   6.020  0.4216  3.1645  0.9845
12449TIP3   OH258761   0.687   1.356   5.349 -0.1441  0.3084 -0.5700
12449TIP3    H158762   0.673   1.391   5.437 -1.6606  0.2239 -0.7606
12449TIP3    H258763   0.743   1.421   5.306  0.7474  0.2755  0.4841
12450TIP3   OH258764   1.033   4.188   3.885 -0.4759  0.5548  0.3693
12450TIP3    H158765   0.986   4.141   3.954  0.8413  0.3148  1.1411
12450TIP3    H258766   1.041   4.278   3.918 -2.4450  1.2246 -0.8278
12451TIP3   OH258767   5.232   1.024  15.173  0.0584 -0.8360  0.0451
12451TIP3    H158768   5.220   1.010  15.080  0.5407  2.5168 -0.6433
12451TIP3    H258769   5.314   0.980  15.194  0.5185 -0.6813 -1.3706
12452TIP3   OH258770   5.672   4.063  14.532 -0.4246  0.0948  0.5557
12452TIP3    H158771   5.594   4.018  14.567 -1.0636  0.5033 -0.3080
12452TIP3    H258772   5.741   4.044  14.596 -1.1461 -0.5584  1.1666
12453TIP3   OH258773   1.925   2.271   3.053  0.5149  0.0619 -0.1282
12453TIP3    H158774   1.881   2.320   2.984 -1.6975 -1.0732  0.3895
12453TIP3    H258775   2.018   2.288   3.039  0.0660  0.8225 -2.6233
12454TIP3   OH258776   5.315   1.361   2.618  0.4161 -0.0839 -0.1811
12454TIP3    H158777   5.314   1.288   2.680  1.8948  0.1527  0.1509
12454TIP3    H258778   5.327   1.439   2.673 -2.8397  0.6981 -0.3292
12455TIP3   OH258779   5.925   6.378  12.105 -0.2804  0.4252  0.6463
12455TIP3    H158780   5.859   6.400  12.039  2.5654 -0.1189 -2.7045
12455TIP3    H258781   5.908   6.287  12.127 -1.5068  0.7270  1.0385
12456TIP3   OH258782   0.341   5.193   5.108  0.4768 -0.1543 -0.0721
12456TIP3    H158783   0.425   5.237   5.102  1.1365 -1.4930 -1.4773
12456TIP3    H258784   0.363   5.100   5.119 -0.8251 -0.4118  0.5609
12457TIP3   OH258785   4.517   6.623   0.464 -0.1549 -0.0555  0.0986
12457TIP3    H158786   4.522   6.699   0.523  0.7147  0.8701 -1.1024
12457TIP3    H258787   4.473   6.656   0.386 -0.5691 -1.0482 -0.1065
12458TIP3   OH258788   3.817   0.315  14.333 -0.1264  0.0010 -0.3726
12458TIP3    H158789   3.798   0.399  14.292  0.9911  1.1063  1.2620
12458TIP3    H258790   3.737   0.263  14.319  0.3665  0.0112 -4.3519
12459TIP3   OH258791   4.154   1.047   5.457 -0.4541  0.5565  0.0257
12459TIP3    H158792   4.121   0.973   5.407 -0.1571  1.8719 -2.2510
12459TIP3    H258793   4.082   1.070   5.516 -0.4213 -1.6831  1.0396
12460TIP3   OH258794   1.805   4.069  12.942 -0.2977  0.3059  0.6374
12460TIP3    H158795   1.841   4.131  12.878  0.6056 -1.0575 -0.2345
12460TIP3    H258796   1.859   3.990  12.932 -1.6570 -0.7737  1.4236
12461TIP3   OH258797   1.124   3.438   1.927 -0.0278  0.2722 -0.5714
12461TIP3    H158798   1.133   3.458   2.020  0.7078  1.7230 -0.9215
12461TIP3    H258799   1.041   3.476   1.901 -0.4378 -0.5065 -0.4326
12462TIP3   OH258800   3.002   5.019  15.265 -0.3454  0.0225  0.1087
12462TIP3    H158801   3.001   4.923  15.269  0.3469 -0.0717 -1.2287
12462TIP3    H258802   2.948   5.041  15.190  1.3604  0.5256 -1.0424
12463TIP3   OH258803   0.847   0.512   0.302  0.4141  0.0529  0.5986
12463TIP3    H158804   0.837   0.602   0.333  0.4496  0.1195  0.4174
12463TIP3    H258805   0.758   0.480   0.290  0.3987  0.3501 -0.1594
12464TIP3   OH258806   1.634   3.963  16.193  0.1338  0.1137  0.2259
12464TIP3    H158807   1.649   3.904  16.267 -0.3599 -2.0879 -1.3188
12464TIP3    H258808   1.540   3.958  16.177  0.0800  1.3729  0.0559
12465TIP3   OH258809   0.121   2.319  10.726  0.1111  0.0360  0.4589
12465TIP3    H158810   0.072   2.289  10.649 -1.5403 -0.9270  1.8100
12465TIP3    H258811   0.185   2.250  10.742  0.6733  0.3909 -0.2157
12466TIP3   OH258812   3.411   4.072   3.560  0.4614  0.1800 -0.3713
12466TIP3    H158813   3.330   4.049   3.605  1.1309 -0.6648  0.4477
12466TIP3    H258814   3.392   4.157   3.519 -1.0377 -0.3098 -0.7608
12467TIP3   OH258815   1.277   5.732   2.846 -0.1612 -0.7704 -0.2194
12467TIP3    H158816   1.248   5.660   2.902  1.7199 -0.9234  0.6353
12467TIP3    H258817   1.283   5.807   2.904  2.8137 -1.1683  0.1479
12468TIP3   OH258818   5.402   3.692  14.409 -0.3839  0.2839 -0.0712
12468TIP3    H158819   5.308   3.682  14.396 -0.4566  1.4819 -0.6010
12468TIP3    H258820   5.438   3.694  14.320  0.3674 -1.8488  0.1301
12469TIP3   OH258821   2.333   2.613  15.420 -0.4540  0.4993  0.4653
12469TIP3    H158822   2.398   2.542  15.415 -0.8851  0.0804  0.7698
12469TIP3    H258823   2.297   2.606  15.508 -1.2954  0.4007  0.1186
12470TIP3   OH258824   1.782   6.785  14.289 -0.8302 -0.4197  0.3029
12470TIP3    H158825   1.755   6.840  14.362  1.3721 -0.7722  1.4573
12470TIP3    H258826   1.799   6.846  14.217  0.2444  0.3066  1.1440
12471TIP3   OH258827   6.165   0.123  13.296  0.0931  0.1449 -0.5652
12471TIP3    H158828   6.136   0.033  13.277 -1.7743  1.0626 -2.4573
12471TIP3    H258829   6.144   0.136  13.388 -0.1287 -1.1698 -0.4115
12472TIP3   OH258830   2.763   5.724   4.589  0.1400 -0.3342  0.3005
12472TIP3    H158831   2.672   5.694   4.587 -0.1606  0.3867  1.7035
12472TIP3    H258832   2.806   5.664   4.650  0.7507 -0.9832 -0.7331
12473TIP3   OH258833   0.277   2.945   0.159 -0.2600  0.3564 -0.1313
12473TIP3    H158834   0.193   2.948   0.204 -0.0395 -0.9493  0.3918
12473TIP3    H258835   0.303   2.853   0.162  2.2624  1.0240  1.7483
12474TIP3   OH258836   6.428   3.590   3.217 -0.4441 -0.1395 -0.2101
12474TIP3    H158837   6.494   3.657   3.231  0.5742 -1.0209 -0.6783
12474TIP3    H258838   6.370   3.597   3.293  1.2592 -0.5764  1.1677
12475TIP3   OH258839   2.878   3.308  11.436 -0.1128 -0.2118  0.0357
12475TIP3    H158840   2.864   3.268  11.522 -1.3930 -2.2649 -1.0592
12475TIP3    H258841   2.790   3.319  11.401  0.4305 -1.9086 -2.0527
12476TIP3   OH258842   3.792   6.021  15.747  0.1303 -0.1076  0.0358
12476TIP3    H158843   3.795   5.947  15.686 -0.0524 -0.8231  0.8640
12476TIP3    H258844   3.738   5.989  15.820 -0.4882  1.0782  0.1197
12477TIP3   OH258845   6.566   5.726   3.877  0.5107  0.5774  0.6984
12477TIP3    H158846   6.536   5.636   3.890  1.0741  0.2718  0.0122
12477TIP3    H258847   6.661   5.717   3.867  0.2709  0.6024 -3.8789
12478TIP3   OH258848   3.209   0.840  15.888 -0.2917  0.1373 -0.0348
12478TIP3    H158849   3.224   0.915  15.946 -0.8165 -0.5452  0.9959
12478TIP3    H258850   3.292   0.793  15.889 -0.3543  0.0353  0.2880
12479TIP3   OH258851   1.001   3.083  12.135  0.1193 -0.2126  0.0432
12479TIP3    H158852   1.018   3.080  12.229 -0.3340 -0.7457  0.1167
12479TIP3    H258853   0.980   3.174  12.117  0.4871 -0.0516  0.4058
12480TIP3   OH258854   1.725   4.643   5.882 -0.1220 -0.5296  0.5626
12480TIP3    H158855   1.755   4.662   5.971 -0.1506  2.1038  0.0697
12480TIP3    H258856   1.647   4.588   5.895 -0.3129  0.0528  2.1846
12481TIP3   OH258857   4.030   6.293   5.551  0.7843 -0.5388 -0.8252
12481TIP3    H158858   4.055   6.288   5.644  1.1975 -0.5974 -0.9399
12481TIP3    H258859   3.937   6.271   5.551  0.3269  1.2026 -0.2166
12482TIP3   OH258860   4.425   1.750  14.564  0.2942  0.0576 -0.2973
12482TIP3    H158861   4.427   1.702  14.646 -2.4322  0.3291  0.0364
12482TIP3    H258862   4.483   1.825  14.578  0.8808 -0.5980  0.8962
12483TIP3   OH258863   5.308   2.038   0.034  0.0275 -0.3245  0.1894
12483TIP3    H158864   5.303   2.119   0.085  2.2565 -1.0787  1.7682
12483TIP3    H258865   5.271   1.971   0.091  0.0723 -0.7553 -0.2752
12484TIP3   OH258866   0.487   6.233   1.894  0.1793 -0.3412 -0.3206
12484TIP3    H158867   0.401   6.203   1.866 -0.0703  0.1449 -0.0944
12484TIP3    H258868   0.470   6.317   1.937  0.3883 -1.5725  2.3590
12485TIP3   OH258869   3.055   3.299   6.207  0.1283  0.0623  0.3862
12485TIP3    H158870   3.107   3.252   6.273 -0.6226 -1.5035 -0.0882
12485TIP3    H258871   3.036   3.233   6.141 -0.9797  1.0601 -0.3188
12486TIP3   OH258872   2.381   6.211   3.324  0.4032  0.1021  0.1161
12486TIP3    H158873   2.416   6.187   3.238  2.2859  2.5975  0.0436
12486TIP3    H258874   2.446   6.178   3.386  1.7988  2.6058  0.1433
12487TIP3   OH258875   2.566   1.462   2.884  0.1099 -0.4585  0.1134
12487TIP3    H158876   2.572   1.395   2.816 -0.9626 -0.3827 -0.0743
12487TIP3    H258877   2.627   1.531   2.854  0.2891 -0.7992 -0.3267
12488TIP3   OH258878   5.364   2.384  17.009  0.5108 -0.2918  0.3476
12488TIP3    H158879   5.307   2.374  16.933  1.0523  0.8109 -0.2205
12488TIP3    H258880   5.343   2.470  17.044  2.0355  0.2997 -0.0824
12489TIP3   OH258881   5.826   2.570  14.439 -0.2286 -0.5395  0.4389
12489TIP3    H158882   5.903   2.515  14.420 -0.7333 -0.9334 -0.5603
12489TIP3    H258883   5.851   2.620  14.517  0.9584 -0.8167  0.2627
12490TIP3   OH258884   3.200   3.363  10.804 -0.2225 -0.1175  0.5669
12490TIP3    H158885   3.183   3.270  10.819  1.0430 -0.4047  0.2743
12490TIP3    H258886   3.239   3.367  10.717  2.1726  0.3559  1.5925
12491TIP3   OH258887   2.617   2.430   0.746  0.0741 -0.0863  0.2668
12491TIP3    H158888   2.542   2.371   0.750 -0.3745  0.5234  1.3996
12491TIP3    H258889   2.667   2.400   0.671 -0.3152 -1.6903  0.6093
12492TIP3   OH258890   1.946   1.139   0.376  0.1843  0.4737 -0.0972
12492TIP3    H158891   1.964   1.208   0.440  1.1084 -0.1042  0.2763
12492TIP3    H258892   2.014   1.074   0.390  0.2214  0.1826 -1.4606
12493TIP3   OH258893   1.098   3.334  17.035 -0.6901  0.0205  0.0925
12493TIP3    H158894   1.135   3.268  17.094  0.3445  0.7433  0.2795
12493TIP3    H258895   1.032   3.379  17.087 -0.8946 -0.3848  0.1878
12494TIP3   OH258896   1.011   4.854   0.202  0.0122 -0.2350  0.9261
12494TIP3    H158897   1.006   4.853   0.298  0.8647 -0.6644  0.9806
12494TIP3    H258898   1.103   4.873   0.184 -0.3279  0.7259  0.1767
12495TIP3   OH258899   4.702   1.396   0.739 -0.5111 -0.1893  0.4410
12495TIP3    H158900   4.704   1.463   0.671 -0.6813  1.2944  1.8405
12495TIP3    H258901   4.795   1.378   0.757 -0.3962  1.4002  1.6474
12496TIP3   OH258902   6.171   3.753   0.364  0.3711 -0.4176  0.4062
12496TIP3    H158903   6.106   3.708   0.419  0.7268  0.4918  1.6130
12496TIP3    H258904   6.122   3.822   0.320  0.4333  0.0199  1.0143
12497TIP3   OH258905   4.849   4.721  14.177 -0.2130 -0.3821 -0.3599
12497TIP3    H158906   4.852   4.800  14.231 -2.1401 -0.5645  0.0802
12497TIP3    H258907   4.933   4.721  14.131  1.1899  0.2029  2.0205
12498TIP3   OH258908   3.436   2.240   2.496  0.1705  0.1996  0.2858
12498TIP3    H158909   3.420   2.333   2.513  1.4216  0.4979 -0.1146
12498TIP3    H258910   3.471   2.237   2.407 -0.2613 -0.7115  0.1321
12499TIP3   OH258911   1.172   3.938  13.572  0.5393 -1.0817  0.2702
12499TIP3    H158912   1.223   4.016  13.549 -0.3545 -0.4616  0.3500
12499TIP3    H258913   1.160   3.892  13.489 -0.8265  0.0294 -0.1755
12500TIP3   OH258914   1.019   1.911  16.105  0.1722  0.2266  0.1305
12500TIP3    H158915   1.048   1.826  16.072  1.1732  0.5912  0.0379
12500TIP3    H258916   1.099   1.955  16.132 -0.3246  1.1714  0.1194
12501TIP3   OH258917   5.472   4.142   5.121 -0.0520  0.2250  0.0377
12501TIP3    H158918   5.417   4.172   5.049 -0.1882  1.3016  0.5820
12501TIP3    H258919   5.562   4.155   5.089 -0.1015  1.4566  0.3389
12502TIP3   OH258920   0.293   6.004  12.683  0.1151  0.8412 -0.1265
12502TIP3    H158921   0.370   6.016  12.739  0.4773  0.6643 -0.5802
12502TIP3    H258922   0.274   5.910  12.689 -0.7667  1.0698  0.8887
12503TIP3   OH258923   5.204   6.061   2.955  0.1713 -0.1616  0.3924
12503TIP3    H158924   5.174   5.975   2.926 -1.0113  0.8930 -1.7790
12503TIP3    H258925   5.130   6.098   3.003 -0.1523  0.4519 -0.5470
12504TIP3   OH258926   6.255   1.893   4.054  0.6858  0.1337  0.1267
12504TIP3    H158927   6.259   1.933   4.141 -0.8842 -1.0175  0.7698
12504TIP3    H258928   6.182   1.937   4.010 -0.2781 -1.1398  0.4064
12505TIP3   OH258929   4.640   1.491   0.208 -0.0280  0.0419 -0.1378
12505TIP3    H158930   4.666   1.579   0.182 -0.1799  0.9147  2.3796
12505TIP3    H258931   4.589   1.459   0.134 -0.1605  2.1591 -1.0506
12506TIP3   OH258932   3.505   0.238  16.418  0.2466  0.5969 -0.3781
12506TIP3    H158933   3.473   0.151  16.442 -0.3079  0.5532 -1.2238
12506TIP3    H258934   3.585   0.220  16.368  1.1690  0.6717  0.9955
12507TIP3   OH258935   2.815   4.167  13.946 -0.2622  0.0678 -0.0504
12507TIP3    H158936   2.731   4.180  13.989  0.8291  0.9378  1.9644
12507TIP3    H258937   2.860   4.102  14.000  1.0169  0.9294 -0.0332
12508TIP3   OH258938   6.197   6.679  14.403  0.1008  0.7801  0.2843
12508TIP3    H158939   6.161   6.754  14.451  0.1569 -0.1756  1.9093
12508TIP3    H258940   6.284   6.707  14.375  0.0818  1.3674  0.8009
12509TIP3   OH258941   0.256   4.825  15.598 -0.1063 -0.1320 -0.0535
12509TIP3    H158942   0.229   4.733  15.608 -1.7436  0.3511  0.2339
12509TIP3    H258943   0.280   4.852  15.687  1.2407 -0.5065 -0.2781
12510TIP3   OH258944   4.905   2.799   3.939  0.1939 -0.1599 -0.2154
12510TIP3    H158945   4.975   2.751   3.982 -0.7581 -1.0849  0.3410
12510TIP3    H258946   4.895   2.879   3.991  1.1031  0.1898 -0.5527
12511TIP3   OH258947   1.044   2.223   2.008  0.0354 -0.7765 -0.1391
12511TIP3    H158948   1.033   2.190   1.919 -0.7184  0.8199 -0.6837
12511TIP3    H258949   1.082   2.150   2.056 -1.5153 -2.4058 -1.2476
12512TIP3   OH258950   2.549   0.374   1.801 -0.3279 -0.7272 -0.3210
12512TIP3    H158951   2.507   0.366   1.715 -3.1879  1.5783  0.6967
12512TIP3    H258952   2.489   0.329   1.861  1.2291 -1.6194  0.6349
12513TIP3   OH258953   5.085   1.445  11.132  0.2723  0.2965 -1.1744
12513TIP3    H158954   5.097   1.351  11.146 -2.5215 -0.2390 -1.7156
12513TIP3    H258955   4.999   1.452  11.091 -0.3862  3.2207  0.4094
12514TIP3   OH258956   1.912   3.894   1.890  0.2110  0.4832 -0.2394
12514TIP3    H158957   1.844   3.854   1.836  1.6347 -1.3821 -0.7495
12514TIP3    H258958   1.969   3.940   1.828 -0.6167  2.1784  0.2008
12515TIP3   OH258959   6.438   4.991  14.913 -0.1622 -1.0772  0.0597
12515TIP3    H158960   6.499   4.927  14.876  1.0701  1.4814 -2.7640
12515TIP3    H258961   6.479   5.020  14.994  1.5506 -0.6911 -0.8924
12516TIP3   OH258962   2.094   2.216   5.009 -0.3105  0.0685 -0.0514
12516TIP3    H158963   2.138   2.174   4.935  0.4823 -1.4787  1.2175
12516TIP3    H258964   2.165   2.260   5.057 -0.6304  0.1354  0.3658
12517TIP3   OH258965   6.510   3.580   5.385  0.0324  0.4639  0.5420
12517TIP3    H158966   6.428   3.533   5.371  0.2196  0.4911 -0.7272
12517TIP3    H258967   6.567   3.516   5.427 -0.7964  0.6117  1.9633
12518TIP3   OH258968   1.747   5.009  14.111  0.2336  0.2446 -0.3969
12518TIP3    H158969   1.658   4.974  14.121  0.3121 -0.0913 -0.8412
12518TIP3    H258970   1.780   5.016  14.200 -0.4784  1.0003 -0.1783
12519TIP3   OH258971   6.517   0.259  10.791  0.1786  0.2922  0.3402
12519TIP3    H158972   6.516   0.189  10.856 -0.6775 -0.7073 -0.7027
12519TIP3    H258973   6.596   0.242  10.739  0.1485  0.2994  0.2922
12520TIP3   OH258974   5.535   3.832  11.554 -0.2028  0.2826 -0.3124
12520TIP3    H158975   5.571   3.801  11.470 -0.7290 -0.4123 -0.2883
12520TIP3    H258976   5.607   3.881  11.593  0.7489 -1.0850 -0.2723
12521TIP3   OH258977   1.104   5.945   4.285  0.2915  0.0336  0.0195
12521TIP3    H158978   1.198   5.939   4.272  0.3960 -0.4046  0.9334
12521TIP3    H258979   1.072   5.855   4.271  0.1520 -0.0345  0.7320
12522TIP3   OH258980   5.064   5.942  15.429 -0.3903  0.0033  0.3065
12522TIP3    H158981   5.029   5.951  15.518 -1.0437  1.1486 -0.0537
12522TIP3    H258982   4.988   5.925  15.375  0.0366 -0.9409 -0.0193
12523TIP3   OH258983   5.332   0.738  16.272 -0.4656 -0.2892  0.5448
12523TIP3    H158984   5.313   0.826  16.304  0.6068  0.1683 -0.0344
12523TIP3    H258985   5.302   0.680  16.342 -0.3373  0.5761  1.3373
12524TIP3   OH258986   6.254   2.769   2.660  0.2334 -0.0952 -0.1131
12524TIP3    H158987   6.235   2.814   2.742  1.8119 -0.6335  0.5780
12524TIP3    H258988   6.330   2.815   2.624  1.2318 -1.5158  0.0945
12525TIP3   OH258989   4.485   2.559  16.157 -0.5222  0.4164 -0.4272
12525TIP3    H158990   4.399   2.584  16.124 -0.5290  0.2779 -0.5171
12525TIP3    H258991   4.525   2.641  16.186 -1.7810  0.1706  2.2768
12526TIP3   OH258992   6.247   5.803   0.813 -0.0064 -0.0287 -0.0680
12526TIP3    H158993   6.175   5.858   0.843  0.5534  0.7416 -0.0896
12526TIP3    H258994   6.258   5.825   0.720  0.5003  0.1534  0.0294
12527TIP3   OH258995   1.879   0.752   6.308 -0.0262 -0.0095 -0.4537
12527TIP3    H158996   1.933   0.773   6.384 -0.2697 -0.3207 -0.1902
12527TIP3    H258997   1.834   0.834   6.287 -0.0978  0.0316 -0.1474
12528TIP3   OH258998   4.185   1.921   2.828  0.1631  0.0970  0.1890
12528TIP3    H158999   4.263   1.959   2.869 -0.2293  1.3192 -0.1847
12528TIP3    H259000   4.204   1.923   2.734 -0.0648 -0.1840  0.1350
12529TIP3   OH259001   3.896   3.580   3.475 -0.0743  0.1509  0.0442
12529TIP3    H159002   3.903   3.565   3.569 -0.3829 -4.4380 -0.4315
12529TIP3    H259003   3.818   3.634   3.465 -0.5906 -0.0279  2.4042
12530TIP3   OH259004   6.417   2.592  14.229  0.0057  0.0351 -0.4624
12530TIP3    H159005   6.344   2.544  14.269 -0.4097  0.9365 -0.0960
12530TIP3    H259006   6.405   2.579  14.135 -0.8847  0.5024 -0.4318
12531TIP3   OH259007   1.461   5.029  14.820  0.2111  0.1057  0.3407
12531TIP3    H159008   1.552   5.008  14.799  0.5943  0.3976  1.6205
12531TIP3    H259009   1.462   5.122  14.842 -0.5417  0.2837 -0.2980
12532TIP3   OH259010   6.491   4.926   6.369 -0.1807  0.6864 -0.3245
12532TIP3    H159011   6.424   4.857   6.366  0.4028  0.1400 -0.9510
12532TIP3    H259012   6.492   4.953   6.461 -0.2658 -0.2869 -0.0230
12533TIP3   OH259013   3.078   4.411  14.863 -0.1603 -0.4329  0.2363
12533TIP3    H159014   3.162   4.417  14.910  0.3474 -0.2610 -0.6756
12533TIP3    H259015   3.032   4.491  14.886  0.5470  0.1743 -0.4319
12534TIP3   OH259016   1.679   1.069   1.763 -0.1295  0.1757  0.2877
12534TIP3    H159017   1.658   0.979   1.789 -2.8136  0.6194 -0.0365
12534TIP3    H259018   1.718   1.108   1.842  1.1700 -1.2680  0.3903
12535TIP3   OH259019   3.307   2.739   3.949  0.4775 -0.0654  0.4159
12535TIP3    H159020   3.241   2.720   4.016  1.6831 -0.7229  1.4712
12535TIP3    H259021   3.351   2.655   3.933 -0.3619 -0.1192 -1.8965
12536TIP3   OH259022   6.276   1.782   5.783 -0.1594  0.2936  0.6925
12536TIP3    H159023   6.229   1.699   5.772  0.0697  0.0837  1.2706
12536TIP3    H259024   6.276   1.820   5.695  1.8587 -1.4810 -0.1859
12537TIP3   OH259025   5.312   6.074   1.161 -0.1355  0.2317 -0.4703
12537TIP3    H159026   5.240   6.035   1.111 -0.1485 -0.5072  0.0924
12537TIP3    H259027   5.284   6.066   1.252  0.2002  0.9047 -0.3015
12538TIP3   OH259028   1.102   5.099  13.279  0.7727 -0.4317  0.7044
12538TIP3    H159029   1.032   5.164  13.274 -0.4107 -1.5816  1.7500
12538TIP3    H259030   1.181   5.150  13.300  0.7301  1.1400 -2.3746
12539TIP3   OH259031   6.328   5.966  14.571 -0.2960 -0.2801  0.5177
12539TIP3    H159032   6.391   6.038  14.567 -2.4798  1.7141  0.3933
12539TIP3    H259033   6.307   5.958  14.664  2.2913 -3.0309  1.0135
12540TIP3   OH259034   4.205   1.718   0.124 -0.3342 -0.0855 -0.3903
12540TIP3    H159035   4.196   1.710   0.029  0.7564 -0.6815 -0.4566
12540TIP3    H259036   4.240   1.633   0.152  1.1884  0.7355  0.2900
12541TIP3   OH259037   2.941   5.119   5.759  0.0375  0.4606 -0.3997
12541TIP3    H159038   2.909   5.150   5.675  1.4101  0.5493 -0.9003
12541TIP3    H259039   2.972   5.030   5.742  0.8721  0.6962 -0.1202
12542TIP3   OH259040   4.549   6.130   2.992 -0.1288 -0.5490 -0.3335
12542TIP3    H159041   4.500   6.182   2.928 -2.1922 -0.0158  1.5658
12542TIP3    H259042   4.532   6.039   2.967 -0.8816 -0.3446 -0.5910
12543TIP3   OH259043   5.729   1.279   5.441  0.1203 -0.0273  0.0585
12543TIP3    H159044   5.714   1.189   5.413  1.6995 -0.4134  0.3778
12543TIP3    H259045   5.771   1.271   5.527  0.9309  0.9789 -0.2190
12544TIP3   OH259046   2.147   6.352  10.333  0.2086 -0.4047  0.5344
12544TIP3    H159047   2.064   6.385  10.298 -0.1261 -1.2931  0.4594
12544TIP3    H259048   2.122   6.305  10.412  0.6573 -0.5654  0.5810
12545TIP3   OH259049   4.177   6.133   0.248  0.0142  0.4583  0.4687
12545TIP3    H159050   4.234   6.070   0.203 -0.8660 -0.4413  0.5609
12545TIP3    H259051   4.210   6.134   0.338 -0.7985 -0.9544  0.8149
12546TIP3   OH259052   3.256   0.312  16.069  0.2163  0.0939 -0.7301
12546TIP3    H159053   3.221   0.382  16.014 -0.7673  1.2116  1.1896
12546TIP3    H259054   3.186   0.246  16.072 -0.3151  0.6845  0.2649
12547TIP3   OH259055   1.445   4.069   6.596  0.7135  0.1521  0.5217
12547TIP3    H159056   1.508   3.998   6.581  0.3144 -0.2446  0.6912
12547TIP3    H259057   1.372   4.049   6.538  0.9473  0.8779 -0.0337
12548TIP3   OH259058   1.793   4.056  15.471 -0.3194 -0.1285 -0.3949
12548TIP3    H159059   1.710   4.053  15.517  0.1599 -0.6813  0.4479
12548TIP3    H259060   1.776   4.012  15.387 -0.8124 -0.4358 -0.1334
12549TIP3   OH259061   5.899   6.395  14.368 -0.1667  0.2783 -0.1953
12549TIP3    H159062   5.858   6.442  14.296  2.0881  0.8530 -1.1764
12549TIP3    H259063   5.952   6.461  14.414  0.5442 -0.6305  0.3417
12550TIP3   OH259064   4.655   6.701  14.557 -0.8656  0.2068  0.1583
12550TIP3    H159065   4.662   6.747  14.641 -1.1398  0.8668 -0.1731
12550TIP3    H259066   4.564   6.713  14.530 -1.4262 -1.9858  0.8637
12551TIP3   OH259067   0.078   3.832  14.432  0.2237  0.7296 -0.3062
12551TIP3    H159068   0.062   3.756  14.377  0.3825  0.2642  0.2796
12551TIP3    H259069   0.088   3.904  14.371 -0.5071  0.3898 -0.8456
12552TIP3   OH259070   2.099   2.116   3.537  0.6284 -0.8131 -0.4462
12552TIP3    H159071   2.021   2.114   3.480  1.1752 -2.5404 -1.2010
12552TIP3    H259072   2.071   2.071   3.616  0.4490 -0.1170 -0.0999
12553TIP3   OH259073   0.194   0.492  11.823 -0.1063 -0.3445 -0.2771
12553TIP3    H159074   0.252   0.518  11.895 -1.2574  0.7184  0.2983
12553TIP3    H259075   0.223   0.403  11.801  2.3480  0.4656 -0.6766
12554TIP3   OH259076   1.158   2.042   4.727  0.3565 -0.0007  0.2779
12554TIP3    H159077   1.079   2.084   4.694 -0.8049 -1.6710  0.7700
12554TIP3    H259078   1.204   2.011   4.649 -0.9718 -1.5222  0.0514
12555TIP3   OH259079   4.410   1.858   5.712 -0.3297  0.3136  0.0395
12555TIP3    H159080   4.404   1.901   5.626 -1.6263  0.0203 -0.0341
12555TIP3    H259081   4.338   1.794   5.712  1.0319 -1.2809  0.4799
12556TIP3   OH259082   0.505   5.844   0.628  0.4372 -0.0044  0.0520
12556TIP3    H159083   0.532   5.752   0.636 -2.6225 -1.0095  0.2267
12556TIP3    H259084   0.538   5.886   0.707  1.7630 -0.9563  0.0363
12557TIP3   OH259085   4.443   3.038   3.901  0.7007  0.1928  0.4444
12557TIP3    H159086   4.357   3.015   3.937  1.0258 -1.8020  0.0674
12557TIP3    H259087   4.472   3.112   3.955 -1.4856  1.3114  0.1752
12558TIP3   OH259088   1.040   0.340   4.552 -0.1325  0.0568 -0.4373
12558TIP3    H159089   1.045   0.433   4.529  1.5992  0.5679  1.7280
12558TIP3    H259090   1.128   0.307   4.536 -0.2864 -0.7948  0.4453
12559TIP3   OH259091   0.238   1.791  13.604 -0.3074  0.4344 -0.3324
12559TIP3    H159092   0.177   1.831  13.666 -0.1434  2.1231 -1.2066
12559TIP3    H259093   0.186   1.725  13.558 -0.8774  0.3393  0.4260
12560TIP3   OH259094   1.263   1.243   3.636 -0.0639 -0.1758 -0.3751
12560TIP3    H159095   1.209   1.257   3.559  0.9231  1.3929 -0.8400
12560TIP3    H259096   1.284   1.331   3.667  1.9675 -0.7185 -0.0567
12561TIP3   OH259097   1.047   2.022   2.855 -0.1541  0.5777  0.1597
12561TIP3    H159098   1.068   2.007   2.947  1.3151  2.2364  0.1465
12561TIP3    H259099   1.097   2.100   2.831  0.3151 -0.3913 -2.3351
12562TIP3   OH259100   2.097   4.476   2.307 -0.4387  0.1722  0.3472
12562TIP3    H159101   2.106   4.516   2.393 -0.0782  0.1023  0.3468
12562TIP3    H259102   2.003   4.469   2.293 -0.5013  0.4693  0.6021
12563TIP3   OH259103   6.424   1.644  12.799  0.2733 -0.0567 -0.2377
12563TIP3    H159104   6.396   1.583  12.732  0.4570 -1.2877  0.7648
12563TIP3    H259105   6.373   1.620  12.876  1.4966 -0.0193  0.6175
12564TIP3   OH259106   4.962   0.546   4.102  0.8739  0.2046  0.2674
12564TIP3    H159107   4.954   0.507   4.189 -1.0297 -0.2095 -0.0482
12564TIP3    H259108   4.934   0.636   4.113 -0.2142 -0.0738 -0.0363
12565TIP3   OH259109   2.644   0.802  14.847  0.1953  0.4206 -0.2197
12565TIP3    H159110   2.602   0.776  14.765  1.5357  1.0807 -1.1520
12565TIP3    H259111   2.687   0.885  14.826 -0.5953  1.3078  1.5488
12566TIP3   OH259112   0.052   5.760  10.915 -0.1925 -0.2754  0.3389
12566TIP3    H159113  -0.025   5.729  10.868  0.2454  0.6639 -1.0771
12566TIP3    H259114   0.084   5.834  10.862  0.1824  1.0117  2.2755
12567TIP3   OH259115   5.528   2.699   0.047 -0.0834  0.5534  0.1031
12567TIP3    H159116   5.602   2.639   0.033 -1.3182 -0.7656 -1.0964
12567TIP3    H259117   5.535   2.763  -0.023  0.5756  1.1657  0.7050
12568TIP3   OH259118   3.981   3.687  14.272 -0.1911  1.0246  0.2748
12568TIP3    H159119   4.067   3.653  14.298 -0.8979 -0.9014  0.2935
12568TIP3    H259120   3.954   3.629  14.200 -0.7808  2.6430 -0.8548
12569TIP3   OH259121   5.140   4.642  12.998  0.0413  0.7744 -0.4425
12569TIP3    H159122   5.182   4.568  12.954 -0.0964  0.6760 -0.4080
12569TIP3    H259123   5.175   4.719  12.953  1.3460  0.7635  0.5014
12570TIP3   OH259124   4.680   3.014   2.507 -0.3705  0.1988  0.1448
12570TIP3    H159125   4.769   2.992   2.535 -0.4722  0.6322  0.8384
12570TIP3    H259126   4.693   3.072   2.432 -0.0779 -0.2059 -0.1217
12571TIP3   OH259127   4.097   5.233  11.265 -0.4937 -0.7836 -0.0870
12571TIP3    H159128   4.016   5.189  11.237 -0.0474 -0.4612 -1.9888
12571TIP3    H259129   4.068   5.293  11.334 -1.6342 -1.6929  0.2669
12572TIP3   OH259130   4.363   1.974   5.461 -0.9502  0.1548 -0.6588
12572TIP3    H159131   4.384   1.952   5.370  1.5573 -1.2529  0.1574
12572TIP3    H259132   4.280   2.021   5.456 -0.3130  1.1815 -3.7702
12573TIP3   OH259133   2.665   5.427  14.557 -0.3900  0.4502 -0.8100
12573TIP3    H159134   2.655   5.523  14.555  1.4848  0.7685  0.8922
12573TIP3    H259135   2.730   5.412  14.625 -1.7736 -2.1748  0.0718
12574TIP3   OH259136   5.083   3.697   2.006 -0.5374 -0.7052  0.1028
12574TIP3    H159137   5.000   3.741   1.989  0.4535  1.1092 -0.3795
12574TIP3    H259138   5.148   3.768   2.005  1.2329 -2.2487 -1.1574
12575TIP3   OH259139   6.450   5.229  13.878 -0.4646 -0.3481 -0.4399
12575TIP3    H159140   6.369   5.240  13.929 -0.2449 -0.6732 -0.0168
12575TIP3    H259141   6.427   5.261  13.791 -0.6346  0.9278  0.0402
12576TIP3   OH259142   5.145   3.767  14.329 -0.0818  0.6081  0.4922
12576TIP3    H159143   5.101   3.760  14.414  0.3124  2.0142  0.8374
12576TIP3    H259144   5.170   3.859  14.323 -0.4764  0.6318 -1.3441
12577TIP3   OH259145   3.752   2.267  12.388  0.6004 -0.6491 -0.0073
12577TIP3    H159146   3.712   2.227  12.466  1.3362 -0.4549  0.4856
12577TIP3    H259147   3.681   2.273  12.325 -0.7447  1.7199  1.5777
12578TIP3   OH259148   4.326   4.873   2.754 -0.1910 -0.4719 -0.0132
12578TIP3    H159149   4.288   4.791   2.724 -2.4702  0.6639 -0.4480
12578TIP3    H259150   4.347   4.921   2.674  0.2879 -0.2481  0.2370
12579TIP3   OH259151   6.741   1.749  11.582 -0.1914 -0.0548 -0.0582
12579TIP3    H159152   6.710   1.777  11.496 -0.2212 -3.0650 -1.1476
12579TIP3    H259153   6.666   1.706  11.622 -0.5193  2.2851  2.0653
12580TIP3   OH259154   4.352   3.080   2.392  0.0427  0.6260  0.2372
12580TIP3    H159155   4.277   3.021   2.392  0.6084 -0.1242 -0.6052
12580TIP3    H259156   4.388   3.073   2.303  2.6545 -1.0670  1.2766
12581TIP3   OH259157   5.267   1.151   1.997 -0.2255  0.4339 -0.4148
12581TIP3    H159158   5.267   1.245   2.019  0.2360  0.6547 -1.3201
12581TIP3    H259159   5.358   1.132   1.974 -0.7133  0.2881 -2.3955
12582TIP3   OH259160   3.488   0.655  16.223 -0.0793 -0.4275  0.0451
12582TIP3    H159161   3.482   0.583  16.160 -1.1723  1.0050 -1.5957
12582TIP3    H259162   3.407   0.704  16.210  1.5094  2.2777 -0.4355
12583TIP3   OH259163   5.032   1.571  13.615 -0.4166 -0.5816  0.1380
12583TIP3    H159164   5.002   1.486  13.646 -1.9062 -0.1242  0.0073
12583TIP3    H259165   5.051   1.557  13.523  0.3799 -1.0214  0.3582
12584TIP3   OH259166   3.994   1.957   3.242  0.5220  0.5117  0.0749
12584TIP3    H159167   3.933   1.884   3.248 -0.0616  1.0516  0.9200
12584TIP3    H259168   3.950   2.020   3.184  0.0377  1.1088  1.0686
12585TIP3   OH259169   4.977   3.140  13.342  0.7029 -0.1692 -0.3797
12585TIP3    H159170   5.057   3.186  13.316  1.7002 -1.5577  0.0916
12585TIP3    H259171   4.925   3.205  13.388  1.8792  0.5879 -0.0800
12586TIP3   OH259172   6.552   0.060  16.153 -0.2909  0.0089 -0.4190
12586TIP3    H159173   6.469   0.089  16.190 -0.0305  0.5935 -0.2760
12586TIP3    H259174   6.536  -0.030  16.125 -0.6990 -0.2074  0.4610
12587TIP3   OH259175   0.611   3.976  14.464 -0.2561 -0.0184  0.5415
12587TIP3    H159176   0.627   4.019  14.547  0.7151  1.8201 -0.5295
12587TIP3    H259177   0.526   4.009  14.435 -0.1438  0.1031  0.3483
12588TIP3   OH259178   4.388   1.253   3.121 -1.4241  0.6125  0.5458
12588TIP3    H159179   4.354   1.169   3.151 -3.0298  0.8292 -0.5487
12588TIP3    H259180   4.479   1.236   3.100 -1.1861 -0.3742  2.1415
12589TIP3   OH259181   5.854   2.728  15.521 -0.1022 -0.1164  0.3061
12589TIP3    H159182   5.879   2.671  15.448 -0.4617  1.7109 -1.3056
12589TIP3    H259183   5.766   2.698  15.545 -0.5809  0.2108 -1.0006
12590TIP3   OH259184   2.070   6.127  16.892  0.0367 -0.2589 -0.5942
12590TIP3    H159185   1.983   6.166  16.877  0.2813  0.0439 -1.2610
12590TIP3    H259186   2.129   6.181  16.840  0.4473 -1.2523 -1.1648
12591TIP3   OH259187   5.667   2.840   2.729  0.4460 -0.5738 -0.4705
12591TIP3    H159188   5.633   2.816   2.815 -2.1389  1.0692 -0.9060
12591TIP3    H259189   5.745   2.893   2.748 -0.6425  0.6263  0.9791
12592TIP3   OH259190   5.158   2.995  10.485  1.2970 -0.5223 -0.2906
12592TIP3    H159191   5.113   3.074  10.454  0.1078 -1.4093 -0.9353
12592TIP3    H259192   5.223   3.027  10.547  1.3877  1.0292 -1.1345
12593TIP3   OH259193   2.879   3.975   3.423 -0.0897  0.0457  0.0023
12593TIP3    H159194   2.803   3.951   3.370 -1.1458  1.0057  1.0201
12593TIP3    H259195   2.883   4.070   3.419  1.9823 -0.0422 -1.2104
12594TIP3   OH259196   2.736   4.758  14.266 -0.3585  0.0301  0.3233
12594TIP3    H159197   2.714   4.669  14.238 -0.1692 -0.3698  1.4091
12594TIP3    H259198   2.721   4.812  14.188 -0.3928 -0.9601 -0.3750
12595TIP3   OH259199   5.938   3.947   1.214 -0.3783 -0.1852 -0.2297
12595TIP3    H159200   5.938   4.038   1.187 -0.4214 -0.0699  0.1599
12595TIP3    H259201   5.910   3.948   1.305  2.0851 -0.3220  0.6079
12596TIP3   OH259202   4.471   6.545  12.067  0.4158  0.0087 -0.2793
12596TIP3    H159203   4.453   6.624  12.016 -0.0707  0.7272  0.9629
12596TIP3    H259204   4.559   6.519  12.041  1.1114  1.7257  0.2436
12597TIP3   OH259205   3.491   5.520   3.454 -0.1072  0.2749  0.1216
12597TIP3    H159206   3.545   5.591   3.419  0.2179 -0.4882 -0.9673
12597TIP3    H259207   3.548   5.443   3.451 -0.4213 -0.0365  1.3754
12598TIP3   OH259208   0.644   3.060  11.986  0.1157  0.0915 -0.3529
12598TIP3    H159209   0.564   3.025  11.946  0.3181 -0.7503 -0.0300
12598TIP3    H259210   0.691   2.983  12.018  0.1006  0.7123  1.2541
12599TIP3   OH259211   0.452   5.390   3.032 -0.1446  0.1423 -0.1627
12599TIP3    H159212   0.363   5.422   3.019 -0.4118 -0.9549 -1.1595
12599TIP3    H259213   0.508   5.465   3.007 -0.7724  0.6174 -0.1617
12600TIP3   OH259214   0.792   1.632  10.267  0.4605 -0.0175  0.1351
12600TIP3    H159215   0.765   1.541  10.269 -0.0428  0.1413  1.1121
12600TIP3    H259216   0.712   1.681  10.250  0.9565  0.1849 -1.8940
12601TIP3   OH259217   4.632   5.495   2.053 -0.2782  0.4500 -0.1813
12601TIP3    H159218   4.680   5.506   2.136 -1.0979 -0.8776  0.5162
12601TIP3    H259219   4.541   5.488   2.080 -0.4999 -0.5836 -1.1244
12602TIP3   OH259220   3.400   4.916   5.532  0.0100 -0.0945 -0.6145
12602TIP3    H159221   3.475   4.859   5.514  1.2619  0.7150  1.7083
12602TIP3    H259222   3.418   4.995   5.480  0.3724 -0.2158 -0.6795
12603TIP3   OH259223   2.486   0.441   0.742  0.0343 -0.9527 -0.7529
12603TIP3    H159224   2.477   0.528   0.704 -0.9261 -0.0361  1.4447
12603TIP3    H259225   2.574   0.440   0.780  0.4055 -1.3145 -1.5918
12604TIP3   OH259226   4.730   1.396   3.983 -0.2598  0.3985  0.3893
12604TIP3    H159227   4.795   1.437   3.926  1.3623 -1.8155  0.4958
12604TIP3    H259228   4.780   1.368   4.060 -1.0912 -2.0643  0.1311
12605TIP3   OH259229   4.656   1.683  15.678 -0.4518  0.0078 -0.1161
12605TIP3    H159230   4.688   1.605  15.633 -1.1085  0.2175 -0.9721
12605TIP3    H259231   4.728   1.709  15.735 -0.7448 -2.0619  1.3134
12606TIP3   OH259232   5.933   0.173  11.622 -0.3077  0.2092 -0.4880
12606TIP3    H159233   5.949   0.262  11.654  1.9495 -0.2153 -0.2834
12606TIP3    H259234   5.944   0.117  11.699 -0.7484 -0.3321 -0.8092
12607TIP3   OH259235   4.413   6.589   2.483 -0.4829  0.1878  0.2721
12607TIP3    H159236   4.408   6.677   2.519  1.9996  0.1005  0.9820
12607TIP3    H259237   4.506   6.566   2.487 -1.0813 -2.5843  0.4051
12608TIP3   OH259238   2.627   5.047  11.758  0.3228 -0.3444 -0.0842
12608TIP3    H159239   2.606   4.954  11.760  0.2124 -0.3118  0.4990
12608TIP3    H259240   2.677   5.059  11.677  0.7123 -0.9854  0.0562
12609TIP3   OH259241   5.499   6.418  14.091  0.4452 -0.6303 -0.5794
12609TIP3    H159242   5.476   6.325  14.093  0.0552 -0.5355 -0.5849
12609TIP3    H259243   5.480   6.445  14.001 -0.6193 -0.2558 -0.2550
12610TIP3   OH259244   4.764   0.955  11.903  0.1496 -0.0225 -0.5834
12610TIP3    H159245   4.819   1.030  11.926  0.9009 -0.1700 -1.8089
12610TIP3    H259246   4.736   0.919  11.987  1.6222  0.2851  0.0723
12611TIP3   OH259247   4.414   5.002  10.992  0.2530  1.0029  0.4392
12611TIP3    H159248   4.378   5.053  10.919  0.7485 -0.0010 -0.5404
12611TIP3    H259249   4.416   4.912  10.959  3.7153  0.9651  0.3612
12612TIP3   OH259250   6.447   2.639   3.543  1.1833 -0.0402  0.0556
12612TIP3    H159251   6.448   2.717   3.598  0.4242 -0.7084  1.0653
12612TIP3    H259252   6.485   2.570   3.598 -0.1229 -0.8591 -0.0229
12613TIP3   OH259253   6.328   0.447   4.471 -0.4311 -0.0478 -0.0117
12613TIP3    H159254   6.244   0.454   4.517 -0.7500  1.2790 -0.7304
12613TIP3    H259255   6.384   0.398   4.531 -1.9360 -1.6712  0.1495
12614TIP3   OH259256   5.768   1.187  16.708  0.1233  0.0738  0.5461
12614TIP3    H159257   5.841   1.142  16.666 -2.1637 -0.0574 -3.8986
12614TIP3    H259258   5.705   1.117  16.726 -0.7442  0.6929 -0.0463
12615TIP3   OH259259   3.282   3.970  14.861 -0.2735 -0.5978 -0.2614
12615TIP3    H159260   3.223   3.901  14.893  0.6110 -1.4284 -0.4046
12615TIP3    H259261   3.361   3.961  14.914 -0.3073  0.6309  0.0499
12616TIP3   OH259262   2.667   2.962   3.656  0.2706  0.0537 -0.1500
12616TIP3    H159263   2.762   2.975   3.652  0.1755  0.8744  0.0624
12616TIP3    H259264   2.655   2.892   3.719  0.7799 -0.6536 -0.8241
12617TIP3   OH259265   2.325   2.553  12.857 -0.4672 -0.3982  0.0430
12617TIP3    H159266   2.300   2.580  12.769  0.1781  0.5740  0.1447
12617TIP3    H259267   2.420   2.561  12.859 -0.4975 -0.1163  0.9186
12618TIP3   OH259268   0.643   0.449   5.293  0.1101  0.4539  0.1804
12618TIP3    H159269   0.734   0.427   5.275  0.5695  1.6616  0.9146
12618TIP3    H259270   0.642   0.545   5.300 -0.9052  0.3729  1.7082
12619TIP3   OH259271   4.153   3.348   3.666 -0.4123  0.5986 -0.5595
12619TIP3    H159272   4.093   3.273   3.660 -0.9963  1.0512 -0.3489
12619TIP3    H259273   4.240   3.307   3.674 -0.8374 -0.0760  0.9224
12620TIP3   OH259274   3.605   5.183  11.515 -0.3713  0.4139 -0.1673
12620TIP3    H159275   3.596   5.240  11.591  0.6400 -2.1758  2.0064
12620TIP3    H259276   3.650   5.238  11.450 -0.2361  2.3475  1.4549
12621TIP3   OH259277   5.921   5.546   6.660  0.0961  0.2021 -0.0357
12621TIP3    H159278   5.987   5.488   6.697  0.0562  0.5173  0.5519
12621TIP3    H259279   5.896   5.603   6.733 -1.8216 -0.7885  0.1546
12622TIP3   OH259280   4.557   6.535  15.875  0.1199 -0.3947 -0.3076
12622TIP3    H159281   4.469   6.514  15.846 -0.2946  0.8753 -0.0556
12622TIP3    H259282   4.581   6.614  15.826  1.1050 -0.6930 -0.3419
12623TIP3   OH259283   5.397   3.406  15.556  0.5858 -0.5881 -0.3254
12623TIP3    H159284   5.302   3.406  15.540  0.3667  0.7618  0.7690
12623TIP3    H259285   5.435   3.380  15.473 -0.7473 -1.2611 -0.7650
12624TIP3   OH259286   4.580   2.106  15.680 -0.5495  0.0291  0.1604
12624TIP3    H159287   4.568   2.186  15.628  0.3512 -0.8022 -1.4143
12624TIP3    H259288   4.591   2.137  15.770  1.5726  1.8464 -0.6344
12625TIP3   OH259289   1.123   0.988  12.989 -0.2720  0.3078  0.2929
12625TIP3    H159290   1.049   1.048  12.983  0.7030  1.4100 -2.2824
12625TIP3    H259291   1.191   1.038  13.033  0.0564  0.5619 -0.4976
12626TIP3   OH259292   2.307   4.837  14.707 -0.1634  0.5788 -0.1400
12626TIP3    H159293   2.224   4.843  14.755 -0.6375  0.1122 -0.8831
12626TIP3    H259294   2.291   4.883  14.625 -0.1182 -0.6379 -0.8593
12627TIP3   OH259295   5.314   0.797   2.505 -0.1963  0.1324 -1.0133
12627TIP3    H159296   5.378   0.790   2.434 -0.7957  0.8170 -1.6397
12627TIP3    H259297   5.366   0.804   2.585  0.4870 -0.5203 -1.3943
12628TIP3   OH259298   5.664   5.223  11.139 -0.1170 -0.0781  0.4893
12628TIP3    H159299   5.750   5.187  11.160  0.2975 -1.0036 -2.2917
12628TIP3    H259300   5.680   5.315  11.117 -0.2305  0.3333  2.0461
12629TIP3   OH259301   0.929   0.975  11.266 -0.0953  0.3870 -0.1669
12629TIP3    H159302   0.981   1.052  11.288  0.4988 -0.3307  1.0645
12629TIP3    H259303   0.994   0.907  11.250 -0.5672 -0.7525  2.2387
12630TIP3   OH259304   0.989   6.401   2.269  0.3269  0.5856  0.3568
12630TIP3    H159305   0.927   6.338   2.232 -0.2071  0.6432  1.1160
12630TIP3    H259306   1.024   6.358   2.347  0.7848  0.7984  0.2714
12631TIP3   OH259307   6.615   0.065   3.177  0.7181 -0.0030  0.1357
12631TIP3    H159308   6.609   0.146   3.229 -1.4588  0.5267 -0.8471
12631TIP3    H259309   6.575  -0.002   3.232  0.6436  0.0301  0.1217
12632TIP3   OH259310   1.807   5.707   1.138 -0.0942  0.5774 -0.8816
12632TIP3    H159311   1.883   5.664   1.100  0.7929  2.2062 -1.0108
12632TIP3    H259312   1.772   5.762   1.068 -0.5047  0.9748 -0.3773
12633TIP3   OH259313   2.775   2.010   5.555  0.1234 -0.1296  0.0501
12633TIP3    H159314   2.795   2.095   5.594 -1.6762 -0.5926  2.2379
12633TIP3    H259315   2.805   1.946   5.620 -1.5260 -1.0101  0.0099
12634TIP3   OH259316   3.980   2.864  11.597  0.4367  0.5875 -0.3256
12634TIP3    H159317   4.037   2.834  11.527  1.1468  0.1883  0.3974
12634TIP3    H259318   3.973   2.958  11.584  1.8207  0.7445 -0.0487
12635TIP3   OH259319   2.960   1.519   0.809 -0.7185 -0.2462  0.4545
12635TIP3    H159320   2.959   1.531   0.714 -1.6380  0.7795  0.5787
12635TIP3    H259321   3.026   1.451   0.823 -0.2020 -0.0581 -0.8699
12636TIP3   OH259322   1.961   3.814  12.918 -0.5493  0.1093  1.0766
12636TIP3    H159323   1.974   3.744  12.855  0.2935  1.1689  0.0322
12636TIP3    H259324   2.048   3.834  12.951 -0.2919  2.5699 -0.8015
12637TIP3   OH259325   4.158   6.726   3.087 -0.1924 -0.9157  0.2813
12637TIP3    H159326   4.117   6.665   3.149  0.3153 -1.4950  0.0543
12637TIP3    H259327   4.214   6.671   3.033  1.1347 -0.1012  0.7796
12638TIP3   OH259328   2.267   2.233  15.475  0.0632  0.1343 -0.2718
12638TIP3    H159329   2.227   2.155  15.437 -2.2464  0.9705  0.2382
12638TIP3    H259330   2.292   2.286  15.399 -0.7318  0.0045 -0.6376
12639TIP3   OH259331   1.181   1.835   1.312  0.8824 -0.4700 -0.2432
12639TIP3    H159332   1.265   1.844   1.267  0.1530  0.8773 -1.4188
12639TIP3    H259333   1.181   1.905   1.377  0.8464 -0.7362  0.0428
12640TIP3   OH259334   4.538   0.145   1.563 -0.2548  0.1942  0.3730
12640TIP3    H159335   4.548   0.125   1.469 -1.3309  1.4586 -0.0377
12640TIP3    H259336   4.444   0.151   1.576 -0.1342 -0.5575  1.6864
12641TIP3   OH259337   6.004   5.992  11.917 -0.0310 -0.2265  0.8771
12641TIP3    H159338   5.957   6.074  11.932  0.5630  0.2351  0.2688
12641TIP3    H259339   6.009   5.983  11.822  1.8053  0.1706  0.8942
12642TIP3   OH259340   1.029   3.758  16.316  0.0030 -0.3825 -0.0579
12642TIP3    H159341   1.038   3.845  16.354  0.3722  0.0916 -1.1922
12642TIP3    H259342   1.044   3.698  16.390  0.1737  0.5004  0.6453
12643TIP3   OH259343   0.551   4.333  14.083  0.0521 -0.4284 -0.1529
12643TIP3    H159344   0.548   4.428  14.070  0.5865  0.0094  2.4055
12643TIP3    H259345   0.640   4.316  14.114 -1.2528 -1.0316  3.7277
12644TIP3   OH259346   5.946   4.104   6.724  0.3642 -0.0541 -0.3091
12644TIP3    H159347   6.032   4.087   6.685 -0.3047  1.9216 -2.8888
12644TIP3    H259348   5.892   4.030   6.698  0.7706 -0.3096 -0.4209
12645TIP3   OH259349   4.284   0.659  14.970  0.2875  1.0397  0.5037
12645TIP3    H159350   4.329   0.687  14.890  1.3219  1.1673  1.1288
12645TIP3    H259351   4.293   0.733  15.030  0.9499  0.3046  1.3199
12646TIP3   OH259352   3.014   3.287   3.423  0.4278  0.1473  0.2929
12646TIP3    H159353   2.992   3.301   3.515 -1.6047 -0.4779 -0.0687
12646TIP3    H259354   3.101   3.247   3.425 -0.0866 -0.9783  2.0014
12647TIP3   OH259355   6.708   5.212  13.785  0.0698 -0.1388 -0.1881
12647TIP3    H159356   6.633   5.224  13.843  0.2872  0.2452  0.0179
12647TIP3    H259357   6.696   5.125  13.748  0.1925 -0.6045  0.8243
12648TIP3   OH259358   4.019   1.278  16.116  0.1902 -0.4348  0.3800
12648TIP3    H159359   3.960   1.208  16.141  0.7722 -1.6948 -1.5910
12648TIP3    H259360   4.105   1.250  16.148  0.1484  0.2498  1.1296
12649TIP3   OH259361   6.037   1.634  14.162  0.1858  0.6107 -0.1427
12649TIP3    H159362   6.067   1.712  14.117 -0.2756  0.5544 -0.5525
12649TIP3    H259363   6.097   1.625  14.237  1.7606 -0.0023 -1.4205
12650TIP3   OH259364   0.172   2.438   4.751  0.2344  0.1247 -0.2961
12650TIP3    H159365   0.177   2.499   4.678 -1.3152  2.0053  1.0475
12650TIP3    H259366   0.104   2.376   4.727 -0.6533  1.0617 -0.2648
12651TIP3   OH259367   0.173   6.533   2.788  0.2346 -0.2414  0.2633
12651TIP3    H159368   0.210   6.604   2.840 -0.0779  0.8057 -0.8936
12651TIP3    H259369   0.238   6.518   2.718 -0.3107 -0.1678 -0.2668
12652TIP3   OH259370   5.245   1.384  13.321 -0.0830  0.9905  0.5848
12652TIP3    H159371   5.211   1.337  13.397 -1.1665  1.0081  0.1396
12652TIP3    H259372   5.197   1.467  13.321  0.9131  1.5796  0.6600
12653TIP3   OH259373   0.702   3.177   5.643 -0.0483  0.1703  0.4484
12653TIP3    H159374   0.623   3.153   5.692 -0.2265 -0.1564  0.0096
12653TIP3    H259375   0.694   3.129   5.561 -0.6789  2.1122 -0.6963
12654TIP3   OH259376   1.138   5.097   5.947 -0.4184 -0.2356 -0.3517
12654TIP3    H159377   1.167   5.037   5.879 -1.2797 -1.9038  0.6852
12654TIP3    H259378   1.211   5.158   5.958  0.4849 -1.0653 -1.4533
12655TIP3   OH259379   4.129   0.685   2.340  0.0096 -0.0756 -0.1279
12655TIP3    H159380   4.099   0.685   2.248  0.9924  1.2398 -0.4716
12655TIP3    H259381   4.224   0.678   2.334  0.1549  0.9126  0.7373
12656TIP3   OH259382   4.032   1.958   0.060 -0.4111  0.3754  0.2243
12656TIP3    H159383   4.010   1.919  -0.025 -1.2156  1.4480 -0.0778
12656TIP3    H259384   4.078   2.039   0.039 -2.5093  1.7890  0.7052
12657TIP3   OH259385   4.749   4.571   2.484 -0.3188 -0.2253  0.4596
12657TIP3    H159386   4.656   4.559   2.502 -0.7668  1.1703 -0.6799
12657TIP3    H259387   4.793   4.537   2.561 -1.8138 -0.1562  1.3887
12658TIP3   OH259388   6.460   0.938   4.594 -0.3814 -0.4094  0.5012
12658TIP3    H159389   6.470   0.932   4.499  1.6697 -0.2315  0.6591
12658TIP3    H259390   6.370   0.911   4.611 -1.0886  0.4818 -1.5718
12659TIP3   OH259391   2.817   0.863  12.503  0.0662 -0.4488  0.0240
12659TIP3    H159392   2.734   0.910  12.511 -0.2493 -0.7121 -1.3634
12659TIP3    H259393   2.818   0.804  12.578 -1.3107 -0.8830 -0.2595
12660TIP3   OH259394   2.348   3.231  12.189  0.3004  0.1384 -0.5072
12660TIP3    H159395   2.352   3.280  12.271  0.5260  1.3976 -1.2368
12660TIP3    H259396   2.264   3.187  12.192 -0.3342  1.3249 -0.2167
12661TIP3   OH259397   2.648   3.769   3.665 -0.0600  0.2267  0.1105
12661TIP3    H159398   2.555   3.754   3.647 -0.3455  1.2182  0.6589
12661TIP3    H259399   2.691   3.687   3.640 -1.0648 -0.2088 -0.2509
12662TIP3   OH259400   4.929   6.067   3.584  0.0953 -0.3317  0.7267
12662TIP3    H159401   5.017   6.054   3.550  0.5347 -1.1415  2.0693
12662TIP3    H259402   4.941   6.126   3.659 -0.7722  1.0529 -0.1876
12663TIP3   OH259403   0.966   2.361  11.086  0.2875  0.7416 -0.2017
12663TIP3    H159404   0.941   2.296  11.020 -3.4191  1.5921  0.1827
12663TIP3    H259405   0.980   2.309  11.165 -1.3679  0.2515 -0.2061
12664TIP3   OH259406   2.933   1.971   1.583 -0.1884 -0.7529  0.2140
12664TIP3    H159407   2.993   2.039   1.611  1.2925 -2.5081  1.5512
12664TIP3    H259408   2.921   1.987   1.489  3.1512 -0.8283 -0.3600
12665TIP3   OH259409   3.200   0.692   6.588  0.0482 -0.2181 -0.0046
12665TIP3    H159410   3.287   0.653   6.580 -0.5587 -1.2085 -2.3277
12665TIP3    H259411   3.141   0.618   6.601 -0.6268  0.3339  0.1361
12666TIP3   OH259412   1.280   0.919   0.679 -0.3536  0.5832  0.6312
12666TIP3    H159413   1.253   1.003   0.717 -0.1250 -0.3715  3.0929
12666TIP3    H259414   1.351   0.889   0.735 -0.5011 -1.3036 -0.1160
12667TIP3   OH259415   1.273   0.061  14.721  0.2730  0.2810 -0.4081
12667TIP3    H159416   1.284  -0.028  14.753 -0.5691  0.2477 -0.1802
12667TIP3    H259417   1.212   0.102  14.783 -1.7567  0.0753 -2.1280
12668TIP3   OH259418   4.049   0.932   4.083 -0.5393  0.3208  0.0071
12668TIP3    H159419   4.091   0.846   4.088 -0.1824  0.5254  0.7295
12668TIP3    H259420   3.985   0.931   4.154 -0.0041  0.9249  0.5080
12669TIP3   OH259421   2.849   3.320  16.397  0.2264  0.4794 -0.0320
12669TIP3    H159422   2.832   3.414  16.386  1.0496  0.5336 -0.8642
12669TIP3    H259423   2.944   3.313  16.400  0.1872 -0.4313 -0.8205
12670TIP3   OH259424   4.749   6.080   0.661 -0.2896 -0.1877  0.0351
12670TIP3    H159425   4.779   6.133   0.735  0.0732 -1.3130  0.7081
12670TIP3    H259426   4.785   5.993   0.677 -0.8189 -0.6316 -1.0884
12671TIP3   OH259427   5.016   0.563  12.904 -0.1458  0.1656  0.2677
12671TIP3    H159428   5.075   0.617  12.851  0.0506  1.0901  1.3991
12671TIP3    H259429   5.017   0.478  12.860  0.8620  0.5881 -0.5906
12672TIP3   OH259430   0.433   1.804   0.839 -0.0398 -0.0298 -0.3905
12672TIP3    H159431   0.393   1.862   0.904 -0.1591 -0.7203  0.1706
12672TIP3    H259432   0.359   1.775   0.784  0.0763  0.6314 -0.8975
12673TIP3   OH259433   5.983   6.480   2.774  0.2064 -0.3412  0.1449
12673TIP3    H159434   5.988   6.463   2.868  1.0665  3.2724  0.9125
12673TIP3    H259435   5.915   6.547   2.766 -0.4687 -1.2091 -1.9723
12674TIP3   OH259436   3.686   6.116   0.802  0.4715 -0.3798  0.4452
12674TIP3    H159437   3.692   6.024   0.829 -0.4159 -0.8032 -0.7208
12674TIP3    H259438   3.594   6.127   0.776  0.6826  0.7082  0.1267
12675TIP3   OH259439   5.792   3.593  11.124 -0.2541  0.0139  0.0821
12675TIP3    H159440   5.847   3.630  11.193 -0.4279  0.5381 -0.0516
12675TIP3    H259441   5.854   3.566  11.056 -0.0575 -0.8828  0.6168
12676TIP3   OH259442   5.568   6.100   5.384  0.6034  0.1106 -0.0068
12676TIP3    H159443   5.484   6.082   5.427 -0.2238 -1.0873 -1.9372
12676TIP3    H259444   5.607   6.013   5.372  1.6007  0.5666 -0.0976
12677TIP3   OH259445   0.476   5.382  16.447 -0.9103 -0.3032  0.6782
12677TIP3    H159446   0.546   5.411  16.389  0.0531 -0.8134  1.5441
12677TIP3    H259447   0.520   5.363  16.530 -2.2135  0.2679  1.5497
12678TIP3   OH259448   0.230   3.656   0.174 -0.1611 -0.4499 -0.2270
12678TIP3    H159449   0.213   3.741   0.215 -1.1662 -1.4368  1.5045
12678TIP3    H259450   0.304   3.672   0.116  1.6275  0.9985  2.2596
12679TIP3   OH259451   6.371   0.232   2.155  0.1334  0.2462  0.1196
12679TIP3    H159452   6.356   0.234   2.061 -0.0670  0.4174  0.1558
12679TIP3    H259453   6.302   0.286   2.192  0.3808  0.4141  0.3437
12680TIP3   OH259454   4.065   1.560   0.711  0.2937 -1.0320 -0.4387
12680TIP3    H159455   4.118   1.584   0.787  1.6269  0.4970 -1.7729
12680TIP3    H259456   3.995   1.625   0.708 -0.2122 -1.5484 -0.1143
12681TIP3   OH259457   5.670   2.619  16.102 -0.5835  0.1575  0.0107
12681TIP3    H159458   5.763   2.628  16.078 -0.4262 -2.1825 -0.5190
12681TIP3    H259459   5.625   2.607  16.018 -1.2351  0.3073  0.3339
12682TIP3   OH259460   5.320   0.520   0.359  0.5580  0.4898  0.1775
12682TIP3    H159461   5.234   0.561   0.365  0.0410 -0.7010  1.1918
12682TIP3    H259462   5.312   0.440   0.410  2.3141  0.4234  0.4011
12683TIP3   OH259463   6.389   1.021  14.551  0.0393 -0.1487 -0.7304
12683TIP3    H159464   6.363   0.929  14.556  0.4933 -0.2984 -1.1857
12683TIP3    H259465   6.329   1.059  14.487 -1.9864  0.5070  1.4040
12684TIP3   OH259466   3.279   5.646  15.343 -0.0649  0.5540 -0.2497
12684TIP3    H159467   3.276   5.627  15.437  0.2494  0.1429 -0.3231
12684TIP3    H259468   3.197   5.692  15.326 -1.0430 -1.0699 -0.1449
12685TIP3   OH259469   6.377   3.723  11.909 -0.3287 -0.2268  0.6702
12685TIP3    H159470   6.314   3.767  11.966 -1.3804 -0.3537 -0.3508
12685TIP3    H259471   6.454   3.781  11.909 -1.3440  1.1904  0.0724
12686TIP3   OH259472   5.470   4.522   1.445 -0.1333  0.4354  0.8521
12686TIP3    H159473   5.518   4.468   1.382 -0.7274  1.7230 -0.7893
12686TIP3    H259474   5.534   4.540   1.514  1.6384  1.6446 -0.9991
12687TIP3   OH259475   3.326   6.432  15.615  0.4345  0.0583  0.1049
12687TIP3    H159476   3.345   6.457  15.525  2.2854 -0.3421  0.3559
12687TIP3    H259477   3.410   6.405  15.651 -0.4887 -1.0080  1.5779
12688TIP3   OH259478   6.280   6.792   2.975 -0.3837 -0.5153  0.0135
12688TIP3    H159479   6.367   6.765   2.944 -0.1685 -0.0096  0.1745
12688TIP3    H259480   6.226   6.793   2.896 -0.0607 -0.1186 -0.2070
12689TIP3   OH259481   1.816   3.292   4.209 -0.2904 -0.2332  0.0358
12689TIP3    H159482   1.869   3.247   4.276  0.8723 -1.7749 -1.8311
12689TIP3    H259483   1.856   3.380   4.204 -1.6736  0.6819  2.6873
12690TIP3   OH259484   4.856   1.819   5.541  0.9052  0.0500 -0.1174
12690TIP3    H159485   4.774   1.798   5.586 -0.9051  1.3144 -2.6363
12690TIP3    H259486   4.918   1.753   5.572 -1.1093 -1.1157  1.6590
12691TIP3   OH259487   3.932   3.789   2.974  0.6817  0.9595  0.1965
12691TIP3    H159488   3.954   3.719   3.035  2.6729  1.8844  0.6431
12691TIP3    H259489   3.902   3.861   3.030 -1.9979  0.3494 -0.2968
12692TIP3   OH259490   5.850   3.628   3.921 -0.1402 -0.0342  0.4608
12692TIP3    H159491   5.762   3.660   3.900 -0.5277  1.1304  3.3261
12692TIP3    H259492   5.861   3.649   4.014  3.2147 -0.0991  0.1945
12693TIP3   OH259493   4.169   6.079  15.704  0.2435 -0.0368  0.1907
12693TIP3    H159494   4.153   5.999  15.655 -0.8396 -1.0870  2.1597
12693TIP3    H259495   4.085   6.099  15.747  1.7085 -0.6813  3.6882
12694TIP3   OH259496   0.834   0.511  12.877  0.0228  0.1470  0.4290
12694TIP3    H159497   0.763   0.574  12.888 -1.0155 -1.1710  1.7367
12694TIP3    H259498   0.884   0.517  12.958  1.8037  1.4516 -0.6963
12695TIP3   OH259499   2.103   5.948  16.697  0.4775 -0.4082  0.1425
12695TIP3    H159500   2.070   5.859  16.708 -1.5255 -0.0692 -2.1352
12695TIP3    H259501   2.074   5.995  16.775 -1.1822 -1.0470 -0.0598
12696TIP3   OH259502   4.839   5.224   4.966 -0.0092  0.6999 -0.3769
12696TIP3    H159503   4.784   5.150   4.942 -0.5235  0.7231  0.6652
12696TIP3    H259504   4.806   5.297   4.913 -2.0098  1.0814  1.2507
12697TIP3   OH259505   4.885   6.280   2.061  0.5814 -0.3076  0.2810
12697TIP3    H159506   4.918   6.366   2.088  0.5603 -0.2366  0.0841
12697TIP3    H259507   4.917   6.220   2.128  2.6571 -0.5432 -0.8394
12698TIP3   OH259508   2.602   5.497   1.778  0.0140 -0.1144 -0.2795
12698TIP3    H159509   2.519   5.450   1.767 -0.0756 -0.3414  1.1768
12698TIP3    H259510   2.598   5.532   1.867  0.9509  0.9630 -0.6334
12699TIP3   OH259511   4.520   1.127  14.569  0.4209 -0.6167  0.5486
12699TIP3    H159512   4.573   1.198  14.534  0.7702  0.0522  2.3109
12699TIP3    H259513   4.433   1.166  14.583 -1.2538 -2.1443 -3.9523
12700TIP3   OH259514   2.669   2.978   5.438 -0.0793  0.8670 -0.4087
12700TIP3    H159515   2.685   3.071   5.423  2.1214  0.3149 -2.0731
12700TIP3    H259516   2.729   2.933   5.378 -0.5214 -1.6343  0.8629
12701TIP3   OH259517   0.116   6.201  10.714 -0.1498 -0.0671  0.5320
12701TIP3    H159518   0.076   6.226  10.630  1.0416 -0.3913 -0.1588
12701TIP3    H259519   0.208   6.223  10.704  0.0830 -0.4800  1.6252
12702TIP3   OH259520   6.792   5.366   0.700 -0.0818  0.1638 -0.6224
12702TIP3    H159521   6.749   5.355   0.615 -0.6860 -0.4272 -0.2550
12702TIP3    H259522   6.719   5.374   0.763  0.3467 -0.0214 -0.0919
12703TIP3   OH259523   1.769   2.093  15.176 -0.2235 -0.1741  0.4946
12703TIP3    H159524   1.771   2.176  15.225  1.8761 -0.6931  1.3963
12703TIP3    H259525   1.683   2.056  15.195 -0.6832  1.1750  1.1623
12704TIP3   OH259526   2.725   5.330   3.953 -0.5244 -0.2478 -0.3497
12704TIP3    H159527   2.762   5.305   3.869 -1.6393 -0.6312 -0.7537
12704TIP3    H259528   2.719   5.425   3.950  2.1999  0.0235  0.5242
12705TIP3   OH259529   1.953   2.644   5.149  0.3802 -0.6864 -0.0168
12705TIP3    H159530   1.933   2.695   5.228  0.3812  0.0703 -0.4963
12705TIP3    H259531   2.012   2.575   5.180 -0.3201 -0.9389  0.8015
12706TIP3   OH259532   3.431   2.582  13.558  0.0025  0.7066  0.4491
12706TIP3    H159533   3.386   2.514  13.509  1.7039  0.3116 -0.6479
12706TIP3    H259534   3.434   2.549  13.648  1.7550 -1.2335 -0.2574
12707TIP3   OH259535   4.004   4.040   5.100 -0.6023  0.1967 -0.2649
12707TIP3    H159536   3.973   4.123   5.135 -3.3659 -0.7201 -0.2698
12707TIP3    H259537   4.010   4.054   5.006 -0.1983  0.6307 -0.1758
12708TIP3   OH259538   1.814   2.636  11.290 -0.5857 -0.0605 -0.4483
12708TIP3    H159539   1.778   2.548  11.302 -2.2640  0.8862  2.2750
12708TIP3    H259540   1.750   2.681  11.235  0.4424 -0.5296 -2.1370
12709TIP3   OH259541   6.694   5.208   5.235 -0.1409  0.1944 -0.2249
12709TIP3    H159542   6.789   5.197   5.235  0.2897  3.1688 -0.8560
12709TIP3    H259543   6.673   5.236   5.324 -0.4522 -0.4043 -0.1008
12710TIP3   OH259544   1.797   6.628   1.367 -0.4022 -0.5419 -0.1415
12710TIP3    H159545   1.772   6.631   1.460 -3.0167 -2.2056 -0.6580
12710TIP3    H259546   1.736   6.687   1.324  0.4272 -0.2183 -0.9027
12711TIP3   OH259547   6.089   6.180  14.394 -0.2476 -0.6207 -0.7196
12711TIP3    H159548   5.995   6.162  14.387 -0.7946  1.4872  0.4487
12711TIP3    H259549   6.129   6.118  14.333 -2.3713 -1.6658 -1.1620
12712TIP3   OH259550   2.415   5.713  14.676 -0.0380 -0.5353 -0.9755
12712TIP3    H159551   2.375   5.792  14.712  3.1229  1.4287 -1.3674
12712TIP3    H259552   2.341   5.658  14.651 -2.3868  1.3738  1.1953
12713TIP3   OH259553   4.083   2.522  15.528 -0.1915  0.3705  0.2725
12713TIP3    H159554   3.987   2.520  15.528 -0.2502  1.8925  0.7889
12713TIP3    H259555   4.108   2.437  15.566 -1.3561  0.3126  0.9704
12714TIP3   OH259556   4.301   4.340  14.395  0.6025 -0.1960  0.3541
12714TIP3    H159557   4.294   4.306  14.306  2.4228  0.6813 -0.1674
12714TIP3    H259558   4.375   4.401  14.391 -0.6500  1.5404  1.9333
12715TIP3   OH259559   6.414   0.701   3.341  0.2087 -0.1209 -0.3908
12715TIP3    H159560   6.414   0.725   3.248 -1.5596  1.5095 -0.0216
12715TIP3    H259561   6.405   0.784   3.387 -2.2800 -1.1082  1.0927
12716TIP3   OH259562   3.618   2.581  16.847 -0.2421  0.2338  0.2692
12716TIP3    H159563   3.685   2.533  16.799  0.0552  0.0347  0.8661
12716TIP3    H259564   3.588   2.518  16.913 -0.9205  0.3701  0.0891
12717TIP3   OH259565   5.513   3.870  16.046  0.2476 -0.2378  0.4152
12717TIP3    H159566   5.455   3.938  16.012 -1.0419 -1.7709 -0.5596
12717TIP3    H259567   5.591   3.875  15.991 -0.1280 -0.0049 -0.1001
12718TIP3   OH259568   2.417   2.753   3.030 -0.2132 -0.1052 -0.1571
12718TIP3    H159569   2.459   2.840   3.033  0.1207 -0.2711  0.0453
12718TIP3    H259570   2.408   2.728   3.121 -1.6816  0.3586 -0.1496
12719TIP3   OH259571   1.441   4.563  15.367 -1.1497 -0.2348 -0.2646
12719TIP3    H159572   1.439   4.517  15.284 -1.3979  0.0804 -0.4360
12719TIP3    H259573   1.533   4.560  15.395 -0.9976  0.0017 -0.7403
12720TIP3   OH259574   0.812   1.800   2.987 -0.3787 -0.4536 -0.3710
12720TIP3    H159575   0.727   1.781   2.947 -0.3712 -1.2039 -0.0531
12720TIP3    H259576   0.873   1.743   2.941 -0.1212 -0.2290 -0.3057
12721TIP3   OH259577   2.773   1.618   2.855  0.2035  0.2480 -0.1334
12721TIP3    H159578   2.774   1.689   2.791  1.5729 -0.0876 -0.5106
12721TIP3    H259579   2.852   1.568   2.837 -0.5023 -1.1240  0.4192
12722TIP3   OH259580   3.594   0.075   1.623  0.8567  0.1082  0.0744
12722TIP3    H159581   3.673   0.038   1.582 -0.4440 -1.8433 -0.8361
12722TIP3    H259582   3.523   0.047   1.565 -0.5778  1.2079  1.2626
12723TIP3   OH259583   4.745   6.760  14.819  0.1299 -0.4726  0.5271
12723TIP3    H159584   4.715   6.669  14.813  0.0070 -0.3642 -0.9524
12723TIP3    H259585   4.839   6.753  14.837  0.0682 -0.8824  0.7075
12724TIP3   OH259586   3.484   6.433   0.829  0.1722 -0.7602 -0.2296
12724TIP3    H159587   3.569   6.394   0.808  0.0615 -1.7037  0.9414
12724TIP3    H259588   3.496   6.468   0.918 -0.3236  0.1343 -0.5050
12725TIP3   OH259589   2.933   3.523   5.784 -0.3145  0.5078  0.1810
12725TIP3    H159590   2.877   3.449   5.807  1.1070 -1.0289 -1.0224
12725TIP3    H259591   3.012   3.511   5.837 -0.3292  1.5365  0.4526
12726TIP3   OH259592   3.789   5.526  12.503 -0.2163 -0.8100 -0.1469
12726TIP3    H159593   3.814   5.437  12.526 -1.1716 -0.6253  1.7589
12726TIP3    H259594   3.870   5.566  12.471  0.7177 -1.7245  0.9956
12727TIP3   OH259595   5.898   4.631  15.834 -0.4094 -0.6268  0.0867
12727TIP3    H159596   5.817   4.613  15.881 -0.0139 -0.6121  0.7792
12727TIP3    H259597   5.871   4.641  15.743 -1.0324 -1.8426  0.1118
12728TIP3   OH259598   5.495   1.469  14.207  0.1994  0.3272  0.7527
12728TIP3    H159599   5.571   1.528  14.215  0.9919 -0.8800  3.4672
12728TIP3    H259600   5.500   1.435  14.118  1.5388  1.9653  0.1434
12729TIP3   OH259601   4.376   2.528   3.407 -0.6203 -0.1860 -0.7909
12729TIP3    H159602   4.421   2.594   3.458 -1.0595  0.1980 -0.8907
12729TIP3    H259603   4.291   2.519   3.450 -0.5405 -0.7299 -0.7408
12730TIP3   OH259604   6.460   1.306  14.061  0.2774  0.1782  0.2851
12730TIP3    H159605   6.365   1.306  14.052  0.0292  0.0236  2.4239
12730TIP3    H259606   6.488   1.381  14.007 -0.9728 -0.0808 -0.7909
12731TIP3   OH259607   3.016   6.499  14.571 -0.2755 -0.0608  0.3590
12731TIP3    H159608   2.996   6.561  14.640 -0.2218  0.0756  0.2517
12731TIP3    H259609   2.949   6.431  14.579 -0.2775 -0.0383  0.5348
12732TIP3   OH259610   0.193   0.337   6.330 -0.5209 -0.0150  0.5494
12732TIP3    H159611   0.262   0.347   6.264 -0.1904  0.3162  0.9409
12732TIP3    H259612   0.112   0.362   6.284 -0.1987  0.9311  0.4661
12733TIP3   OH259613   4.655   2.480  11.714  0.0111 -0.0093  0.1877
12733TIP3    H159614   4.701   2.402  11.746  0.4875 -0.3696 -1.2988
12733TIP3    H259615   4.562   2.462  11.732  0.1732 -0.6337  0.4202
12734TIP3   OH259616   3.471   4.281   5.226  0.2603  0.1427 -0.2309
12734TIP3    H159617   3.410   4.289   5.153 -0.6697 -1.5091  0.3117
12734TIP3    H259618   3.456   4.360   5.279 -1.8619 -0.4986  0.2015
12735TIP3   OH259619   5.292   5.692   5.363 -0.2422  0.2963  0.2520
12735TIP3    H159620   5.274   5.706   5.456  0.3031 -2.1072  0.7920
12735TIP3    H259621   5.231   5.623   5.337  0.6325 -0.1224 -0.7737
12736TIP3   OH259622   3.097   6.373   4.672 -0.2993  0.2817  0.0449
12736TIP3    H159623   3.133   6.296   4.628  0.4886  1.2670 -1.0895
12736TIP3    H259624   3.002   6.364   4.660 -0.1454  0.1880 -1.3174
12737TIP3   OH259625   5.677   3.096   4.680  0.0649 -0.7140 -0.1419
12737TIP3    H159626   5.599   3.142   4.651 -0.6902 -1.0915  1.1936
12737TIP3    H259627   5.721   3.158   4.738  1.1358 -0.2590 -1.3864
12738TIP3   OH259628   2.171   4.989   5.265 -0.2460 -0.2856  0.0211
12738TIP3    H159629   2.093   5.027   5.224 -0.2665  0.0089  0.3334
12738TIP3    H259630   2.139   4.911   5.309 -0.2463 -0.5369 -0.4160
12739TIP3   OH259631   3.553   4.956   4.428 -0.3299 -0.2993 -0.6739
12739TIP3    H159632   3.466   4.971   4.464  0.1011 -1.4285  0.9124
12739TIP3    H259633   3.540   4.962   4.333 -2.2169 -0.8170 -0.5005
12740TIP3   OH259634   6.224   6.784   1.744  0.2208  0.0022 -0.2063
12740TIP3    H159635   6.272   6.735   1.678 -0.1970  1.1658 -1.4243
12740TIP3    H259636   6.147   6.818   1.698 -0.1360  0.7584  0.8978
12741TIP3   OH259637   3.602   2.473   2.793 -0.6041 -0.0732  0.4428
12741TIP3    H159638   3.562   2.555   2.764 -0.7022 -0.2285  0.1285
12741TIP3    H259639   3.660   2.498   2.864  0.4191  0.4738 -0.5478
12742TIP3   OH259640   3.029   6.171  13.326  0.5458 -0.3171  0.0207
12742TIP3    H159641   2.945   6.133  13.354  0.7300 -0.3545  0.5321
12742TIP3    H259642   3.070   6.102  13.275  0.7749 -0.7404  0.7537
12743TIP3   OH259643   4.228   1.657   0.933 -0.1854  0.4900 -0.6797
12743TIP3    H159644   4.262   1.746   0.937 -0.2116  0.5243 -1.1375
12743TIP3    H259645   4.139   1.663   0.970  0.7784  0.1341  1.8889
12744TIP3   OH259646   1.032   2.489  14.123 -0.0075  0.1525  0.2499
12744TIP3    H159647   1.090   2.566  14.124  0.3148 -0.0876  0.0735
12744TIP3    H259648   1.051   2.444  14.206 -0.9101  0.7860  0.8255
12745TIP3   OH259649   3.939   1.001  16.107 -0.2955 -0.4820 -0.2266
12745TIP3    H159650   3.872   0.956  16.159  1.2705 -2.4801  0.1926
12745TIP3    H259651   3.995   0.930  16.074  1.3313  1.0757 -0.9638
12746TIP3   OH259652   6.199   3.959   6.170 -0.2691  0.4223 -0.2502
12746TIP3    H159653   6.277   3.972   6.116  1.7333 -1.6067  1.9023
12746TIP3    H259654   6.232   3.918   6.250 -3.6392 -0.9699  0.5909
12747TIP3   OH259655   6.452   5.368   4.718  0.4198 -0.5285 -1.0948
12747TIP3    H159656   6.455   5.457   4.751  0.4456 -1.1513  0.6752
12747TIP3    H259657   6.508   5.318   4.777 -0.4637 -1.9278 -1.3786
12748TIP3   OH259658   2.807   0.154  15.623  0.3703 -0.1120 -0.3592
12748TIP3    H159659   2.759   0.148  15.540  0.1445  0.2861 -0.2604
12748TIP3    H259660   2.747   0.199  15.682 -0.4981 -2.6096  0.7985
12749TIP3   OH259661   0.282   6.024   4.625 -0.5061  0.0322 -0.5222
12749TIP3    H159662   0.342   6.002   4.696  0.9086  2.7388 -0.7379
12749TIP3    H259663   0.230   6.098   4.658 -2.3201 -0.9179 -1.1013
12750TIP3   OH259664   2.207   5.218   2.307  0.1480  0.3457 -0.0829
12750TIP3    H159665   2.267   5.179   2.371  0.8608 -2.8930 -2.4260
12750TIP3    H259666   2.249   5.300   2.281  2.1636 -0.4874  0.3597
12751TIP3   OH259667   4.118   5.939   4.123 -0.0274 -0.3870 -0.4717
12751TIP3    H159668   4.054   5.959   4.191  1.1484  0.0374  0.5680
12751TIP3    H259669   4.104   5.847   4.101 -1.1908 -0.2066 -0.5062
12752TIP3   OH259670   2.286   3.841   0.825  0.3393 -0.7837  0.5516
12752TIP3    H159671   2.241   3.779   0.768 -0.5565 -0.9650  1.4449
12752TIP3    H259672   2.362   3.793   0.858  0.1918 -1.0733  0.4707
12753TIP3   OH259673   4.539   2.926  15.426 -0.6703  0.2815 -0.4589
12753TIP3    H159674   4.624   2.963  15.403 -0.2076  1.3515  2.6193
12753TIP3    H259675   4.555   2.832  15.434  0.3124  0.5119  0.3883
12754TIP3   OH259676   6.005   2.675  16.577 -0.5645  0.4903 -0.5424
12754TIP3    H159677   5.926   2.676  16.522 -1.5121 -3.0899  0.5018
12754TIP3    H259678   5.972   2.673  16.666  0.7780  0.3912 -0.0229
12755TIP3   OH259679   4.138   3.832   4.875  0.1541 -0.0958  0.5285
12755TIP3    H159680   4.079   3.797   4.808 -0.5663  2.5045 -0.3068
12755TIP3    H259681   4.184   3.755   4.909  0.1687 -1.6170 -2.5701
12756TIP3   OH259682   1.519   6.532   1.158 -0.8709 -0.4301 -0.2250
12756TIP3    H159683   1.589   6.490   1.108 -0.5686  2.1472 -2.1547
12756TIP3    H259684   1.438   6.497   1.121 -0.6308 -0.4849 -0.7024
12757TIP3   OH259685   2.819   5.005  13.867 -0.6757 -0.3708 -0.1334
12757TIP3    H159686   2.840   5.081  13.814  0.3061 -0.0722  0.6519
12757TIP3    H259687   2.824   5.036  13.957  1.5090 -1.7341  0.2854
12758TIP3   OH259688   6.248   0.667   5.254  0.8005  0.1335 -0.7519
12758TIP3    H159689   6.215   0.702   5.337  1.8467 -0.2405 -0.1541
12758TIP3    H259690   6.171   0.633   5.209  0.2424  0.2104  0.1284
12759TIP3   OH259691   1.536   5.795  11.971 -0.5092 -0.8283  0.3923
12759TIP3    H159692   1.442   5.780  11.979 -0.9879  1.1329 -0.8258
12759TIP3    H259693   1.575   5.748  12.045 -2.6655  0.2970  2.3369
12760TIP3   OH259694   0.442   3.244   3.809  0.5335 -0.0273 -0.0933
12760TIP3    H159695   0.408   3.167   3.855 -1.1311 -0.2569 -1.6072
12760TIP3    H259696   0.402   3.240   3.723  0.7679  2.3013 -0.3635
12761TIP3   OH259697   1.811   0.420   0.291 -0.2902  0.0495 -0.5949
12761TIP3    H159698   1.715   0.421   0.282 -0.3918  0.4009  0.3753
12761TIP3    H259699   1.832   0.506   0.328  0.2637 -0.4849  0.3924
12762TIP3   OH259700   5.351   4.739  12.067  0.2647  0.3674 -0.0050
12762TIP3    H159701   5.293   4.755  12.141  0.1779  0.3287 -0.0635
12762TIP3    H259702   5.439   4.735  12.105  0.0675 -1.3664  0.3388
12763TIP3   OH259703   4.398   5.454   3.594  0.3810 -0.4010  0.2778
12763TIP3    H159704   4.441   5.539   3.582  0.6728 -0.6006 -0.0850
12763TIP3    H259705   4.401   5.439   3.688  0.1811  0.0695  0.3621
12764TIP3   OH259706   0.538   0.767  14.705  0.2949 -0.3807 -0.4383
12764TIP3    H159707   0.480   0.696  14.731  2.1295 -1.3963  1.1677
12764TIP3    H259708   0.479   0.839  14.680 -1.7010 -0.8145  2.5123
12765TIP3   OH259709   6.429   3.855   0.333  0.1543 -0.2227  0.8085
12765TIP3    H159710   6.412   3.936   0.284  2.2202 -0.6744 -0.7861
12765TIP3    H259711   6.343   3.828   0.364 -0.9416  1.2997 -0.6963
12766TIP3   OH259712   3.735   4.471   5.162 -1.0698 -0.1801 -0.3288
12766TIP3    H159713   3.812   4.420   5.187  0.6030  2.3758  0.1939
12766TIP3    H259714   3.692   4.491   5.245 -0.7405  0.6481 -0.3515
12767TIP3   OH259715   1.641   2.177   5.749  0.3180 -0.0379 -0.3629
12767TIP3    H159716   1.593   2.107   5.705  0.6492  0.5437 -1.7249
12767TIP3    H259717   1.731   2.145   5.752  0.3747  0.1008 -0.5237
12768TIP3   OH259718   3.128   6.055  16.356  0.1150 -0.1271 -0.1363
12768TIP3    H159719   3.196   6.060  16.424 -0.5277 -1.0749  0.5990
12768TIP3    H259720   3.056   6.008  16.397 -0.7391  0.2774 -1.1240
12769TIP3   OH259721   2.046   0.891   2.826 -0.1774 -0.4616 -0.3273
12769TIP3    H159722   2.042   0.807   2.871  0.2897  0.0779  0.7549
12769TIP3    H259723   2.128   0.888   2.776  0.7580  0.0236  1.1288
12770TIP3   OH259724   0.467   4.254   2.472 -0.3539 -0.3361 -0.4074
12770TIP3    H159725   0.531   4.196   2.512 -0.1752  1.2868  1.8517
12770TIP3    H259726   0.389   4.245   2.526 -0.3211  1.4606 -0.0041
12771TIP3   OH259727   6.248   6.051  12.080  0.2656  0.0767 -0.0405
12771TIP3    H159728   6.167   6.047  12.029 -0.5810 -1.5761  1.3465
12771TIP3    H259729   6.298   5.974  12.051  1.6637  1.3966 -1.3140
12772TIP3   OH259730   0.056   4.329   5.782 -0.3831  0.3770  0.3706
12772TIP3    H159731   0.098   4.315   5.867 -1.0310  0.4183  0.6994
12772TIP3    H259732   0.062   4.244   5.738 -2.1816 -0.3406  1.4169
12773TIP3   OH259733   1.603   5.940   0.650  0.2372  0.4231 -1.0135
12773TIP3    H159734   1.573   6.017   0.602 -1.6228  1.2968  1.3700
12773TIP3    H259735   1.677   5.971   0.703  0.0296  0.3469 -0.6787
12774TIP3   OH259736   6.755   1.708   6.357 -0.3279  0.2671  0.3694
12774TIP3    H159737   6.725   1.625   6.321  0.1249  0.9218 -1.6637
12774TIP3    H259738   6.687   1.771   6.334  0.4927  0.9150 -0.3547
12775TIP3   OH259739   1.658   2.796   0.610 -0.0200  0.6176 -0.6580
12775TIP3    H159740   1.665   2.856   0.536  0.6724 -0.3258 -1.3874
12775TIP3    H259741   1.646   2.852   0.686  4.0758  1.9875 -0.7628
12776TIP3   OH259742   0.599   2.005  14.246 -0.0139 -0.9653  0.4581
12776TIP3    H159743   0.648   2.004  14.163 -1.9118  0.2093 -0.7579
12776TIP3    H259744   0.543   1.927  14.242 -0.0872 -0.9228  0.6558
12777TIP3   OH259745   6.437   5.653   2.993 -0.0740  0.4357 -0.4178
12777TIP3    H159746   6.423   5.575   2.941  1.2998 -0.3249  0.2904
12777TIP3    H259747   6.398   5.724   2.942  1.3253 -0.2446 -2.5566
12778TIP3   OH259748   1.011   6.116   1.848  0.7754 -0.2414  0.1096
12778TIP3    H159749   0.930   6.079   1.883  0.0053  1.5989  0.3764
12778TIP3    H259750   0.996   6.123   1.754  0.4227  0.5176  0.2138
12779TIP3   OH259751   4.953   1.918  14.556 -0.0318  0.3938 -0.0137
12779TIP3    H159752   4.946   1.910  14.651 -0.7019  0.9948 -0.0101
12779TIP3    H259753   5.034   1.871  14.534 -0.0716 -0.0788  0.8053
12780TIP3   OH259754   0.075   5.734  14.775 -0.3658 -0.3224 -0.1176
12780TIP3    H159755   0.042   5.791  14.705  1.0181  1.4347  0.5675
12780TIP3    H259756   0.009   5.740  14.844 -0.1213  0.7162  0.0477
12781TIP3   OH259757   0.837   1.761   5.821  0.4976 -0.5512  0.1288
12781TIP3    H159758   0.915   1.752   5.877  0.4604  0.2544  0.3206
12781TIP3    H259759   0.872   1.767   5.732  0.8290  2.0352  0.3793
12782TIP3   OH259760   2.979   5.426  15.253 -0.0891  0.2228  0.0189
12782TIP3    H159761   3.046   5.359  15.265 -1.5044 -1.5027 -1.1379
12782TIP3    H259762   2.903   5.378  15.219 -1.1765  2.4163 -0.8376
12783TIP3   OH259763   3.073   4.280  12.806  0.3889  0.2018  0.6685
12783TIP3    H159764   3.016   4.347  12.842  0.6860  1.3802 -0.9504
12783TIP3    H259765   3.161   4.305  12.836  0.6736  1.3437 -0.9905
12784TIP3   OH259766   2.841   2.196   6.006  0.3642 -0.1024  0.2786
12784TIP3    H159767   2.873   2.234   5.924 -1.2160 -0.1408 -0.3881
12784TIP3    H259768   2.859   2.263   6.072  0.0145  0.7168 -0.4367
12785TIP3   OH259769   2.287   0.800  16.431 -0.4365  0.0728 -0.3090
12785TIP3    H159770   2.316   0.767  16.346 -0.4100 -1.2836  0.2010
12785TIP3    H259771   2.360   0.784  16.490 -0.6556  0.5119  0.0879
12786TIP3   OH259772   4.390   1.054  12.831  0.0695  0.6197  0.1436
12786TIP3    H159773   4.417   0.966  12.856  0.9256  1.4026  2.1753
12786TIP3    H259774   4.429   1.068  12.745 -0.0024 -0.9270 -0.1702
12787TIP3   OH259775   1.363   3.588   0.763  0.2798 -0.0919 -0.5192
12787TIP3    H159776   1.383   3.672   0.722  2.7393 -1.5980 -2.6277
12787TIP3    H259777   1.403   3.523   0.706 -0.5635 -2.6629  1.6465
12788TIP3   OH259778   3.051   3.186  14.948 -0.2569 -0.1882 -0.3625
12788TIP3    H159779   2.974   3.182  14.891  0.6937 -1.0175 -1.6295
12788TIP3    H259780   3.051   3.275  14.982 -2.7374 -0.6216  1.0622
12789TIP3   OH259781   1.514   1.409   3.104  0.1008 -0.4779 -0.6250
12789TIP3    H159782   1.499   1.356   3.026 -0.5254 -0.3058 -0.6271
12789TIP3    H259783   1.598   1.452   3.088  1.7974 -3.1471  0.3220
12790TIP3   OH259784   6.580   1.025  14.040 -0.6731  0.2149 -0.1008
12790TIP3    H159785   6.575   1.121  14.035 -1.4105  0.1442 -1.0161
12790TIP3    H259786   6.654   1.002  13.984 -0.9121  0.2076 -0.4130
12791TIP3   OH259787   6.213   6.396   3.041  0.0576  0.1861  0.1306
12791TIP3    H159788   6.195   6.355   3.126 -1.1954 -1.5018 -0.8687
12791TIP3    H259789   6.135   6.449   3.024  0.1331  0.2133 -0.1302
12792TIP3   OH259790   6.353   2.495   3.192  0.2340  0.2913 -0.7778
12792TIP3    H159791   6.444   2.521   3.208  0.2327  0.0906 -0.4443
12792TIP3    H259792   6.330   2.441   3.267  0.2103 -0.6077 -1.4170
12793TIP3   OH259793   0.780   4.859  13.405  0.0067 -0.0346 -0.4969
12793TIP3    H159794   0.736   4.875  13.489 -0.1195 -2.3132 -0.0517
12793TIP3    H259795   0.873   4.871  13.424  0.3236 -3.4295  0.9131
12794TIP3   OH259796   0.557   2.171  16.058  0.2620  0.6994 -0.5950
12794TIP3    H159797   0.540   2.164  15.964  0.8716  0.4889 -0.6900
12794TIP3    H259798   0.650   2.151  16.068 -0.1089 -0.7513  0.2214
12795TIP3   OH259799   0.725   2.892  11.064 -0.5700 -0.6317 -0.3789
12795TIP3    H159800   0.735   2.798  11.084  1.2911  0.0712  2.8017
12795TIP3    H259801   0.803   2.913  11.013 -1.1246 -0.8519 -1.3252
12796TIP3   OH259802   1.684   3.607  14.754  0.3856  0.0960 -0.2348
12796TIP3    H159803   1.743   3.658  14.810  0.1820  0.0340  0.0350
12796TIP3    H259804   1.670   3.663  14.677 -1.2797  1.2413  0.8535
12797TIP3   OH259805   2.620   3.845   2.205  0.0853 -0.1600 -0.3355
12797TIP3    H159806   2.632   3.856   2.299  0.9176 -0.7077 -0.3561
12797TIP3    H259807   2.692   3.787   2.179 -0.5867 -0.6361 -1.1781
12798TIP3   OH259808   0.600   0.982  12.901 -0.7943  0.1692  0.0156
12798TIP3    H159809   0.590   1.027  12.985  2.0273 -1.3460  1.3205
12798TIP3    H259810   0.535   0.912  12.903 -1.1573  0.5159  0.6660
12799TIP3   OH259811   5.162   5.483  12.290 -0.7499 -0.6568 -0.0957
12799TIP3    H159812   5.177   5.504  12.198 -0.9272  0.6597  0.1607
12799TIP3    H259813   5.243   5.507  12.334 -0.3459 -2.0793  0.0025
12800TIP3   OH259814   4.908   1.628   1.193  0.3363 -0.4848  0.2636
12800TIP3    H159815   4.871   1.626   1.281 -0.5318 -0.3865 -0.0780
12800TIP3    H259816   4.840   1.589   1.138 -0.1316  1.5361 -0.6855
12801TIP3   OH259817   5.716   4.990  14.290 -0.0504  0.0620 -0.2987
12801TIP3    H159818   5.794   5.038  14.261  0.1486  0.5707  1.0014
12801TIP3    H259819   5.698   4.928  14.219  1.3484  0.1468 -0.7592
12802TIP3   OH259820   0.557   0.039  15.619 -0.1215 -0.0353  0.8113
12802TIP3    H159821   0.485  -0.024  15.617 -1.6683  1.5540 -2.9457
12802TIP3    H259822   0.520   0.117  15.660 -0.4793  0.6023 -0.6447
12803TIP3   OH259823   1.835   2.198   5.078  0.1426  0.4888 -0.8876
12803TIP3    H159824   1.846   2.245   5.161  0.0851 -1.2486  0.1608
12803TIP3    H259825   1.924   2.189   5.044  0.2464  0.5733 -0.6428
12804TIP3   OH259826   6.556   6.401   5.787  0.8708  0.1032 -0.3401
12804TIP3    H159827   6.517   6.331   5.735  0.3811 -0.3694  0.6349
12804TIP3    H259828   6.649   6.394   5.770  0.9952 -1.6952  0.7677
12805TIP3   OH259829   0.429   3.920   2.623  0.0530 -0.2740 -0.2243
12805TIP3    H159830   0.488   3.957   2.689 -0.2002  0.7637 -0.5604
12805TIP3    H259831   0.342   3.923   2.664 -0.1200  0.4660 -0.6329
12806TIP3   OH259832   2.466   5.318  12.212 -0.8403  0.4536  0.1726
12806TIP3    H159833   2.525   5.277  12.149 -1.3806  1.2599 -0.8960
12806TIP3    H259834   2.463   5.258  12.286  3.0322  1.3622  1.2585
12807TIP3   OH259835   0.311   5.795   5.284 -0.6574  0.4878  0.3070
12807TIP3    H159836   0.216   5.806   5.291 -0.5101  1.1671  1.4405
12807TIP3    H259837   0.347   5.862   5.342  0.4818 -0.7033  1.0257
12808TIP3   OH259838   1.045   0.487   5.129 -0.6232 -1.0292  0.2114
12808TIP3    H159839   1.103   0.516   5.059  0.1773  1.0026  1.6361
12808TIP3    H259840   1.064   0.393   5.137  0.2168 -1.0456 -1.3751
12809TIP3   OH259841   5.707   0.908  13.834 -0.4055 -0.9052 -0.1786
12809TIP3    H159842   5.643   0.979  13.830 -0.1846 -0.6878  0.1091
12809TIP3    H259843   5.741   0.902  13.745  1.5240  1.1662  0.3123
12810TIP3   OH259844   6.178   2.840   1.915  0.2885 -0.0756 -0.6796
12810TIP3    H159845   6.093   2.865   1.880  0.0679 -0.3990 -0.3838
12810TIP3    H259846   6.177   2.871   2.005  0.6341  0.2563 -0.7879
12811TIP3   OH259847   2.341   5.212  11.670 -0.0425  0.2539 -0.0802
12811TIP3    H159848   2.273   5.199  11.737  0.5847  1.0600  0.7401
12811TIP3    H259849   2.357   5.125  11.635 -0.1487 -0.2553  1.0694
12812TIP3   OH259850   2.105   2.007  14.699  0.6247  0.0105 -0.1462
12812TIP3    H159851   2.022   1.960  14.702  1.0045 -0.6594  0.0974
12812TIP3    H259852   2.152   1.969  14.625  1.1761 -0.4081  0.4083
12813TIP3   OH259853   5.619   6.615   0.899  0.3272 -0.2142 -0.5913
12813TIP3    H159854   5.680   6.592   0.970 -0.5268 -0.4812  0.0644
12813TIP3    H259855   5.645   6.558   0.826  1.8714  0.7635 -0.8726
12814TIP3   OH259856   5.263   6.013  16.419 -0.3063  0.0890 -0.5684
12814TIP3    H159857   5.354   5.990  16.438  0.1010  0.9382 -1.3918
12814TIP3    H259858   5.226   6.037  16.503  0.5867  0.9272 -0.4009
12815TIP3   OH259859   0.236   6.763   1.956 -0.0122  0.9228  0.8206
12815TIP3    H159860   0.210   6.684   2.004 -0.1864  1.5439  1.7678
12815TIP3    H259861   0.176   6.766   1.881  0.4121 -0.1827  0.4134
12816TIP3   OH259862   4.258   6.459  11.503 -0.7723 -0.2912 -0.3421
12816TIP3    H159863   4.236   6.541  11.459 -1.0070  0.5646  1.2588
12816TIP3    H259864   4.205   6.461  11.583  0.3784 -1.2721  0.4791
12817TIP3   OH259865   5.548   0.502  14.667  0.0114  0.5149 -0.0305
12817TIP3    H159866   5.613   0.450  14.620  1.0286  0.0156  1.8464
12817TIP3    H259867   5.463   0.465  14.640  0.6291 -0.8016 -0.2429
12818TIP3   OH259868   1.131   3.500  13.623 -0.6537  0.0466 -0.4960
12818TIP3    H159869   1.059   3.440  13.609 -1.8526  1.2750  0.1495
12818TIP3    H259870   1.100   3.560  13.692  0.0352  2.0481 -1.8153
12819TIP3   OH259871   4.565   5.927  16.067  0.3511 -0.2911 -0.2280
12819TIP3    H159872   4.485   5.883  16.038  0.4281 -0.4178 -0.2448
12819TIP3    H259873   4.610   5.951  15.987  0.1208  0.1667 -0.2258
12820TIP3   OH259874   1.512   5.584   2.716 -0.0363  0.4083 -0.6247
12820TIP3    H159875   1.449   5.654   2.698  1.7339  1.9142 -1.2985
12820TIP3    H259876   1.463   5.520   2.768 -1.8274  1.9624 -0.2932
12821TIP3   OH259877   0.438   5.460  14.352 -0.1345  0.4960  0.1336
12821TIP3    H159878   0.381   5.432  14.424  2.7760  0.7972  2.8181
12821TIP3    H259879   0.502   5.389  14.345  1.1213  1.6414 -0.3495
12822TIP3   OH259880   2.775   0.854   0.201  0.0503  0.4773 -0.5368
12822TIP3    H159881   2.807   0.766   0.220  2.8216  1.2807 -1.0516
12822TIP3    H259882   2.702   0.840   0.141  1.4724 -1.4614 -1.9641
12823TIP3   OH259883   5.694   4.181  11.478  0.5247 -0.4803  0.3803
12823TIP3    H159884   5.633   4.110  11.459  0.3780 -1.0227  2.6653
12823TIP3    H259885   5.645   4.242  11.532  1.3649  0.1754  0.4359
12824TIP3   OH259886   2.840   1.922  14.790 -0.2691  0.0221 -0.1369
12824TIP3    H159887   2.931   1.944  14.770 -0.0544  0.2338  1.0241
12824TIP3    H259888   2.812   1.868  14.715  0.7002  0.2189 -0.6626
12825TIP3   OH259889   2.775   3.068   6.095 -0.3899 -0.1024 -0.0397
12825TIP3    H159890   2.814   2.991   6.136  0.3526  0.6912  0.7818
12825TIP3    H259891   2.683   3.046   6.086 -0.1949 -1.0740  0.2156
12826TIP3   OH259892   2.079   2.700  12.156 -0.3638 -0.1805 -0.0726
12826TIP3    H159893   2.080   2.605  12.141 -0.9300 -0.3987  1.1531
12826TIP3    H259894   2.170   2.727  12.142  0.0174 -1.0777  0.5433
12827TIP3   OH259895   0.099   6.712   4.841 -0.9580  0.1969 -0.4900
12827TIP3    H159896   0.100   6.807   4.846  2.1253  0.2754 -0.4287
12827TIP3    H259897   0.137   6.683   4.925 -1.6395 -1.0839 -0.5921
12828TIP3   OH259898   4.328   1.106   5.725  0.0437 -0.8704 -0.3630
12828TIP3    H159899   4.246   1.057   5.718 -0.5769 -0.4709  2.7677
12828TIP3    H259900   4.301   1.196   5.741  1.0117 -0.7944  1.0581
12829TIP3   OH259901   1.776   0.272  11.791 -0.4073  0.1254  0.3031
12829TIP3    H159902   1.821   0.206  11.737  0.1815 -1.2479  2.3498
12829TIP3    H259903   1.841   0.340  11.806 -0.6454  0.6316 -0.8497
12830TIP3   OH259904   1.695   4.633   4.883  0.1093 -0.4878  0.3549
12830TIP3    H159905   1.752   4.622   4.806 -0.3077  1.2313 -0.2518
12830TIP3    H259906   1.616   4.675   4.848 -0.0540  0.3952  1.7267
12831TIP3   OH259907   6.783   1.658  10.649  0.3766 -0.2270  0.1158
12831TIP3    H159908   6.775   1.743  10.693  0.0807 -0.8143  1.2172
12831TIP3    H259909   6.876   1.650  10.628  0.7388 -0.4866  1.7595
12832TIP3   OH259910   5.462   4.210   5.387  0.0862 -0.4104  0.2306
12832TIP3    H159911   5.473   4.160   5.307  0.8819  0.1637 -0.0357
12832TIP3    H259912   5.368   4.220   5.397 -0.0072  0.9722 -1.5590
12833TIP3   OH259913   2.105   5.947   6.650 -0.1877 -0.0304  0.4653
12833TIP3    H159914   2.147   6.017   6.600 -1.9787  0.2691 -0.7416
12833TIP3    H259915   2.097   5.981   6.739  0.3360  0.6732  0.2494
12834TIP3   OH259916   5.691   4.483   0.739 -0.0111 -0.0527 -0.3295
12834TIP3    H159917   5.730   4.467   0.653  0.4394 -0.4091 -0.0665
12834TIP3    H259918   5.687   4.396   0.779  1.0637  0.2781  0.5390
12835TIP3   OH259919   2.572   0.936  12.595  0.2994 -0.2196 -0.3343
12835TIP3    H159920   2.519   1.009  12.562  0.2649 -0.2042 -0.2445
12835TIP3    H259921   2.621   0.974  12.668  1.8558  0.2788 -1.5800
12836TIP3   OH259922   5.733   0.351  12.515  0.1083 -0.6463 -0.1966
12836TIP3    H159923   5.784   0.347  12.434 -1.8947  0.6187 -1.6028
12836TIP3    H259924   5.740   0.262  12.551  3.8400 -0.3667  0.1511
12837TIP3   OH259925   4.668   6.538   2.358  0.0734 -0.4864 -0.2564
12837TIP3    H159926   4.583   6.519   2.319  0.6376 -0.1546 -1.7225
12837TIP3    H259927   4.691   6.458   2.406 -0.4830 -1.0703 -0.9447
12838TIP3   OH259928   1.997   4.436  16.514  0.3013 -0.1075  0.0095
12838TIP3    H159929   2.066   4.472  16.570  2.9403 -5.4504  0.8073
12838TIP3    H259930   1.945   4.381  16.573 -0.3051 -1.5527 -1.7989
12839TIP3   OH259931   3.769   2.029  12.586 -0.0433 -0.2122 -0.1632
12839TIP3    H159932   3.692   2.085  12.592  1.1335  1.5269 -0.4535
12839TIP3    H259933   3.776   2.006  12.493  0.6923  0.9979 -0.4178
12840TIP3   OH259934   0.875   1.942  10.355  0.4941  0.0005  0.3028
12840TIP3    H159935   0.858   2.036  10.351 -0.0610 -0.0867  0.4617
12840TIP3    H259936   0.796   1.902  10.318  0.7126 -0.4013  0.2677
12841TIP3   OH259937   4.552   0.078   1.290  0.0291 -0.3300  0.1877
12841TIP3    H159938   4.573  -0.009   1.257  1.7873  1.0244 -2.7228
12841TIP3    H259939   4.487   0.112   1.228  0.0341  0.7358  0.7309
12842TIP3   OH259940   0.434   3.053   1.808 -0.3020 -0.2163  0.3375
12842TIP3    H159941   0.448   3.145   1.788 -1.0625 -0.7158 -3.1803
12842TIP3    H259942   0.517   3.011   1.788 -0.3278 -0.4512  0.7193
12843TIP3   OH259943   0.449   4.720   2.759 -0.4689 -0.3157  0.4858
12843TIP3    H159944   0.399   4.793   2.794 -1.2898 -1.1993  1.2267
12843TIP3    H259945   0.434   4.649   2.822 -0.0519 -1.2486 -0.4376
12844TIP3   OH259946   3.343   4.932  16.216  0.0311 -0.2199 -0.7818
12844TIP3    H159947   3.384   4.959  16.134  0.2776  1.8305 -0.0500
12844TIP3    H259948   3.264   4.987  16.222 -0.3471 -0.8311  0.0254
12845TIP3   OH259949   0.048   3.141  12.085 -0.1978  0.3158 -0.2623
12845TIP3    H159950   0.028   3.115  11.995 -0.2136  0.4186 -0.2881
12845TIP3    H259951   0.107   3.073  12.117 -1.5152 -0.6528  0.2136
12846TIP3   OH259952   3.827   1.782  13.278  0.2717 -0.2627  0.2795
12846TIP3    H159953   3.791   1.813  13.194 -0.4428 -1.4872  0.1069
12846TIP3    H259954   3.752   1.743  13.322  0.7236  0.0714  1.3619
12847TIP3   OH259955   4.966   4.896   1.900  0.4227 -0.1485  0.0535
12847TIP3    H159956   4.949   4.935   1.814 -1.4581  1.1320  0.9342
12847TIP3    H259957   5.021   4.960   1.945 -1.7847  1.1088  1.1188
12848TIP3   OH259958   0.957   0.950  16.872 -0.0143  0.3333 -0.1866
12848TIP3    H159959   0.962   0.958  16.967  0.2255  1.4598 -0.2782
12848TIP3    H259960   1.006   1.025  16.839 -1.6910  1.0622 -1.1902
12849TIP3   OH259961   4.087   0.355  14.697 -0.2351  0.3926 -0.0659
12849TIP3    H159962   4.048   0.294  14.634  0.9694 -0.0915 -0.3508
12849TIP3    H259963   4.030   0.350  14.774 -0.0133 -1.2832  0.0099
12850TIP3   OH259964   4.778   5.146   2.452  0.6441 -0.5120 -1.1822
12850TIP3    H159965   4.769   5.060   2.492  0.5586 -0.6227 -1.4335
12850TIP3    H259966   4.766   5.130   2.358  2.7653 -0.5731 -1.4866
12851TIP3   OH259967   4.141   5.355   3.954  0.0272  0.3785  0.3936
12851TIP3    H159968   4.092   5.350   3.871  0.4864  0.4470  0.1167
12851TIP3    H259969   4.115   5.439   3.991  0.0895  0.5085  0.1481
12852TIP3   OH259970   2.914   3.043   3.294 -0.3392 -0.2951  0.7049
12852TIP3    H159971   2.957   3.129   3.291  0.1162 -0.5099  0.9587
12852TIP3    H259972   2.932   3.009   3.382  0.3314 -1.0681  0.2896
12853TIP3   OH259973   4.429   4.890   0.300 -0.3936 -0.1949 -0.5091
12853TIP3    H159974   4.425   4.808   0.251  0.0194  1.0166 -2.7118
12853TIP3    H259975   4.523   4.901   0.319  0.4931  2.1459 -4.8451
12854TIP3   OH259976   3.553   4.561  11.069 -0.0407 -0.1629  0.2797
12854TIP3    H159977   3.625   4.535  11.012 -0.5246 -1.4865  0.2582
12854TIP3    H259978   3.481   4.581  11.009  0.2662  1.1499  0.3019
12855TIP3   OH259979   6.004   5.233   2.649  0.1336  0.3553  0.3590
12855TIP3    H159980   6.024   5.188   2.731  0.3189  0.7097  0.5132
12855TIP3    H259981   6.026   5.171   2.581 -0.0732  0.0351  0.5817
12856TIP3   OH259982   3.719   5.694  14.381  0.2296  0.3368 -0.7038
12856TIP3    H159983   3.657   5.658  14.445  0.5016  0.1875 -0.5196
12856TIP3    H259984   3.749   5.776  14.421 -0.4567  0.8230 -1.1650
12857TIP3   OH259985   3.235   1.520  17.033 -0.0579 -0.2403  0.0633
12857TIP3    H159986   3.287   1.439  17.038 -0.1689 -0.3603 -0.6253
12857TIP3    H259987   3.147   1.490  17.010 -0.3225  0.0045  0.7482
12858TIP3   OH259988   1.668   6.114   0.234  0.1455 -0.3500 -0.1654
12858TIP3    H159989   1.686   6.050   0.165 -1.1222 -1.7066  0.7096
12858TIP3    H259990   1.740   6.104   0.296  0.2205 -0.5767 -0.2897
12859TIP3   OH259991   3.238   4.837   1.125  0.1404  0.2959 -0.3278
12859TIP3    H159992   3.329   4.860   1.106 -0.0394  0.0810 -1.5376
12859TIP3    H259993   3.191   4.854   1.043 -1.0447  1.0465  0.4749
12860TIP3   OH259994   2.988   2.431  14.998 -0.0350 -0.1115 -0.1909
12860TIP3    H159995   2.942   2.364  14.947  0.6499  2.4124 -4.6267
12860TIP3    H259996   3.047   2.382  15.055 -2.4981 -3.2419 -0.0741
12861TIP3   OH259997   4.324   3.225  15.650 -0.5603 -0.2793  0.1393
12861TIP3    H159998   4.288   3.152  15.601 -0.0444  0.6676 -1.7258
12861TIP3    H259999   4.410   3.242  15.611 -0.5422  1.1467  0.6949
12862TIP3   OH260000   0.923   2.722  13.668 -0.3434  0.3933  0.1894
12862TIP3    H160001   0.924   2.781  13.743  0.3999  0.2168  0.3292
12862TIP3    H260002   0.912   2.635  13.705  0.7074  0.2333  0.1637
12863TIP3   OH260003   5.604   1.617   6.523  0.6091 -0.4289  0.2227
12863TIP3    H160004   5.529   1.672   6.499  0.7696 -0.2158  0.2033
12863TIP3    H260005   5.642   1.591   6.439  1.3497  0.5611  0.2249
12864TIP3   OH260006   5.905   1.229  13.692  0.3455 -0.2756  0.1208
12864TIP3    H160007   5.856   1.191  13.619  0.0750 -0.0176  0.1684
12864TIP3    H260008   5.997   1.218  13.667  0.2518  0.2560 -0.4911
12865TIP3   OH260009   5.250   4.167   4.919  0.5355  0.5781 -0.0259
12865TIP3    H160010   5.285   4.255   4.903  1.1796  0.6340  1.5284
12865TIP3    H260011   5.174   4.181   4.976  0.3473  0.1558 -0.1683
12866TIP3   OH260012   4.903   2.657   1.748 -0.0429  0.1702  0.1148
12866TIP3    H160013   4.883   2.566   1.768 -0.9988  0.4660  0.5717
12866TIP3    H260014   4.866   2.707   1.822 -0.7284  1.0246 -0.7720
12867TIP3   OH260015   3.998   3.911   1.147 -0.1064 -0.1338  0.1908
12867TIP3    H160016   3.908   3.944   1.147 -0.6356 -1.4654 -1.3487
12867TIP3    H260017   4.052   3.990   1.142 -1.2472  0.6316 -0.5898
12868TIP3   OH260018   0.098   1.310  13.134  0.1104  0.1114  0.0840
12868TIP3    H160019   0.114   1.264  13.217 -0.3169  0.9643  0.6607
12868TIP3    H260020   0.185   1.329  13.099  0.3179  0.5902  0.8338
12869TIP3   OH260021   2.234   1.943   0.080  0.0140  0.3737 -0.1746
12869TIP3    H160022   2.180   1.865   0.071  1.3184 -0.3250 -3.3397
12869TIP3    H260023   2.172   2.014   0.094 -1.3780 -0.8706  0.2012
12870TIP3   OH260024   1.919   1.324  13.586  0.1540  0.2297  0.4244
12870TIP3    H160025   1.854   1.349  13.652 -0.0455 -1.6844  1.0120
12870TIP3    H260026   1.995   1.297  13.637  0.5998  0.3245 -0.1904
12871TIP3   OH260027   0.601   0.159   5.787 -0.4587 -0.2629 -0.0018
12871TIP3    H160028   0.666   0.136   5.721 -0.1590  0.2828  0.0993
12871TIP3    H260029   0.525   0.104   5.766  0.8288 -2.7153  1.3125
12872TIP3   OH260030   3.857   6.649   2.075  0.4658  0.0444 -0.4598
12872TIP3    H160031   3.821   6.587   2.137 -0.1554  1.0868  0.2561
12872TIP3    H260032   3.780   6.686   2.030  0.5690  2.1293  0.9302
12873TIP3   OH260033   5.447   4.724   4.855  0.0051  0.3695 -0.5875
12873TIP3    H160034   5.478   4.639   4.887 -1.9574 -0.1691  0.0079
12873TIP3    H260035   5.352   4.722   4.868 -0.2334  2.2116 -1.6392
12874TIP3   OH260036   4.576   1.023  14.175 -0.1772  0.0663  0.0764
12874TIP3    H160037   4.496   0.996  14.221 -0.5748  1.8879  0.5007
12874TIP3    H260038   4.545   1.076  14.102  0.5841 -0.6853 -0.8174
12875TIP3   OH260039   2.273   4.934  16.965  0.2487  0.0199  0.7105
12875TIP3    H160040   2.224   4.861  16.925 -0.4668  0.9145 -0.0902
12875TIP3    H260041   2.251   5.010  16.911  0.5213  0.9584  1.8914
12876TIP3   OH260042   5.766   3.120   5.200 -0.2903 -0.4379  0.1207
12876TIP3    H160043   5.698   3.157   5.143 -1.9005 -1.0147  1.5774
12876TIP3    H260044   5.726   3.040   5.235  0.7512 -0.2590  1.8104
12877TIP3   OH260045   6.455   2.941   2.582 -0.4017 -0.3287 -0.4774
12877TIP3    H160046   6.408   3.004   2.637  0.7758 -1.2640  1.7780
12877TIP3    H260047   6.526   2.992   2.542  0.1390 -0.0389  0.7981
12878TIP3   OH260048   5.234   2.197  12.111  0.6601  0.3806  0.2435
12878TIP3    H160049   5.264   2.263  12.048  1.5050 -0.5868 -0.4117
12878TIP3    H260050   5.180   2.138  12.059 -0.8672  1.0302  1.0200
12879TIP3   OH260051   5.360   2.496   3.760  0.2211 -0.7823  0.1328
12879TIP3    H160052   5.453   2.492   3.738  0.6333  0.4879  1.5321
12879TIP3    H260053   5.315   2.467   3.680  1.7902 -1.0677 -0.6736
12880TIP3   OH260054   6.142   5.622   2.627  0.0108 -0.6842  0.4657
12880TIP3    H160055   6.055   5.627   2.586  0.8377  0.2565 -1.2631
12880TIP3    H260056   6.198   5.582   2.561  1.3635  0.7108  0.7178
12881TIP3   OH260057   2.527   5.907   4.753 -0.4986  0.4058 -0.3467
12881TIP3    H160058   2.539   5.928   4.660 -3.2325 -0.8113 -1.0838
12881TIP3    H260059   2.443   5.946   4.776  0.1785  0.7961  1.6987
12882TIP3   OH260060   0.983   2.588  17.013  0.6748 -0.1438  0.7951
12882TIP3    H160061   0.891   2.563  17.027 -0.1065  2.0113 -0.0049
12882TIP3    H260062   1.002   2.561  16.924  1.5596 -2.5002  1.6388
12883TIP3   OH260063   6.777   1.962   1.607 -0.0747 -0.1718 -0.5813
12883TIP3    H160064   6.810   1.892   1.551 -3.1620 -0.2477 -2.5272
12883TIP3    H260065   6.706   2.002   1.556  0.7306  3.6203  0.9446
12884TIP3   OH260066   1.468   6.203   5.402 -0.2433  0.0141 -0.2897
12884TIP3    H160067   1.462   6.159   5.317  2.3787 -2.6016  0.7083
12884TIP3    H260068   1.561   6.222   5.413  0.0494 -2.4484  3.1353
12885TIP3   OH260069   1.348   5.102  12.222 -0.4157 -0.4540 -0.4906
12885TIP3    H160070   1.308   5.083  12.307 -0.4711  1.3834 -0.0798
12885TIP3    H260071   1.421   5.039  12.216 -1.1290 -1.3969  0.3639
12886TIP3   OH260072   3.395   2.706   0.896 -0.3649 -0.1645  0.4709
12886TIP3    H160073   3.379   2.800   0.895 -0.1650 -0.1290 -0.2005
12886TIP3    H260074   3.326   2.669   0.951 -0.7915  0.3165  0.2633
12887TIP3   OH260075   2.783   1.727   4.949 -0.3129 -0.3133  0.3214
12887TIP3    H160076   2.810   1.646   4.906 -0.4375 -1.0170  1.5281
12887TIP3    H260077   2.690   1.715   4.967 -0.4730  0.3569 -0.0284
12888TIP3   OH260078   4.191   4.803  15.688 -0.1744 -0.1049  0.0222
12888TIP3    H160079   4.208   4.830  15.779 -0.9808  0.0119  0.1424
12888TIP3    H260080   4.121   4.739  15.695  0.4192 -0.8140 -0.4422
12889TIP3   OH260081   3.559   5.824   4.713  0.8344  0.1048 -0.4707
12889TIP3    H160082   3.590   5.859   4.629  1.4260  0.2793 -0.1824
12889TIP3    H260083   3.469   5.795   4.695 -0.1462  2.8515 -0.4457
12890TIP3   OH260084   6.499   3.870  13.689 -0.7603  0.1353 -0.3244
12890TIP3    H160085   6.545   3.877  13.773  0.4393  1.8284 -1.0490
12890TIP3    H260086   6.422   3.925  13.699 -1.7798 -1.3495  0.3256
12891TIP3   OH260087   1.761   3.504   0.196 -0.0713 -0.2698 -0.2751
12891TIP3    H160088   1.729   3.592   0.176 -0.2323  0.0987  1.4573
12891TIP3    H260089   1.853   3.517   0.221 -0.6143 -0.2310  1.9761
12892TIP3   OH260090   3.983   5.774  13.780 -0.4039 -0.2617 -0.2990
12892TIP3    H160091   3.967   5.782  13.874  0.8424 -1.5705  0.0545
12892TIP3    H260092   3.915   5.713  13.750 -0.8649  0.2346 -0.2671
12893TIP3   OH260093   6.681   1.390   2.355  0.4343  0.8035 -0.3261
12893TIP3    H160094   6.643   1.430   2.432 -2.4580 -1.5269 -0.3782
12893TIP3    H260095   6.764   1.352   2.386  0.1133  1.2840  1.1982
12894TIP3   OH260096   3.086   0.241  13.022 -0.5955  0.3171 -0.1137
12894TIP3    H160097   3.053   0.160  13.060  1.9340 -0.5937  0.2757
12894TIP3    H260098   3.057   0.309  13.082  1.1400 -0.8256  2.1403
12895TIP3   OH260099   1.616   0.283   1.366 -0.3021 -0.8662  0.0698
12895TIP3    H160100   1.559   0.207   1.376  0.5602 -1.4239  0.9820
12895TIP3    H260101   1.679   0.256   1.298  0.3658 -1.2123  0.8133
12896TIP3   OH260102   5.922   5.998  13.621  0.0369  0.0861  0.0110
12896TIP3    H160103   5.986   6.001  13.691 -1.7790  1.6893  1.7346
12896TIP3    H260104   5.934   6.081  13.574  0.2413 -0.3012 -0.6268
12897TIP3   OH260105   5.390   2.215   5.465  0.4804 -0.2292  0.1848
12897TIP3    H160106   5.316   2.267   5.497  0.1680 -0.4647 -0.1355
12897TIP3    H260107   5.451   2.212   5.539  0.7102  0.9526  0.0591
12898TIP3   OH260108   2.565   3.281  10.920  0.1275  0.4184 -0.1536
12898TIP3    H160109   2.523   3.247  10.841  0.2635  1.9374 -0.9273
12898TIP3    H260110   2.655   3.249  10.916  0.7546  2.1819 -1.7890
12899TIP3   OH260111   2.067   5.455   4.458 -0.2090 -0.0215 -0.4406
12899TIP3    H160112   2.087   5.530   4.402 -0.6070  0.2964 -0.1608
12899TIP3    H260113   2.087   5.378   4.403 -1.9401  0.2595 -1.5447
12900TIP3   OH260114   0.508   6.242   4.640  0.5175 -0.7637 -0.3040
12900TIP3    H160115   0.432   6.279   4.684 -0.7903 -0.8589 -2.3500
12900TIP3    H260116   0.566   6.214   4.711  0.0370  2.0287  1.3217
12901TIP3   OH260117   5.878   3.497   2.714 -0.0908 -0.2634 -0.0561
12901TIP3    H160118   5.938   3.548   2.659 -0.2304  1.0482  0.9638
12901TIP3    H260119   5.792   3.539   2.701 -0.4179 -0.9068 -0.0078
12902TIP3   OH260120   1.502   3.504   4.435 -0.4003  0.2356 -0.0987
12902TIP3    H160121   1.451   3.430   4.470 -1.1219  0.7369 -0.0793
12902TIP3    H260122   1.590   3.492   4.473 -0.9531  0.3234  1.2664
12903TIP3   OH260123   1.262   6.648   3.313 -0.1403 -0.0602 -0.0157
12903TIP3    H160124   1.261   6.640   3.408  2.3537 -2.2078 -0.0669
12903TIP3    H260125   1.334   6.709   3.295 -0.2549 -0.0767 -0.5523
12904TIP3   OH260126   3.668   1.019   5.310 -0.1538 -0.0138 -0.4010
12904TIP3    H160127   3.591   0.963   5.298 -0.2677 -0.2144  0.9954
12904TIP3    H260128   3.742   0.961   5.297 -0.2663 -0.2714  0.0636
12905TIP3   OH260129   1.961   6.090  13.415 -0.4072  0.3596  0.6461
12905TIP3    H160130   2.008   6.025  13.363 -1.2623  0.1400  0.1215
12905TIP3    H260131   2.012   6.098  13.495 -0.1653 -0.8109  0.6360
12906TIP3   OH260132   4.442   4.312   0.002  0.0546 -0.0283  0.5124
12906TIP3    H160133   4.504   4.280  -0.064 -1.2902  0.2765 -0.9801
12906TIP3    H260134   4.434   4.240   0.064  1.2468 -0.4023  0.2544
12907TIP3   OH260135   2.389   0.676  11.096 -0.4471  0.3983  0.3077
12907TIP3    H160136   2.361   0.595  11.054 -0.7741  0.2207  0.8595
12907TIP3    H260137   2.405   0.652  11.187 -3.2135  1.4536  1.1852
12908TIP3   OH260138   6.274   1.448   1.382  0.5548 -0.3482  0.3113
12908TIP3    H160139   6.364   1.473   1.401  1.0196 -2.5927  1.4153
12908TIP3    H260140   6.271   1.437   1.287  1.2287  0.4754  0.1874
12909TIP3   OH260141   0.128   1.800  15.239 -0.3995 -0.4400  0.0333
12909TIP3    H160142   0.054   1.859  15.245 -0.6865 -0.9195  1.7705
12909TIP3    H260143   0.135   1.778  15.146 -0.5247  1.9705 -0.5956
12910TIP3   OH260144   0.135   4.127  12.557 -0.2943  0.2916  0.1850
12910TIP3    H160145   0.204   4.092  12.500  2.3367  1.4538  2.4188
12910TIP3    H260146   0.147   4.081  12.640 -2.1554  0.6822  0.7243
12911TIP3   OH260147   6.741   3.157  16.682 -0.1921  0.3135 -0.1392
12911TIP3    H160148   6.751   3.250  16.703  0.0536  0.2803 -0.1073
12911TIP3    H260149   6.809   3.140  16.617  0.9999 -0.2647  1.1899
12912TIP3   OH260150   4.348   2.050  10.309 -0.5589 -0.1603 -0.0756
12912TIP3    H160151   4.271   2.086  10.265 -2.1233  0.2505  2.7356
12912TIP3    H260152   4.317   1.970  10.351  1.2072 -1.3019 -0.8283
12913TIP3   OH260153   2.597   2.723   2.635  0.1345  0.0570  0.7693
12913TIP3    H160154   2.661   2.776   2.682 -1.1454  2.0100  0.4339
12913TIP3    H260155   2.544   2.684   2.705 -0.9734  1.9487  1.0795
12914TIP3   OH260156   4.541   1.522   2.828 -0.1995 -0.2870  0.0965
12914TIP3    H160157   4.481   1.582   2.872 -0.4162  1.0912 -1.9303
12914TIP3    H260158   4.614   1.512   2.889  0.0086  2.3357  0.3832
12915TIP3   OH260159   3.981   3.323   2.952  0.7600 -0.2862 -0.0836
12915TIP3    H160160   3.988   3.265   3.028 -1.1934  1.9704  2.0010
12915TIP3    H260161   3.891   3.311   2.921  0.7852  0.5726 -0.5148
12916TIP3   OH260162   3.703   0.360  13.982  0.0542  0.8237  0.2265
12916TIP3    H160163   3.679   0.368  13.890  1.4298  0.9214 -0.1403
12916TIP3    H260164   3.622   0.331  14.025 -0.6422  0.9148 -0.9775
12917TIP3   OH260165   3.000   4.297   2.834 -0.1164 -0.8826 -0.3132
12917TIP3    H160166   3.081   4.318   2.881 -0.3226 -2.0878  0.6362
12917TIP3    H260167   3.020   4.216   2.787 -0.1425 -0.0746 -1.7745
12918TIP3   OH260168   3.685   6.194   4.278 -0.2103  0.7011  0.2100
12918TIP3    H160169   3.677   6.154   4.191 -2.0718  1.5678 -0.0700
12918TIP3    H260170   3.634   6.138   4.335 -0.2127  0.9353  0.4416
12919TIP3   OH260171   6.277   1.312  15.322 -0.1898  0.0454 -0.1718
12919TIP3    H160172   6.260   1.256  15.246 -1.0839  0.7212 -0.4871
12919TIP3    H260173   6.304   1.396  15.284  1.2405 -0.1795  0.2963
12920TIP3   OH260174   1.428   0.749  16.467 -0.0405  0.0113  0.5762
12920TIP3    H160175   1.423   0.774  16.559 -0.8212 -2.0295  1.1553
12920TIP3    H260176   1.382   0.665  16.462  0.1826 -0.0597 -1.6389
12921TIP3   OH260177   2.310   3.740   3.726  0.2785 -0.9017  0.2624
12921TIP3    H160178   2.231   3.688   3.709 -1.4918  1.9638 -1.1094
12921TIP3    H260179   2.357   3.738   3.643  0.4701 -0.7391  0.3687
12922TIP3   OH260180   0.236   0.983  15.758 -0.1306 -0.0998 -0.0348
12922TIP3    H160181   0.196   0.977  15.671  2.5143  0.1123 -1.3541
12922TIP3    H260182   0.210   0.901  15.801 -0.4174 -0.8473 -1.5380
12923TIP3   OH260183   5.223   2.795   1.211  0.2345 -0.2693  0.6659
12923TIP3    H160184   5.204   2.736   1.284 -3.1125 -0.2122  0.0010
12923TIP3    H260185   5.185   2.878   1.237 -0.2426 -0.0171 -0.7382
12924TIP3   OH260186   1.034   4.326  14.340 -0.3503 -0.0282  0.1944
12924TIP3    H160187   1.040   4.324  14.436 -1.1984  0.7601  0.2774
12924TIP3    H260188   0.945   4.356  14.322  1.2038  5.0675 -0.7535
12925TIP3   OH260189   1.116   0.683   1.394 -0.1234 -0.1879  0.0076
12925TIP3    H160190   1.064   0.624   1.340 -0.0491 -0.1456 -0.1101
12925TIP3    H260191   1.056   0.754   1.418 -0.0802 -0.0652 -0.2466
12926TIP3   OH260192   2.585   3.560  15.037  0.0695 -0.5757  0.3855
12926TIP3    H160193   2.648   3.553  15.109  1.9749 -0.6061 -1.1971
12926TIP3    H260194   2.636   3.538  14.959 -1.4560  1.2257 -1.2111
12927TIP3   OH260195   4.917   0.526  15.511 -0.2685  0.0981 -0.1046
12927TIP3    H160196   4.955   0.465  15.447  0.9542 -0.0442  0.7243
12927TIP3    H260197   4.945   0.612  15.481  1.3912 -0.0591  0.9128
12928TIP3   OH260198   1.081   2.398   5.244  0.2176  0.1194  0.1563
12928TIP3    H160199   1.164   2.424   5.285  0.3315 -1.0381  0.7162
12928TIP3    H260200   1.031   2.357   5.315 -1.3792  1.8815  0.1314
12929TIP3   OH260201   6.328   5.667  12.910 -0.4073  0.2496 -0.1080
12929TIP3    H160202   6.295   5.577  12.902 -0.6966  0.1329  1.7207
12929TIP3    H260203   6.272   5.719  12.853 -1.4667 -0.4847  0.2352
12930TIP3   OH260204   3.080   6.777  12.796 -0.0657 -0.1431  0.3067
12930TIP3    H160205   3.012   6.760  12.731  0.7247  0.3104 -0.6683
12930TIP3    H260206   3.041   6.841  12.855 -0.1862  0.8452 -0.7981
12931TIP3   OH260207   0.545   3.954   5.385  0.3071 -0.1172 -0.2398
12931TIP3    H160208   0.594   3.964   5.466  2.1635 -0.0401 -1.3170
12931TIP3    H260209   0.541   3.859   5.372  0.5086 -0.1107 -0.3490
12932TIP3   OH260210   1.911   0.408  12.954  0.3411 -0.0132 -0.0244
12932TIP3    H160211   1.859   0.451  12.886  1.3902  2.4996  0.6683
12932TIP3    H260212   1.846   0.369  13.012 -0.5979 -1.3494 -1.8461
12933TIP3   OH260213   5.167   1.629   0.241 -0.4743 -0.1668  0.7690
12933TIP3    H160214   5.257   1.634   0.274 -0.6658  0.7457  1.1959
12933TIP3    H260215   5.171   1.564   0.171 -0.0484 -2.1546  2.5303
12934TIP3   OH260216   4.718   1.165  10.935  0.3086 -0.1310  0.5597
12934TIP3    H160217   4.718   1.094  10.872 -1.0197 -0.8240  1.3088
12934TIP3    H260218   4.657   1.137  11.004  0.0584  1.5421  1.0705
12935TIP3   OH260219   2.348   0.234   0.906 -0.0578  0.0352  0.1616
12935TIP3    H160220   2.307   0.187   0.833  2.0266 -1.5690 -0.0539
12935TIP3    H260221   2.403   0.300   0.864  1.1717 -0.9130  0.2274
12936TIP3   OH260222   6.596   6.287  16.933 -0.0513  0.5006 -0.5141
12936TIP3    H160223   6.647   6.243  17.000 -0.6849 -1.1551 -1.0527
12936TIP3    H260224   6.626   6.249  16.851 -1.8218 -0.2197 -0.8667
12937TIP3   OH260225   3.978   1.582   4.632  0.2477  0.1986  0.4589
12937TIP3    H160226   3.981   1.632   4.713  2.3082  1.4080 -0.2851
12937TIP3    H260227   4.062   1.535   4.630  0.0907 -0.0637 -0.7917
12938TIP3   OH260228   2.071   3.603   3.748 -0.5953 -0.3846 -0.1940
12938TIP3    H160229   2.011   3.534   3.775 -0.9692  0.3601  0.9746
12938TIP3    H260230   2.023   3.684   3.767 -0.0819  0.1943 -1.3284
12939TIP3   OH260231   0.749   0.046   3.726  0.1524 -0.2841 -0.3472
12939TIP3    H160232   0.693   0.028   3.651  1.4365  0.3745 -1.5008
12939TIP3    H260233   0.696   0.020   3.802 -3.3494  3.8673 -1.0059
12940TIP3   OH260234   2.877   3.833   5.113  0.4698 -0.3060  0.4987
12940TIP3    H160235   2.828   3.914   5.124 -1.0710 -0.8667 -1.5846
12940TIP3    H260236   2.862   3.784   5.194 -0.6088  0.4783  0.7968
12941TIP3   OH260237   2.599   3.851  16.513 -0.4251 -0.0896 -0.4127
12941TIP3    H160238   2.587   3.946  16.518  1.2180  0.1714 -0.7061
12941TIP3    H260239   2.667   3.840  16.446  0.9749 -1.3186  1.1447
12942TIP3   OH260240   2.367   5.556  11.385 -0.6448  0.6568  0.2663
12942TIP3    H160241   2.413   5.586  11.308 -2.5640  2.1692 -0.3837
12942TIP3    H260242   2.356   5.461  11.372  0.5398  0.6030 -0.4480
12943TIP3   OH260243   2.408   3.192   2.170  0.0626 -0.0425  0.1288
12943TIP3    H160244   2.403   3.190   2.074  0.2894 -1.3572  0.1184
12943TIP3    H260245   2.499   3.215   2.188  0.2136 -0.5301  0.0089
12944TIP3   OH260246   3.495   0.377   4.057 -0.0655 -0.6885  0.0631
12944TIP3    H160247   3.414   0.397   4.104  0.0499 -0.2506  0.0828
12944TIP3    H260248   3.482   0.413   3.970  1.3842  2.5667  1.0155
12945TIP3   OH260249   5.527   6.439  13.275 -0.2245 -0.1607  0.4071
12945TIP3    H160250   5.462   6.506  13.300  1.1295  2.3667 -2.2350
12945TIP3    H260251   5.530   6.380  13.350 -1.3996  2.8542  3.0743
12946TIP3   OH260252   2.346   3.759   0.432 -0.4596 -0.7050 -0.2628
12946TIP3    H160253   2.423   3.751   0.488 -0.5062  0.1093 -0.0758
12946TIP3    H260254   2.338   3.853   0.415 -1.5856 -0.7425 -0.0376
12947TIP3   OH260255   6.086   0.950   0.071 -0.1420 -0.3633 -0.5187
12947TIP3    H160256   6.015   0.900   0.111  0.3349 -0.8315 -0.2441
12947TIP3    H260257   6.054   1.040   0.070 -0.9010 -0.6326 -0.7681
12948TIP3   OH260258   0.544   5.533  12.844 -0.2344 -0.5311 -0.1839
12948TIP3    H160259   0.578   5.597  12.782 -3.0586 -0.3424 -1.7066
12948TIP3    H260260   0.517   5.586  12.920 -0.8846 -0.1153 -0.6888
12949TIP3   OH260261   2.496   0.182   4.122 -0.0759  0.5614 -0.0296
12949TIP3    H160262   2.586   0.169   4.150 -0.3348  0.5701  0.8477
12949TIP3    H260263   2.457   0.094   4.126  0.2540  0.2900 -1.8129
12950TIP3   OH260264   3.997   6.414  17.025  0.3200  0.7113  0.2183
12950TIP3    H160265   4.000   6.388  16.933  0.0436  1.4992 -0.0190
12950TIP3    H260266   4.023   6.505  17.025  2.3659  0.1744  1.1667
12951TIP3   OH260267   2.041   5.043   3.858  0.2953 -0.0049 -0.2515
12951TIP3    H160268   2.021   5.002   3.943  0.3378 -0.0459 -0.2609
12951TIP3    H260269   2.024   4.974   3.794 -1.3285  0.5104 -0.4243
12952TIP3   OH260270   6.035   4.294   5.773  0.5954  0.1351  0.1687
12952TIP3    H160271   5.939   4.296   5.777  0.6172  1.3917  0.3745
12952TIP3    H260272   6.062   4.256   5.857  0.2993  0.4407  0.4014
12953TIP3   OH260273   2.160   3.002   0.093  0.1950  0.1106  0.8234
12953TIP3    H160274   2.102   2.953   0.151 -0.7564 -0.8634 -0.8884
12953TIP3    H260275   2.212   2.936   0.049 -1.6539  0.4418 -2.1212
12954TIP3   OH260276   5.291   0.653  16.015 -0.0294 -0.2853  0.0091
12954TIP3    H160277   5.374   0.677  15.974  1.7745 -4.2951  0.9245
12954TIP3    H260278   5.295   0.694  16.102  0.9215 -0.2782 -0.0245
12955TIP3   OH260279   3.267   3.765   2.801 -0.2983 -0.3585 -0.3677
12955TIP3    H160280   3.232   3.720   2.878 -1.4190  1.6151  0.3559
12955TIP3    H260281   3.360   3.776   2.819 -0.3245 -0.9793  0.1587
12956TIP3   OH260282   1.813   4.188  11.508  0.2023  0.1374 -0.3576
12956TIP3    H160283   1.895   4.175  11.555 -0.8291  0.7479  1.7470
12956TIP3    H260284   1.791   4.101  11.474  1.0359 -0.3173  0.2227
12957TIP3   OH260285   6.747   4.137   3.942 -0.5395 -0.4369 -0.1565
12957TIP3    H160286   6.741   4.154   4.036 -0.3952 -0.2170 -0.1853
12957TIP3    H260287   6.814   4.069   3.935  0.6293  0.6741 -0.2095
12958TIP3   OH260288   0.353   0.907  16.870  0.0298 -0.1419  0.0061
12958TIP3    H160289   0.370   0.813  16.868  2.3493  0.1983  0.8644
12958TIP3    H260290   0.318   0.927  16.783 -0.9078 -1.8278 -0.0453
12959TIP3   OH260291   1.832   0.978   1.493 -0.2823 -0.3003  0.2087
12959TIP3    H160292   1.814   1.040   1.422 -0.2238  1.2214  1.4553
12959TIP3    H260293   1.777   1.008   1.566 -1.0205 -2.3596  0.5596
12960TIP3   OH260294   4.873   2.357  14.988  0.1776  0.1341 -0.4728
12960TIP3    H160295   4.781   2.377  14.969 -0.4100 -1.7115  0.1661
12960TIP3    H260296   4.872   2.320  15.076  0.9472 -3.1571 -1.6947
12961TIP3   OH260297   6.408   4.183  14.009  0.2400 -0.3801  0.7182
12961TIP3    H160298   6.383   4.214  13.922  1.4816 -0.2269  0.3994
12961TIP3    H260299   6.377   4.252  14.069 -0.5927 -0.4750  0.4195
12962TIP3   OH260300   5.996   2.062  13.195  0.2583 -0.3890 -0.0978
12962TIP3    H160301   5.936   2.005  13.147 -1.2451  1.4388 -0.5251
12962TIP3    H260302   5.950   2.082  13.276  1.0140 -0.2578  0.3060
12963TIP3   OH260303   5.004   6.784  13.941  0.0731  0.5736 -0.8668
12963TIP3    H160304   4.958   6.778  14.024  0.3129 -0.8776 -0.8182
12963TIP3    H260305   5.077   6.722  13.949 -1.6616 -2.0295 -3.2300
12964TIP3   OH260306   2.591   6.419   1.946  0.2115  0.7185 -0.1158
12964TIP3    H160307   2.600   6.330   1.911 -0.9252  0.9172 -0.9803
12964TIP3    H260308   2.659   6.470   1.901  0.9706  0.2805  0.4988
12965TIP3   OH260309   0.248   3.122  10.812 -0.3191 -0.2089  0.2712
12965TIP3    H160310   0.260   3.194  10.749 -0.8092 -0.3540  0.0086
12965TIP3    H260311   0.153   3.112  10.819 -0.4349  1.6411  3.1450
12966TIP3   OH260312   1.331   1.264   6.335  0.1032 -0.0403 -0.5743
12966TIP3    H160313   1.385   1.277   6.412  1.2821 -1.1844 -1.1815
12966TIP3    H260314   1.304   1.353   6.309  1.2810  0.5142  0.0253
12967TIP3   OH260315   6.277   0.145   4.385  0.1089  0.7030 -0.7451
12967TIP3    H160316   6.286   0.165   4.478  0.5714 -0.7068 -0.4625
12967TIP3    H260317   6.288   0.050   4.379 -2.4563  0.3955 -1.9298
12968TIP3   OH260318   5.675   0.731  14.788 -0.0825 -0.1160 -0.0356
12968TIP3    H160319   5.732   0.713  14.714 -1.7536  0.2698 -1.4835
12968TIP3    H260320   5.608   0.663  14.784 -0.3078  0.0233  1.0139
12969TIP3   OH260321   2.289   2.260   2.369  0.2050 -0.5539 -0.3627
12969TIP3    H160322   2.380   2.289   2.382 -0.0121  0.3195 -0.7416
12969TIP3    H260323   2.247   2.332   2.322 -0.8593 -0.6566  0.3889
12970TIP3   OH260324   3.464   4.813   2.858 -0.3319  0.1578  0.0708
12970TIP3    H160325   3.427   4.736   2.900  2.1293 -1.2930 -0.2027
12970TIP3    H260326   3.503   4.780   2.777 -1.7536  2.2366 -1.5783
12971TIP3   OH260327   0.763   1.075   0.414  0.5196  0.5141  0.6513
12971TIP3    H160328   0.815   1.152   0.437  1.4788 -0.1931  0.8920
12971TIP3    H260329   0.795   1.050   0.328  0.7139 -0.0380  0.8819
12972TIP3   OH260330   2.319   1.790   0.316  0.4721 -0.1326  0.3944
12972TIP3    H160331   2.297   1.866   0.262 -0.3226 -0.9312 -0.4606
12972TIP3    H260332   2.296   1.715   0.261 -2.0471 -1.0131  2.4242
12973TIP3   OH260333   5.919   6.654  11.392  0.1040 -0.4651  0.1723
12973TIP3    H160334   5.971   6.574  11.404 -0.9102 -1.5903 -2.1355
12973TIP3    H260335   5.926   6.672  11.298 -0.2935  1.7779  0.5328
12974TIP3   OH260336   1.358   2.435   1.012 -0.1601 -0.0971  0.1027
12974TIP3    H160337   1.344   2.419   1.105  4.2750  0.6085  1.1276
12974TIP3    H260338   1.363   2.530   1.004  1.7334 -0.1868 -0.3305
12975TIP3   OH260339   4.957   5.946  15.109 -0.0960  0.1600 -0.1497
12975TIP3    H160340   4.945   5.853  15.093  1.2354 -0.0858  0.1765
12975TIP3    H260341   4.870   5.984  15.095 -0.8694 -1.2450  0.5933
12976TIP3   OH260342   1.190   4.780   1.551  0.3307 -0.0225  0.2283
12976TIP3    H160343   1.106   4.823   1.567  1.0592  2.0463 -1.0439
12976TIP3    H260344   1.224   4.823   1.472  1.3700 -2.6814 -0.8704
12977TIP3   OH260345   3.144   6.244  10.919  0.5249  0.0623  0.1511
12977TIP3    H160346   3.130   6.326  10.871  1.2818  0.7923  1.1270
12977TIP3    H260347   3.209   6.197  10.867  1.5121  0.9474  0.5374
12978TIP3   OH260348   4.114   3.407  14.233  0.5811  0.2088 -0.1393
12978TIP3    H160349   4.206   3.408  14.258  0.5029 -0.1162  0.1792
12978TIP3    H260350   4.113   3.369  14.145  0.7403  0.0876 -0.0896
12979TIP3   OH260351   5.747   4.179   4.374  0.1659 -0.1732 -0.8570
12979TIP3    H160352   5.661   4.150   4.403 -0.5946 -0.1820 -2.9626
12979TIP3    H260353   5.731   4.261   4.329  1.0296 -0.8291 -2.4484
12980TIP3   OH260354   0.688   1.389  14.538  0.3927  0.4641  0.1711
12980TIP3    H160355   0.712   1.370  14.447 -0.2496 -1.8543  0.4251
12980TIP3    H260356   0.592   1.381  14.540  0.4900 -0.7958  1.2796
12981TIP3   OH260357   4.738   6.378   1.614 -0.0307 -0.1903 -0.1389
12981TIP3    H160358   4.669   6.313   1.628 -0.0171  0.2769  2.6142
12981TIP3    H260359   4.763   6.406   1.702  3.7866 -0.4222 -0.9507
12982TIP3   OH260360   5.927   6.418   4.985 -0.1364 -1.3744  0.3771
12982TIP3    H160361   6.020   6.408   5.007  0.8123 -2.4968 -3.3812
12982TIP3    H260362   5.927   6.484   4.915 -2.3714 -0.4548  1.1709
12983TIP3   OH260363   5.890   1.149   5.020 -0.1405  0.1599 -0.4230
12983TIP3    H160364   5.902   1.101   4.938 -4.1305 -0.0101 -1.0999
12983TIP3    H260365   5.854   1.234   4.994 -0.9239  0.3355  1.1144
12984TIP3   OH260366   3.638   5.724  14.107 -0.2070  0.7888 -0.3217
12984TIP3    H160367   3.636   5.675  14.189  0.3934 -0.4879 -1.0283
12984TIP3    H260368   3.707   5.789  14.118 -0.7392  1.2328  0.4909
12985TIP3   OH260369   2.655   2.609  15.328 -0.1442  0.2942  0.0670
12985TIP3    H160370   2.592   2.672  15.362 -0.9130 -0.5191  0.1743
12985TIP3    H260371   2.737   2.632  15.371  0.0847  2.4502 -1.3274
12986TIP3   OH260372   0.392   6.089  15.036 -0.5841 -0.1743  0.2633
12986TIP3    H160373   0.482   6.085  15.070 -1.1140 -0.4846  1.7077
12986TIP3    H260374   0.402   6.113  14.944  1.0259 -1.0850  0.1696
12987TIP3   OH260375   0.930   4.461  12.287 -0.0775  1.3321 -0.5197
12987TIP3    H160376   0.919   4.517  12.210 -0.6207 -0.0124 -1.4510
12987TIP3    H260377   0.998   4.399  12.262 -0.8837  0.3297 -0.2617
12988TIP3   OH260378   1.674   1.048   0.790  0.3949  0.2119 -0.3944
12988TIP3    H160379   1.713   0.976   0.839  0.8487  0.9042  0.2700
12988TIP3    H260380   1.586   1.057   0.827  0.9181  1.0736  0.6617
12989TIP3   OH260381   0.745   2.192   4.688  0.2844  0.4948 -0.3434
12989TIP3    H160382   0.683   2.154   4.626  0.3305 -0.7245  0.3448
12989TIP3    H260383   0.692   2.247   4.745 -0.4891 -1.7978  1.2785
12990TIP3   OH260384   2.361   4.397  14.089 -0.2296 -0.0970  0.0735
12990TIP3    H160385   2.352   4.450  14.010 -1.1672  1.6215  1.2810
12990TIP3    H260386   2.292   4.427  14.147 -0.1845 -1.9965  1.2114
12991TIP3   OH260387   0.012   2.410   0.112 -0.4514  0.0827  0.4485
12991TIP3    H160388   0.104   2.405   0.087  0.0741  0.3470  2.1878
12991TIP3    H260389  -0.010   2.503   0.103 -0.7495 -0.0619 -0.5165
12992TIP3   OH260390   1.801   6.121  13.913  0.7044 -0.0921  0.3498
12992TIP3    H160391   1.765   6.120  14.002  1.9220 -0.4499  0.8572
12992TIP3    H260392   1.740   6.175  13.863 -0.3951 -0.4934  1.2302
12993TIP3   OH260393   4.694   6.796   5.171 -0.5597  0.3346 -0.7305
12993TIP3    H160394   4.647   6.772   5.250  1.1829  0.3967  0.3912
12993TIP3    H260395   4.730   6.714   5.138  1.3053  0.6496  0.3496
12994TIP3   OH260396   2.917   1.919   5.123  0.1090 -0.4521  0.0101
12994TIP3    H160397   2.930   1.931   5.217 -1.2913  0.8726  0.0728
12994TIP3    H260398   2.875   1.833   5.115 -1.4415  0.1910  0.7953
12995TIP3   OH260399   3.482   0.300  14.162  0.5427 -0.0943  0.4534
12995TIP3    H160400   3.418   0.369  14.175  0.6253 -0.2143  1.5726
12995TIP3    H260401   3.465   0.237  14.232  0.1904 -1.4481 -0.7731
12996TIP3   OH260402   4.546   5.852   0.333 -0.5615  0.1430  0.0584
12996TIP3    H160403   4.607   5.784   0.306  0.1950  1.0208 -0.4748
12996TIP3    H260404   4.474   5.846   0.270 -0.6004 -0.2817  0.1362
12997TIP3   OH260405   0.072   4.711   3.052 -0.3771  0.1581  0.1591
12997TIP3    H160406   0.105   4.733   2.965 -3.9560 -2.7070 -2.1989
12997TIP3    H260407  -0.001   4.771   3.067 -1.2961 -0.8938  0.0294
12998TIP3   OH260408   1.956   6.362   0.028 -0.3422  0.1911 -0.4259
12998TIP3    H160409   2.023   6.421  -0.005 -1.3162  1.0678 -0.9013
12998TIP3    H260410   2.000   6.310   0.096  0.7199  0.9393 -0.5268
12999TIP3   OH260411   3.376   1.935  14.447 -0.0122  0.1549 -0.1206
12999TIP3    H160412   3.281   1.950  14.442 -0.1548 -0.2418  0.9721
12999TIP3    H260413   3.406   2.003  14.508  0.6691  1.2793 -1.6596
13000TIP3   OH260414   1.402   1.059  12.093  0.4714  0.8692  0.1791
13000TIP3    H160415   1.355   1.110  12.028 -2.4890 -1.4572  0.3158
13000TIP3    H260416   1.373   1.094  12.177  0.0214  0.3153  0.2588
13001TIP3   OH260417   5.254   1.874  11.703 -0.7329 -0.5150 -0.1982
13001TIP3    H160418   5.203   1.844  11.628  1.0700 -3.1134 -0.5183
13001TIP3    H260419   5.191   1.875  11.775 -1.9153 -0.5453 -1.1906
13002TIP3   OH260420   5.144   4.987   4.409 -0.1255 -0.0546 -0.2179
13002TIP3    H160421   5.143   5.077   4.442  2.7886 -0.5001  1.4166
13002TIP3    H260422   5.106   4.935   4.480 -1.5593 -0.2010 -1.0533
13003TIP3   OH260423   1.411   2.806   5.912  0.8070 -0.0572 -0.0525
13003TIP3    H160424   1.348   2.878   5.907  0.2891 -0.4262  0.8896
13003TIP3    H260425   1.463   2.813   5.831  0.1015  0.7498 -0.4455
13004TIP3   OH260426   3.745   6.147  13.699  0.5559 -0.7039  0.4713
13004TIP3    H160427   3.831   6.181  13.726  1.1149 -1.3053 -0.4611
13004TIP3    H260428   3.766   6.078  13.636 -0.5186 -2.6436  2.1112
13005TIP3   OH260429   1.376   3.816   2.066 -0.0238  0.2125 -0.1295
13005TIP3    H160430   1.350   3.827   2.157 -0.5674  1.6771 -0.4295
13005TIP3    H260431   1.466   3.848   2.063 -0.0983  0.4216 -0.1541
13006TIP3   OH260432   0.706   0.829  12.341  0.4520 -0.3001 -0.0311
13006TIP3    H160433   0.698   0.741  12.378  2.8952 -0.1240  1.0724
13006TIP3    H260434   0.794   0.832  12.304  0.0788  1.4118 -0.8924
13007TIP3   OH260435   0.639   0.912  14.002  0.0199 -0.4246  0.0012
13007TIP3    H160436   0.701   0.843  14.025  0.0436 -0.1216  0.8573
13007TIP3    H260437   0.590   0.876  13.928  1.5029 -0.4930 -0.9894
13008TIP3   OH260438   1.082   4.867  11.326  0.5487  0.3132  0.6185
13008TIP3    H160439   1.046   4.827  11.406  3.1517  0.0279  1.7682
13008TIP3    H260440   1.063   4.960  11.335  2.6735  0.6353  2.7716
13009TIP3   OH260441   0.990   5.889   5.441 -0.5926 -0.1298 -0.0845
13009TIP3    H160442   1.001   5.889   5.536 -0.8150 -2.3339 -0.0016
13009TIP3    H260443   1.033   5.970   5.411  1.1211 -0.3156  1.6925
13010TIP3   OH260444   4.336   3.974  10.638 -0.1000  0.0547 -0.1408
13010TIP3    H160445   4.414   4.021  10.609  0.4501  0.1537  1.4288
13010TIP3    H260446   4.263   4.031  10.614  0.2282 -0.3076 -2.1650
13011TIP3   OH260447   3.273   1.468  15.406 -0.2171 -0.2449 -0.5295
13011TIP3    H160448   3.335   1.398  15.427  1.0345  1.0789  0.3795
13011TIP3    H260449   3.259   1.515  15.488 -0.8733  0.6961 -1.1424
13012TIP3   OH260450   2.295   2.297  14.294 -0.5970  0.1990  0.5457
13012TIP3    H160451   2.200   2.298  14.310 -0.3655 -0.0043  2.0221
13012TIP3    H260452   2.333   2.269  14.377  0.7949  0.6699  0.0883
13013TIP3   OH260453   2.478   4.271   3.316 -0.0132 -0.1232 -0.0423
13013TIP3    H160454   2.458   4.282   3.409 -0.9688 -0.1106 -0.2411
13013TIP3    H260455   2.494   4.360   3.284  0.9416 -0.1806  0.2293
13014TIP3   OH260456   2.178   0.391   3.508  0.0448 -0.2094  0.4846
13014TIP3    H160457   2.271   0.385   3.489 -0.2044 -0.2522 -0.7568
13014TIP3    H260458   2.175   0.404   3.603  1.4689  2.6965  0.2758
13015TIP3   OH260459   3.886   6.580   5.885  0.2495 -0.4723 -0.1701
13015TIP3    H160460   3.936   6.559   5.807 -1.0925 -0.6901 -0.9928
13015TIP3    H260461   3.907   6.672   5.903 -0.0123 -0.1982 -1.2371
13016TIP3   OH260462   3.215   3.699  13.849  0.0369  0.1482  0.7735
13016TIP3    H160463   3.156   3.772  13.827 -1.8391 -1.5595 -0.1678
13016TIP3    H260464   3.297   3.722  13.805 -0.8406  1.2054 -0.4031
13017TIP3   OH260465   3.951   5.068   5.611 -0.2551 -0.2606  0.2643
13017TIP3    H160466   3.886   5.013   5.653  1.3942 -2.9246 -0.4281
13017TIP3    H260467   3.952   5.040   5.520  1.3710  0.1838  0.1014
13018TIP3   OH260468   0.904   4.739  15.991  0.3288 -0.4744  0.2799
13018TIP3    H160469   0.883   4.647  15.973 -1.2936 -0.0445 -0.2270
13018TIP3    H260470   0.956   4.737  16.071  1.1833 -1.9001 -0.2839
13019TIP3   OH260471   3.075   4.660   4.472 -0.6026  0.0100 -0.1031
13019TIP3    H160472   3.071   4.755   4.482  1.8884  0.5680 -2.9225
13019TIP3    H260473   3.166   4.637   4.489 -0.6101 -1.4669 -1.7188
13020TIP3   OH260474   2.455   6.088   6.004 -0.3843  0.1916  0.1505
13020TIP3    H160475   2.534   6.040   5.980 -0.1543 -0.1796  1.5714
13020TIP3    H260476   2.475   6.127   6.089 -0.1029  3.8982 -1.4397
13021TIP3   OH260477   1.040   4.966   1.168  0.5334 -0.4489  0.8135
13021TIP3    H160478   0.957   4.995   1.206  0.9102  1.9107 -0.0068
13021TIP3    H260479   1.015   4.895   1.108 -0.8675  0.0453  0.7712
13022TIP3   OH260480   5.421   6.807  13.488 -0.0447  0.2265  0.2021
13022TIP3    H160481   5.393   6.886  13.533  1.7019  0.9167  0.1303
13022TIP3    H260482   5.426   6.832  13.395  0.9678  0.1893  0.2363
13023TIP3   OH260483   2.256   1.103   3.241 -0.7319  0.2689  0.0535
13023TIP3    H160484   2.348   1.095   3.267 -1.0646 -0.5924  1.0439
13023TIP3    H260485   2.236   1.019   3.200 -0.9156  0.6792 -0.6967
13024TIP3   OH260486   1.649   3.048   1.876  0.1329  0.2903  0.1410
13024TIP3    H160487   1.678   2.960   1.901 -0.6887 -0.3724 -1.1110
13024TIP3    H260488   1.581   3.069   1.941  0.8518  0.3361  0.8984
13025TIP3   OH260489   1.777   1.240  12.455 -0.3091  0.1365 -0.2879
13025TIP3    H160490   1.757   1.312  12.515  0.5757  1.3981 -1.4431
13025TIP3    H260491   1.871   1.247  12.439 -0.5586 -0.0425 -1.9630
13026TIP3   OH260492   2.553   5.558   4.615 -0.1412  0.4051  0.4718
13026TIP3    H160493   2.489   5.588   4.551 -0.5625  0.6411  0.9940
13026TIP3    H260494   2.506   5.494   4.668 -0.2833  1.3561  1.5362
13027TIP3   OH260495   0.343   2.550   2.467 -0.3817  0.0997 -0.1112
13027TIP3    H160496   0.417   2.606   2.442  0.5912 -0.3337  1.6575
13027TIP3    H260497   0.266   2.607   2.458  0.1397  0.6056 -1.8165
13028TIP3   OH260498   1.093   4.508  11.508  0.2686  0.5390 -0.7890
13028TIP3    H160499   1.075   4.599  11.486 -0.6115  0.1247 -1.8951
13028TIP3    H260500   1.094   4.462  11.423  2.2203 -0.2474 -0.4077
13029TIP3   OH260501   0.635   3.284   0.028 -0.1502  0.2392  0.1869
13029TIP3    H160502   0.576   3.314  -0.041  0.5915 -0.9274 -1.0050
13029TIP3    H260503   0.651   3.192   0.008  2.0646  0.5005  0.4536
13030TIP3   OH260504   2.514   2.269   1.077 -0.5511 -0.8386  0.5998
13030TIP3    H160505   2.455   2.331   1.035  0.6421  1.0843  1.6537
13030TIP3    H260506   2.545   2.313   1.156  1.7883 -1.9928  0.4405
13031TIP3   OH260507   6.347   1.860  10.928  0.0262 -0.0824  0.6482
13031TIP3    H160508   6.291   1.906  10.866  0.1307 -0.1277  0.5189
13031TIP3    H260509   6.419   1.827  10.875  0.0972 -0.1534  0.7881
13032TIP3   OH260510   4.881   5.513   5.221 -0.2098  0.2463 -0.2663
13032TIP3    H160511   4.933   5.568   5.280 -2.1397  1.5926  0.2492
13032TIP3    H260512   4.893   5.552   5.135  0.8553 -0.4098 -0.4390
13033TIP3   OH260513   5.596   3.626  15.294  0.3887 -0.4907  0.2866
13033TIP3    H160514   5.616   3.535  15.274 -0.7500 -0.3573 -1.7363
13033TIP3    H260515   5.650   3.676  15.233  2.1848  0.3107  2.4171
13034TIP3   OH260516   0.793   2.470   2.575  0.1668 -0.6244 -0.3243
13034TIP3    H160517   0.794   2.565   2.563  0.4427 -0.7728 -1.5794
13034TIP3    H260518   0.722   2.439   2.519  1.8052 -1.3909 -2.0940
13035TIP3   OH260519   5.678   2.323   2.087  0.0472  0.2999  0.4997
13035TIP3    H160520   5.624   2.271   2.147 -0.2530  1.1152  0.9433
13035TIP3    H260521   5.622   2.338   2.011  0.7181 -1.4833 -0.4220
13036TIP3   OH260522   1.649   6.567   5.613  0.0455 -0.8480 -0.1502
13036TIP3    H160523   1.562   6.539   5.585 -0.2359 -1.2731  1.0794
13036TIP3    H260524   1.708   6.501   5.576 -0.2826 -1.2345  0.0099
13037TIP3   OH260525   6.006   6.449  13.879 -0.6085  0.0215  0.2943
13037TIP3    H160526   5.995   6.535  13.919 -0.4318 -0.3957  1.2760
13037TIP3    H260527   5.959   6.454  13.796 -1.2904  0.8040  0.7210
13038TIP3   OH260528   1.000   5.404  12.103  0.3727 -0.2499 -0.1651
13038TIP3    H160529   1.090   5.381  12.125  1.4696  3.7173  0.3026
13038TIP3    H260530   0.998   5.403  12.007  1.3321  0.7333 -0.2183
13039TIP3   OH260531   4.381   2.323   5.308 -0.5412 -0.1705 -0.4116
13039TIP3    H160532   4.408   2.305   5.399 -0.7159  0.1605 -0.2909
13039TIP3    H260533   4.287   2.340   5.314 -0.4187  0.6068 -0.5335
13040TIP3   OH260534   0.007   1.169  12.763  0.1326  0.1627 -0.1485
13040TIP3    H160535  -0.088   1.180  12.769  0.0914 -0.7074  1.0447
13040TIP3    H260536   0.041   1.259  12.766 -0.5362  0.3866  2.1239
13041TIP3   OH260537   6.624   3.008   5.879  0.8166 -0.1232  0.0383
13041TIP3    H160538   6.566   2.932   5.880  0.1188  0.3122  2.9556
13041TIP3    H260539   6.599   3.058   5.957  3.9432  0.9976  0.4615
13042TIP3   OH260540   0.980   5.871   0.005 -0.3639  0.2183 -0.3322
13042TIP3    H160541   1.025   5.866  -0.080  0.4273 -0.8002  0.1153
13042TIP3    H260542   0.938   5.785   0.015  0.5431 -0.1214  0.8106
13043TIP3   OH260543   6.043   0.888   1.416 -0.1390  0.6028 -0.3229
13043TIP3    H160544   6.097   0.897   1.338 -3.2571 -0.2327 -2.7999
13043TIP3    H260545   6.072   0.805   1.455  0.9406  0.6128 -1.0566
13044TIP3   OH260546   1.935   0.407  14.744  0.3841  0.1414 -0.4163
13044TIP3    H160547   1.903   0.388  14.655 -3.3216 -0.6534  0.8882
13044TIP3    H260548   1.930   0.502  14.751 -1.6699  0.0827 -0.3962
13045TIP3   OH260549   3.181   6.451  12.610 -0.4998  0.1094  0.2978
13045TIP3    H160550   3.092   6.480  12.628  0.6723  3.9284  0.9372
13045TIP3    H260551   3.198   6.479  12.520  0.3377  0.4488  0.5442
13046TIP3   OH260552   0.512   0.668   0.369  0.3924  0.1167  0.8349
13046TIP3    H160553   0.462   0.619   0.433  1.3529  0.7290  2.0929
13046TIP3    H260554   0.589   0.699   0.416  0.9185  0.9558 -0.4961
13047TIP3   OH260555   3.554   1.100   3.132 -0.1192 -0.1135 -0.4234
13047TIP3    H160556   3.535   1.161   3.202  1.3060 -0.6508  0.4672
13047TIP3    H260557   3.485   1.116   3.067  0.4107  2.6839 -0.4178
13048TIP3   OH260558   4.074   3.915   1.838 -0.2685 -0.9166  0.0355
13048TIP3    H160559   4.059   3.861   1.760 -1.0689 -0.4160 -0.1700
13048TIP3    H260560   3.986   3.932   1.871 -0.0279  0.2942  0.0758
13049TIP3   OH260561   0.170   3.681   5.334 -0.0485 -0.6978 -0.1550
13049TIP3    H160562   0.178   3.587   5.348  1.6364 -0.5361  0.1870
13049TIP3    H260563   0.095   3.691   5.275 -0.7860 -2.1729  0.4816
13050TIP3   OH260564   5.602   0.476  16.211  0.3646  0.5109 -0.5909
13050TIP3    H160565   5.557   0.557  16.188 -3.4653 -0.9931  0.7330
13050TIP3    H260566   5.612   0.481  16.307  0.1406 -0.5301 -0.5006
13051TIP3   OH260567   1.483   0.798  10.435  0.2101 -0.7628  0.0347
13051TIP3    H160568   1.391   0.771  10.439  0.4265 -1.4398  0.8005
13051TIP3    H260569   1.530   0.716  10.417  0.7779 -0.6985  1.1293
13052TIP3   OH260570   0.596   1.413  15.240  0.0864  0.6070  0.3446
13052TIP3    H160571   0.690   1.398  15.225 -0.0312  0.0613  0.1518
13052TIP3    H260572   0.563   1.331  15.275 -0.9788 -0.4159 -2.7129
13053TIP3   OH260573   1.952   0.718   0.979  0.2560  0.1495 -0.0764
13053TIP3    H160574   1.873   0.699   1.030  0.3421  2.1080  0.8738
13053TIP3    H260575   1.952   0.652   0.910 -2.6039  0.5253 -0.5615
13054TIP3   OH260576   2.433   0.631   1.893  0.1151 -0.8658 -0.3539
13054TIP3    H160577   2.345   0.648   1.859  0.0747 -0.8736 -0.2556
13054TIP3    H260578   2.461   0.551   1.850  0.5766 -0.1972 -1.3319
13055TIP3   OH260579   2.000   3.072  11.515  0.0128  0.0343 -0.7645
13055TIP3    H160580   1.956   2.988  11.528 -0.2851  0.2073 -0.6621
13055TIP3    H260581   1.934   3.138  11.534 -0.5024  0.3252 -3.1583
13056TIP3   OH260582   6.337   4.055  10.950  0.0377  0.4097  0.2588
13056TIP3    H160583   6.242   4.057  10.947  0.0040 -0.7987 -2.5893
13056TIP3    H260584   6.363   4.015  10.867  3.0522  1.1672  0.7064
13057TIP3   OH260585   3.026   0.457   4.401 -0.2821  0.1345 -0.1580
13057TIP3    H160586   2.932   0.465   4.410 -0.2632 -0.3792  0.5335
13057TIP3    H260587   3.045   0.364   4.419  0.4601  0.4447  0.7741
13058TIP3   OH260588   2.698   5.607  12.724 -0.4893  0.2366  0.2557
13058TIP3    H160589   2.726   5.697  12.740  0.2601  0.2516 -1.0108
13058TIP3    H260590   2.698   5.566  12.811 -0.4229  1.3347  0.7866
13059TIP3   OH260591   6.271   5.732   5.872  0.1775 -0.1828  0.0322
13059TIP3    H160592   6.272   5.795   5.800 -1.6727  0.9887  0.9600
13059TIP3    H260593   6.351   5.749   5.921  0.7270 -0.0016 -0.9090
13060TIP3   OH260594   4.522   2.165   2.922 -0.2296  0.0777 -0.2716
13060TIP3    H160595   4.512   2.231   2.991  0.8278 -0.1514  0.1158
13060TIP3    H260596   4.607   2.185   2.883  0.3180 -1.3246  0.1512
13061TIP3   OH260597   2.320   6.333  12.464 -0.1593  0.2898  0.0967
13061TIP3    H160598   2.265   6.296  12.532 -1.2757  1.3902 -0.1722
13061TIP3    H260599   2.363   6.408  12.505 -1.2079  1.2563 -0.4870
13062TIP3   OH260600   5.572   3.894  14.047 -0.0337 -0.0494 -0.4398
13062TIP3    H160601   5.603   3.921  14.134 -2.2533 -1.2517  0.8211
13062TIP3    H260602   5.482   3.925  14.043 -0.6751 -1.8770 -1.4004
13063TIP3   OH260603   0.973   5.932   1.587  0.6207  1.1382 -0.0511
13063TIP3    H160604   1.034   6.001   1.558  1.9719  0.3416  0.7906
13063TIP3    H260605   1.027   5.853   1.591 -0.7704  0.1385 -0.4108
13064TIP3   OH260606   3.024   5.293   1.203 -0.0608 -0.2505  0.4790
13064TIP3    H160607   3.108   5.309   1.159 -0.2287  2.9212  1.1126
13064TIP3    H260608   2.960   5.289   1.131  0.3897 -1.1961  0.1038
13065TIP3   OH260609   0.320   3.260  11.061  0.1058 -0.3727 -0.1142
13065TIP3    H160610   0.311   3.189  11.124  1.3469 -0.3505  0.1119
13065TIP3    H260611   0.279   3.227  10.982 -1.6327 -0.3430  0.7257
13066TIP3   OH260612   3.571   0.869   3.700  0.3021  0.7648 -0.2559
13066TIP3    H160613   3.659   0.897   3.726  0.1072 -0.5579  2.1352
13066TIP3    H260614   3.522   0.951   3.689  1.4834  1.4913 -0.3102
13067TIP3   OH260615   0.553   5.045  10.559  0.1048 -0.4241  0.2370
13067TIP3    H160616   0.500   5.115  10.597 -1.0488 -0.9857 -0.2952
13067TIP3    H260617   0.489   4.985  10.520  1.1506 -1.0277 -0.5794
13068TIP3   OH260618   5.776   4.259   2.018 -0.5393  0.0041  0.3579
13068TIP3    H160619   5.787   4.170   2.050 -0.0820 -0.8018 -1.8157
13068TIP3    H260620   5.832   4.312   2.075 -1.7442 -0.8464  2.4469
13069TIP3   OH260621   5.203   4.238   5.393  0.6528  0.4822  0.0570
13069TIP3    H160622   5.186   4.280   5.309  1.2372  0.7420  0.0635
13069TIP3    H260623   5.125   4.256   5.446  0.8835  1.5427  0.0529
13070TIP3   OH260624   3.122   0.826   1.759  0.0268 -0.7193  0.1514
13070TIP3    H160625   3.109   0.795   1.849 -0.8710  1.4115  0.8150
13070TIP3    H260626   3.047   0.791   1.711 -0.1454 -0.8487  0.5092
13071TIP3   OH260627   2.443   0.124   1.153 -0.0505 -0.1543  0.0423
13071TIP3    H160628   2.420   0.145   1.063  0.8486  1.9794  0.2571
13071TIP3    H260629   2.412   0.198   1.204  1.2218 -0.3834  1.2096
13072TIP3   OH260630   2.434   0.123  12.629 -0.0592 -0.0183  0.4346
13072TIP3    H160631   2.351   0.111  12.583  0.0485 -0.9380  0.4464
13072TIP3    H260632   2.488   0.050  12.599 -0.1439 -0.9227  2.3331
13073TIP3   OH260633   4.999   0.182   5.626  0.6049  0.3142  0.1811
13073TIP3    H160634   5.029   0.094   5.647  1.0470  0.2543 -0.6600
13073TIP3    H260635   5.054   0.239   5.679  0.1613  0.0771  0.9009
13074TIP3   OH260636   3.316   6.784   3.800 -0.1565  0.4929  0.4201
13074TIP3    H160637   3.337   6.813   3.888  0.6876 -0.4246  0.5340
13074TIP3    H260638   3.263   6.705   3.812  1.5789 -0.7533  0.1328
13075TIP3   OH260639   4.787   5.816  14.817  0.5014  0.2190  0.3439
13075TIP3    H160640   4.853   5.798  14.750  0.7504 -0.1541  0.6886
13075TIP3    H260641   4.758   5.730  14.847 -0.9511  0.3445 -0.5754
13076TIP3   OH260642   6.714   0.411   3.021  0.2253 -0.5514 -0.2825
13076TIP3    H160643   6.633   0.432   3.067  0.2400  0.4620 -0.6786
13076TIP3    H260644   6.721   0.316   3.026 -1.4216 -0.7374 -0.9713
13077TIP3   OH260645   1.947   1.698   4.422  0.2779  0.0364  0.3734
13077TIP3    H160646   1.928   1.703   4.516 -0.4124 -3.0478  0.5025
13077TIP3    H260647   1.914   1.781   4.387 -0.6199  0.7321  2.6407
13078TIP3   OH260648   6.363   5.722  14.245 -0.1478 -0.1568 -0.0601
13078TIP3    H160649   6.458   5.724  14.230 -0.0467 -2.5621 -0.1509
13078TIP3    H260650   6.333   5.647  14.194 -1.9251 -0.1600  0.9287
13079TIP3   OH260651   2.016   0.487  15.556  0.1487  0.0219  0.3653
13079TIP3    H160652   2.040   0.579  15.570 -1.2525  0.4423  0.2546
13079TIP3    H260653   1.920   0.487  15.563  0.0294 -1.2072 -0.8616
13080TIP3   OH260654   6.556   2.512   0.293 -0.5070  0.0369 -0.1244
13080TIP3    H160655   6.526   2.479   0.208  1.4341  0.5368 -1.0759
13080TIP3    H260656   6.637   2.560   0.272 -1.5853  2.8146  1.5831
13081TIP3   OH260657   2.924   2.205  14.006  0.3863  1.0250 -0.1532
13081TIP3    H160658   2.996   2.268  14.002 -0.1530  1.6354 -0.3553
13081TIP3    H260659   2.846   2.255  13.980 -0.0326  0.2520 -0.4309
13082TIP3   OH260660   0.633   6.172  13.446  0.0506  0.0931  0.7082
13082TIP3    H160661   0.682   6.236  13.395  1.5873 -1.7978 -0.3133
13082TIP3    H260662   0.690   6.152  13.521 -0.8652  0.6123  1.5824
13083TIP3   OH260663   2.000   5.070   0.271  0.0489  0.2515  0.2824
13083TIP3    H160664   2.010   5.030   0.358 -0.0753  0.5051  0.4157
13083TIP3    H260665   2.057   5.018   0.214 -1.5355 -1.3045  0.0458
13084TIP3   OH260666   4.168   1.443  13.168  0.1653 -0.0472  0.0845
13084TIP3    H160667   4.146   1.357  13.205 -0.9257  0.7410  1.3683
13084TIP3    H260668   4.232   1.479  13.228  1.7165 -0.5052 -1.2341
13085TIP3   OH260669   6.656   5.130   2.851  0.3435  0.3963  0.6247
13085TIP3    H160670   6.716   5.153   2.779 -2.0387 -1.7779 -2.3075
13085TIP3    H260671   6.668   5.036   2.862 -0.2128  0.5037  2.3028
13086TIP3   OH260672   6.764   4.470  12.256  0.0584 -0.0432 -0.6131
13086TIP3    H160673   6.724   4.476  12.170  0.3261 -1.2058 -0.8426
13086TIP3    H260674   6.694   4.436  12.313 -0.1243  0.7394 -0.3656
13087TIP3   OH260675   3.787   6.047   4.649 -0.8760 -0.2211  0.1469
13087TIP3    H160676   3.816   6.137   4.629 -1.6900 -0.0981 -0.5404
13087TIP3    H260677   3.863   6.007   4.691  0.1381  0.2454 -1.1529
13088TIP3   OH260678   4.295   3.584   3.522 -0.2956  0.1955  0.4865
13088TIP3    H160679   4.240   3.605   3.447  0.6829  0.2511 -0.2438
13088TIP3    H260680   4.266   3.497   3.550  0.7477 -0.8129 -1.3430
13089TIP3   OH260681   2.373   4.479   1.270 -0.1848  0.0748 -0.4188
13089TIP3    H160682   2.414   4.393   1.257  0.7033  0.2713  0.9090
13089TIP3    H260683   2.280   4.460   1.281  0.3837 -1.2741  3.9041
13090TIP3   OH260684   3.943   1.678   3.932 -0.0891 -0.0177 -0.5687
13090TIP3    H160685   3.884   1.659   3.859  0.8126 -3.3479 -0.5893
13090TIP3    H260686   3.885   1.700   4.004 -1.1381  0.3147 -1.4780
13091TIP3   OH260687   4.033   5.688  12.482 -0.5623  0.4201  0.9444
13091TIP3    H160688   4.128   5.694  12.473 -0.7748  2.1643 -0.9513
13091TIP3    H260689   4.013   5.732  12.565  0.1167  2.6525 -0.0179
13092TIP3   OH260690   3.014   4.776  15.867  0.2959 -0.0827 -0.5248
13092TIP3    H160691   2.965   4.793  15.947  2.6465 -1.5686  1.3396
13092TIP3    H260692   2.967   4.703  15.826 -0.4931  0.1974 -0.1489
13093TIP3   OH260693   4.318   6.533  11.150 -0.3030 -0.7811 -0.0780
13093TIP3    H160694   4.294   6.553  11.060 -1.5202 -0.8118  0.2215
13093TIP3    H260695   4.357   6.614  11.183 -2.9295  0.3953  0.3663
13094TIP3   OH260696   1.293   6.654  12.649 -0.3884 -0.5799  0.1162
13094TIP3    H160697   1.226   6.586  12.660 -0.7716 -0.2237  0.0342
13094TIP3    H260698   1.302   6.693  12.736 -0.8101 -0.1530 -0.0275
13095TIP3   OH260699   4.739   4.048  10.489  0.0315 -0.3642  0.3274
13095TIP3    H160700   4.731   4.143  10.500  0.2987 -0.0495 -1.7911
13095TIP3    H260701   4.741   4.035  10.394  2.0195 -2.3179  0.5582
13096TIP3   OH260702   5.395   0.980   3.279 -0.0100  0.2147  0.4318
13096TIP3    H160703   5.303   1.005   3.271  0.2081  0.6528 -0.9355
13096TIP3    H260704   5.404   0.902   3.225  0.1530 -0.6335  1.6444
13097TIP3   OH260705   0.515   1.947   6.249  0.0304  0.0730 -0.8414
13097TIP3    H160706   0.542   1.857   6.268 -0.6925  0.0037 -0.0881
13097TIP3    H260707   0.422   1.949   6.271  0.4812  1.5475  1.2086
13098TIP3   OH260708   3.266   4.394  12.931 -0.9467 -0.2451 -0.3535
13098TIP3    H160709   3.328   4.464  12.911 -0.6776 -0.4861 -0.3555
13098TIP3    H260710   3.230   4.418  13.016 -0.4147 -0.4121 -0.0766
13099TIP3   OH260711   6.704   0.777   0.969 -0.9861  0.2839  0.4199
13099TIP3    H160712   6.654   0.702   0.937 -0.0137 -0.1487 -0.1362
13099TIP3    H260713   6.642   0.851   0.966 -0.9331  0.3460 -2.7305
13100TIP3   OH260714   4.344   4.771   3.229 -0.5836 -0.2093  0.1362
13100TIP3    H160715   4.337   4.731   3.142 -2.5508  2.7943 -1.2207
13100TIP3    H260716   4.257   4.763   3.266 -0.6530  1.4922  0.3998
13101TIP3   OH260717   6.381   5.932   6.214 -0.4127 -0.1366  0.0081
13101TIP3    H160718   6.357   6.016   6.252 -0.7143  1.2668 -3.0622
13101TIP3    H260719   6.445   5.896   6.276 -2.0398  1.1476  2.6399
13102TIP3   OH260720   2.875   5.477   6.104  0.3060  0.2963  0.4280
13102TIP3    H160721   2.965   5.496   6.078  0.4019 -0.8322 -0.1154
13102TIP3    H260722   2.864   5.384   6.085 -0.5975  0.1470  1.6214
13103TIP3   OH260723   6.712   1.920  10.806 -0.5798  0.2566 -0.5039
13103TIP3    H160724   6.785   1.895  10.863 -1.4014  0.9164  0.8799
13103TIP3    H260725   6.711   2.016  10.809 -0.8399  0.2909 -1.3853
13104TIP3   OH260726   6.755   2.523   5.049  0.7040 -0.1803  0.3242
13104TIP3    H160727   6.685   2.517   5.113  2.0648 -2.8880  1.7290
13104TIP3    H260728   6.833   2.545   5.100  1.2294  1.0815 -0.9538
13105TIP3   OH260729   4.281   3.849   2.049  0.2961  0.1957  0.1263
13105TIP3    H160730   4.320   3.843   1.962  1.4979 -1.2455  0.7075
13105TIP3    H260731   4.191   3.878   2.034  0.4428 -0.1468 -1.5925
13106TIP3   OH260732   6.071   2.587  10.863 -0.5360 -0.2227  0.6127
13106TIP3    H160733   6.029   2.645  10.799  0.6071 -0.4543 -0.3893
13106TIP3    H260734   6.092   2.508  10.814  2.7356  0.5723  0.4821
13107TIP3   OH260735   1.438   6.293   0.725  0.2156 -0.0046 -0.4344
13107TIP3    H160736   1.390   6.211   0.742  1.8820 -1.1336 -0.9388
13107TIP3    H260737   1.444   6.297   0.630 -0.6973  1.2462 -0.4570
13108TIP3   OH260738   6.518   6.551  16.773 -0.3180  0.4645 -0.8937
13108TIP3    H160739   6.607   6.517  16.773 -0.2999  0.4690 -2.1682
13108TIP3    H260740   6.472   6.500  16.840  0.8124  0.9588  0.2883
13109TIP3   OH260741   5.973   5.974   5.452  0.1570 -0.2704 -0.4963
13109TIP3    H160742   5.961   6.067   5.469 -0.8084 -0.2388 -1.2814
13109TIP3    H260743   6.033   5.972   5.377 -2.4377 -0.1371 -2.7060
13110TIP3   OH260744   2.907   0.518  14.035  0.1002 -0.0089  0.1368
13110TIP3    H160745   2.996   0.513  14.000 -0.0633 -0.1779 -0.2631
13110TIP3    H260746   2.888   0.428  14.064 -0.4565 -0.3085 -1.0881
13111TIP3   OH260747   4.658   3.035  13.343 -0.5548  0.4889  0.9468
13111TIP3    H160748   4.708   3.043  13.424  0.2759 -2.2908  0.8283
13111TIP3    H260749   4.723   3.011  13.277 -1.7777 -2.3133  0.5976
13112TIP3   OH260750   3.228   2.611  16.305  0.0823  0.2735 -0.4454
13112TIP3    H160751   3.150   2.662  16.283  1.1115  2.4909  0.7060
13112TIP3    H260752   3.220   2.593  16.399  0.1016 -1.1070 -0.6843
13113TIP3   OH260753   6.485   6.301  13.028  0.3101 -0.5277  0.8451
13113TIP3    H160754   6.452   6.355  12.956 -0.4616  0.9443  2.2466
13113TIP3    H260755   6.474   6.211  12.997 -0.2745  0.0479 -0.7428
13114TIP3   OH260756   2.516   5.634   1.558  0.1054  0.4712 -0.6984
13114TIP3    H160757   2.430   5.596   1.572  0.0784  0.9059  0.3904
13114TIP3    H260758   2.575   5.578   1.609  0.6297 -0.3999 -2.1893
13115TIP3   OH260759   4.533   4.406  14.971  0.0206  0.5540  0.0452
13115TIP3    H160760   4.529   4.426  15.064  1.3384  1.4530 -0.0619
13115TIP3    H260761   4.493   4.319  14.963  1.9857 -0.6288  1.8080
13116TIP3   OH260762   4.436   3.680  12.470  0.6754  0.2769  0.1909
13116TIP3    H160763   4.454   3.631  12.550  0.3925 -1.1262 -0.5620
13116TIP3    H260764   4.519   3.725  12.451  1.8732 -2.0315 -0.4814
13117TIP3   OH260765   0.761   1.222  12.292  0.3551 -0.3013 -0.0227
13117TIP3    H160766   0.848   1.235  12.252  0.9194  0.6562  1.4428
13117TIP3    H260767   0.731   1.311  12.313 -1.8621 -0.4412 -2.2102
13118TIP3   OH260768   3.702   3.939  10.676  0.0294 -0.2932 -0.6836
13118TIP3    H160769   3.742   3.966  10.594 -0.5841 -0.3501 -1.0009
13118TIP3    H260770   3.768   3.960  10.742  0.5858 -0.3945 -1.2028
13119TIP3   OH260771   3.711   1.004   2.801 -0.6572  0.0852 -0.0887
13119TIP3    H160772   3.784   0.971   2.749 -1.1468  0.7935 -1.2437
13119TIP3    H260773   3.734   0.981   2.891  0.6978 -0.2244 -0.4963
13120TIP3   OH260774   1.005   4.734  15.616 -0.3036 -0.3504 -0.1390
13120TIP3    H160775   0.950   4.676  15.669 -0.0042  0.7123  1.3897
13120TIP3    H260776   1.080   4.680  15.591  0.6399 -0.3301  2.3750
13121TIP3   OH260777   0.084   2.393  11.143  0.0477  0.1639  0.4591
13121TIP3    H160778   0.130   2.310  11.131 -0.2036  0.4216 -3.3399
13121TIP3    H260779   0.154   2.458  11.150  0.2228 -0.1475  2.0519
13122TIP3   OH260780   6.275   0.224  13.906  0.2208  0.6031  0.0680
13122TIP3    H160781   6.254   0.176  13.986 -1.1399 -0.6704 -1.0194
13122TIP3    H260782   6.223   0.304  13.912  0.9261  1.0187  0.9190
13123TIP3   OH260783   1.467   1.919  12.181 -0.4366 -0.0249  0.0215
13123TIP3    H160784   1.384   1.878  12.155 -0.0632 -1.2217  0.6323
13123TIP3    H260785   1.465   2.005  12.140 -2.4367  0.3877  0.8771
13124TIP3   OH260786   5.420   0.695   4.259 -0.1000 -0.0272 -0.5916
13124TIP3    H160787   5.402   0.752   4.334  1.8824  1.9101 -1.4609
13124TIP3    H260788   5.374   0.613   4.279 -0.6623  0.8454  2.1197
13125TIP3   OH260789   2.048   3.315   6.257 -0.2800 -0.2866  0.0991
13125TIP3    H160790   2.011   3.353   6.336 -2.1461  1.6820 -1.6047
13125TIP3    H260791   1.996   3.236   6.242  0.9050 -1.3703  1.4386
13126TIP3   OH260792   0.880   5.829  13.430 -0.4024 -0.0873 -0.0353
13126TIP3    H160793   0.959   5.800  13.476  0.3219 -0.7175 -1.5920
13126TIP3    H260794   0.905   5.830  13.338 -1.9787  0.5282 -0.4911
13127TIP3   OH260795   0.883   2.180  13.415 -0.2586  0.1958 -0.2455
13127TIP3    H160796   0.874   2.104  13.357  1.4460  1.2537 -2.0151
13127TIP3    H260797   0.891   2.255  13.356 -2.1570  1.8655  1.4304
13128TIP3   OH260798   0.017   5.145  15.211  0.4483 -0.1242 -0.1594
13128TIP3    H160799  -0.077   5.162  15.220  0.6738  0.6216  0.9387
13128TIP3    H260800   0.038   5.087  15.285  0.5757 -1.6119 -1.3019
13129TIP3   OH260801   1.034   6.723  12.133 -0.0292  0.2558  0.3547
13129TIP3    H160802   1.048   6.817  12.119  1.2785  0.0231 -0.1122
13129TIP3    H260803   1.105   6.697  12.192 -2.5337  0.2416  3.6202
13130TIP3   OH260804   4.337   3.659   1.038  0.1010 -0.6201 -0.1238
13130TIP3    H160805   4.429   3.651   1.016  0.7887  1.9520  1.4458
13130TIP3    H260806   4.336   3.688   1.129 -2.1294  1.6839 -0.7670
13131TIP3   OH260807   1.494   2.252   6.566 -0.1186  0.7285 -0.4010
13131TIP3    H160808   1.434   2.314   6.605  0.3530  0.4843  0.7585
13131TIP3    H260809   1.571   2.304   6.541 -0.5166  0.9240 -1.2444
13132TIP3   OH260810   4.605   3.660   2.519  0.0863 -0.4237  0.0157
13132TIP3    H160811   4.514   3.665   2.490 -0.6318 -0.7117  2.0739
13132TIP3    H260812   4.643   3.588   2.467 -0.8379 -0.3074 -0.8537
13133TIP3   OH260813   6.101   5.795   3.824  0.4056 -0.3765  0.3547
13133TIP3    H160814   6.012   5.788   3.787  0.7818  0.1880 -0.7120
13133TIP3    H260815   6.155   5.743   3.764  1.1922  1.3436 -0.4765
13134TIP3   OH260816   0.906   6.331  15.581  0.0143 -0.2214  0.1805
13134TIP3    H160817   0.996   6.349  15.610  0.2741 -0.1566 -0.6506
13134TIP3    H260818   0.857   6.321  15.663  0.2839  2.1631  0.7129
13135TIP3   OH260819   0.176   4.193   0.381 -0.5904  0.4405  0.2957
13135TIP3    H160820   0.267   4.212   0.403  0.1997 -1.4753 -0.9938
13135TIP3    H260821   0.156   4.251   0.307 -0.2232  0.4867  0.2309
13136TIP3   OH260822   2.688   0.817  10.590 -0.4347  0.3025  0.0812
13136TIP3    H160823   2.762   0.831  10.650  0.3466  0.4759 -0.8962
13136TIP3    H260824   2.672   0.723  10.595  0.5503  0.0878 -0.4710
13137TIP3   OH260825   0.179   3.952  12.751 -0.2267  0.2430  0.3049
13137TIP3    H160826   0.266   3.914  12.767 -0.8529 -2.1689 -1.4034
13137TIP3    H260827   0.127   3.926  12.827  0.2119  0.6762  0.7637
13138TIP3   OH260828   3.692   1.931  13.982  0.2838 -0.1388  0.1552
13138TIP3    H160829   3.606   1.918  14.022 -0.5037  0.3459 -1.3120
13138TIP3    H260830   3.751   1.877  14.035 -1.2100 -1.8721  0.1627
13139TIP3   OH260831   6.614   6.123   0.800 -0.0785  0.4295  0.0200
13139TIP3    H160832   6.556   6.178   0.852  0.8705  1.1485  0.3647
13139TIP3    H260833   6.580   6.034   0.811 -1.1375  0.8348  0.1461
13140TIP3   OH260834   5.893   4.082   1.498  0.4237 -0.7093  0.3551
13140TIP3    H160835   5.835   4.158   1.490 -1.3583 -2.0334 -0.0590
13140TIP3    H260836   5.835   4.007   1.488  2.2244 -2.1361  0.0634
13141TIP3   OH260837   0.748   0.628  16.454  0.3285  0.1852 -0.3411
13141TIP3    H160838   0.690   0.700  16.478 -0.7848 -0.0879 -2.0236
13141TIP3    H260839   0.693   0.550  16.457  1.6210 -0.7395  1.8840
13142TIP3   OH260840   6.244   4.744  14.512 -0.4139 -0.3006 -0.1743
13142TIP3    H160841   6.230   4.652  14.493  0.4965 -0.1781 -1.6051
13142TIP3    H260842   6.188   4.762  14.587 -0.1873 -2.1470  0.4931
13143TIP3   OH260843   0.570   0.153   0.336  0.2946 -0.1698  0.2844
13143TIP3    H160844   0.636   0.219   0.355 -0.7346  0.6596  1.1168
13143TIP3    H260845   0.493   0.202   0.307  0.1076 -1.1257 -0.9369
13144TIP3   OH260846   5.206   0.317   3.303 -0.0255  0.5794  0.1381
13144TIP3    H160847   5.163   0.236   3.276 -0.5540  1.2894 -1.2620
13144TIP3    H260848   5.141   0.362   3.357 -0.0137  0.4169  0.2885
13145TIP3   OH260849   4.263   0.381   4.672  0.2261 -0.1537 -0.0970
13145TIP3    H160850   4.272   0.287   4.683  0.0821  0.0318  2.0347
13145TIP3    H260851   4.274   0.417   4.760 -0.6576  1.7533 -0.7040
13146TIP3   OH260852   0.734   4.974  12.833 -0.0310  0.4201 -0.2198
13146TIP3    H160853   0.819   4.981  12.877  0.2378 -0.1099 -0.6524
13146TIP3    H260854   0.741   5.034  12.759 -0.2428  0.7973  0.0560
13147TIP3   OH260855   4.591   1.585  12.118  0.1546 -0.7144 -0.7344
13147TIP3    H160856   4.557   1.523  12.053  0.3478 -1.3973 -0.1935
13147TIP3    H260857   4.513   1.627  12.154  0.0500 -0.2114 -1.5035
13148TIP3   OH260858   2.875   4.227  12.582  0.8500 -0.2622  0.0775
13148TIP3    H160859   2.957   4.247  12.627  1.5316 -3.8386  0.6791
13148TIP3    H260860   2.901   4.176  12.505 -0.7702 -0.9266 -0.0709
13149TIP3   OH260861   3.447   3.061   6.189  0.3651 -0.1419  0.0758
13149TIP3    H160862   3.509   3.091   6.122 -0.7459  0.0097 -0.9014
13149TIP3    H260863   3.496   2.995   6.239  1.1805 -0.3192 -0.9294
13150TIP3   OH260864   1.791   0.687  15.781 -0.8530  0.5019  0.2666
13150TIP3    H160865   1.771   0.626  15.852 -1.1015  2.0665  1.6077
13150TIP3    H260866   1.886   0.694  15.782 -0.9343  2.7251  2.5073
13151TIP3   OH260867   3.684   4.289  17.006  0.6228  0.5993  0.0385
13151TIP3    H160868   3.776   4.282  17.033  0.0450  0.9109  2.3015
13151TIP3    H260869   3.644   4.208  17.037  0.0189  0.7189 -0.4269
13152TIP3   OH260870   0.172   0.309  14.267 -0.3737 -0.5195  0.4608
13152TIP3    H160871   0.225   0.360  14.328  0.5526  1.0841 -1.5810
13152TIP3    H260872   0.185   0.351  14.182 -2.9139 -1.6393 -0.5983
13153TIP3   OH260873   4.870   1.152  14.333  0.7861  0.1062  0.8284
13153TIP3    H160874   4.943   1.150  14.394  0.7216 -0.0724  0.9002
13153TIP3    H260875   4.834   1.063  14.335  1.1544 -0.0665  0.0816
13154TIP3   OH260876   6.039   2.160  13.516 -0.0992 -0.6005  0.0176
13154TIP3    H160877   6.020   2.201  13.600 -1.0315 -2.1777  0.6099
13154TIP3    H260878   5.954   2.142  13.477  0.3163 -0.2837 -1.0740
13155TIP3   OH260879   3.517   4.672  12.286  0.5247  0.0566  0.2616
13155TIP3    H160880   3.448   4.647  12.224  1.8735 -2.5196 -0.3102
13155TIP3    H260881   3.510   4.768  12.291 -0.7949  0.2112 -2.4872
13156TIP3   OH260882   5.544   1.548  13.443 -0.3395 -0.1415 -0.1044
13156TIP3    H160883   5.525   1.501  13.524 -0.7675  1.2259  0.6350
13156TIP3    H260884   5.541   1.481  13.375  1.5601 -1.6130  1.1489
13157TIP3   OH260885   3.635   3.297  13.952 -0.0445 -0.1292 -0.4506
13157TIP3    H160886   3.624   3.391  13.933 -0.1483 -0.3358 -1.5050
13157TIP3    H260887   3.708   3.271  13.897  1.1956 -0.2963  1.2150
13158TIP3   OH260888   4.492   3.173   1.677  0.5053 -0.1409  0.0920
13158TIP3    H160889   4.493   3.098   1.618  0.9034 -0.1046  0.0464
13158TIP3    H260890   4.402   3.204   1.676  0.3400 -0.6194  0.1124
13159TIP3   OH260891   1.717   5.702  13.947 -0.4545  0.1053  0.3310
13159TIP3    H160892   1.677   5.786  13.968 -2.6828 -1.2213  1.8022
13159TIP3    H260893   1.763   5.677  14.028 -0.8494 -0.6283  0.3363
13160TIP3   OH260894   3.574   4.634   5.820 -0.2468  0.0475 -0.5870
13160TIP3    H160895   3.552   4.615   5.911  2.3448 -0.1233  0.0975
13160TIP3    H260896   3.520   4.573   5.769 -0.2592 -1.3168  0.9623
13161TIP3   OH260897   6.374   4.673   4.968  0.0853 -0.2798  0.1372
13161TIP3    H160898   6.402   4.744   4.911  1.4202 -1.2283 -0.4155
13161TIP3    H260899   6.307   4.713   5.025  2.0355  1.8962  1.0541
13162TIP3   OH260900   4.868   6.623  11.214 -0.1647 -0.2124  0.1017
13162TIP3    H160901   4.959   6.604  11.237 -0.0257  0.0401 -0.2264
13162TIP3    H260902   4.867   6.717  11.194 -0.2887 -0.4034 -0.8367
13163TIP3   OH260903   3.413   6.071   1.642  0.2351 -0.3440 -0.2587
13163TIP3    H160904   3.410   6.066   1.737 -0.0245  1.0978 -0.1679
13163TIP3    H260905   3.343   6.013   1.612 -0.8339  0.5237  0.4981
13164TIP3   OH260906   2.202   6.573   6.079 -0.3800 -0.5062  0.3315
13164TIP3    H160907   2.131   6.637   6.080 -1.4425 -1.4564 -2.7033
13164TIP3    H260908   2.165   6.497   6.123 -1.8505 -1.3967 -2.1853
13165TIP3   OH260909   1.281   0.084   3.557  0.2309 -0.3718  0.2945
13165TIP3    H160910   1.220   0.154   3.581  0.4427 -0.1013  0.0661
13165TIP3    H260911   1.367   0.120   3.578  0.2844 -0.9405  1.0736
13166TIP3   OH260912   3.749   2.616  15.228  0.2628  0.4647  0.1855
13166TIP3    H160913   3.804   2.638  15.153 -1.0917 -0.8386 -1.2660
13166TIP3    H260914   3.713   2.699  15.258  0.8384  0.9997 -0.6066
13167TIP3   OH260915   0.800   1.042  16.585 -0.4355  0.1119  0.0882
13167TIP3    H160916   0.795   1.032  16.490 -2.0763 -0.1190  0.1761
13167TIP3    H260917   0.733   0.983  16.620  1.6839 -1.5672  1.5552
13168TIP3   OH260918   2.578   4.705   2.052  0.0135  0.1212 -0.4646
13168TIP3    H160919   2.535   4.753   2.123  0.0506  0.5386 -0.7202
13168TIP3    H260920   2.519   4.632   2.033  0.9307 -1.1285  1.3029
13169TIP3   OH260921   4.710   4.888  13.980 -0.7938 -0.6375  0.0646
13169TIP3    H160922   4.790   4.927  13.946 -1.2272 -0.7952 -1.2046
13169TIP3    H260923   4.740   4.827  14.048  0.0450  0.2601  0.5262
13170TIP3   OH260924   1.162   2.254  12.098  0.1111 -0.1940 -0.1933
13170TIP3    H160925   1.121   2.207  12.171  0.4272 -2.0793 -1.1610
13170TIP3    H260926   1.237   2.298  12.136  0.9613 -2.1103  0.4569
13171TIP3   OH260927   0.560   0.287  14.421  0.0264  0.1347 -0.4101
13171TIP3    H160928   0.491   0.352  14.437 -0.7920 -0.3484 -1.7924
13171TIP3    H260929   0.625   0.305  14.488 -1.2623  0.8561  0.7129
13172TIP3   OH260930   6.371   4.576  15.109 -0.6156 -0.3543  0.1131
13172TIP3    H160931   6.396   4.484  15.106  0.6978 -0.0266  0.2250
13172TIP3    H260932   6.384   4.607  15.019  1.1500  0.2346  0.5285
13173TIP3   OH260933   6.541   2.558  15.969 -0.4908 -0.5077  0.5792
13173TIP3    H160934   6.603   2.528  16.036 -0.7752 -1.1145  0.5803
13173TIP3    H260935   6.478   2.486  15.962 -0.3829 -0.5081 -0.4412
13174TIP3   OH260936   2.320   1.676   1.657  0.0420  0.0830 -0.3540
13174TIP3    H160937   2.406   1.652   1.691 -0.2973 -0.2698  0.2728
13174TIP3    H260938   2.275   1.716   1.731 -0.3662  0.1796 -0.6502
13175TIP3   OH260939   5.535   0.512   5.035 -0.0866 -0.2184 -0.1914
13175TIP3    H160940   5.492   0.574   5.093 -1.0998 -0.5073 -0.6093
13175TIP3    H260941   5.481   0.433   5.040 -1.2091  0.2811 -2.7739
13176TIP3   OH260942   0.701   4.761   5.785  0.3808 -0.9731  0.4168
13176TIP3    H160943   0.700   4.768   5.880 -0.9049 -0.3300  0.3817
13176TIP3    H260944   0.779   4.710   5.765  0.8289 -0.8605  1.7936
13177TIP3   OH260945   6.442   3.761   4.681  0.0302  0.1425  0.2021
13177TIP3    H160946   6.519   3.735   4.731 -1.3103 -0.0090  2.3092
13177TIP3    H260947   6.405   3.678   4.649  0.4106  0.1733 -0.3346
13178TIP3   OH260948   4.386   0.346   5.136 -0.3341  0.5241 -0.3940
13178TIP3    H160949   4.468   0.378   5.174 -1.1118  0.6039  1.3180
13178TIP3    H260950   4.411   0.308   5.052  1.3349  1.2340 -0.2467
13179TIP3   OH260951   5.455   2.937   2.600  0.1502  0.2719 -0.4347
13179TIP3    H160952   5.531   2.917   2.655 -2.0949 -1.7053  2.2431
13179TIP3    H260953   5.420   2.852   2.574 -1.1926  1.1100 -1.5353
13180TIP3   OH260954   5.381   3.248   2.117 -0.2651  0.2377 -0.0411
13180TIP3    H160955   5.412   3.222   2.204 -0.5681  1.3117  0.4028
13180TIP3    H260956   5.459   3.280   2.073 -0.0363 -0.6689 -0.3172
13181TIP3   OH260957   3.508   1.744  10.479 -0.0320 -0.2374 -0.0336
13181TIP3    H160958   3.421   1.756  10.516 -1.1488  0.5310 -2.6458
13181TIP3    H260959   3.520   1.649  10.474 -1.6411 -0.4167 -1.4610
13182TIP3   OH260960   1.787   1.892   4.350 -0.0023 -0.1590 -0.0309
13182TIP3    H160961   1.731   1.833   4.299  0.8022 -0.7061 -0.3009
13182TIP3    H260962   1.779   1.977   4.307 -0.7339 -0.1930  0.0232
13183TIP3   OH260963   1.870   5.314   2.970 -0.5057 -0.2035 -0.0911
13183TIP3    H160964   1.898   5.306   2.879  0.3083  4.1716 -0.4400
13183TIP3    H260965   1.938   5.268   3.020  1.5702  1.1408 -1.5230
13184TIP3   OH260966   4.116   1.715  12.049  0.6011  0.5995 -0.1032
13184TIP3    H160967   4.199   1.733  12.092  0.4409  2.6866 -0.5466
13184TIP3    H260968   4.120   1.622  12.026  3.1940  0.8500 -0.9344
13185TIP3   OH260969   3.922   3.688  12.569  0.3093 -0.2224 -0.2102
13185TIP3    H160970   3.913   3.783  12.570 -1.2731 -0.3453 -0.5473
13185TIP3    H260971   4.017   3.673  12.563  0.6246  1.3095  0.3741
13186TIP3   OH260972   5.133   3.059   6.028  0.4924  0.0690 -0.1097
13186TIP3    H160973   5.043   3.048   5.998  0.5866  0.9718 -0.7614
13186TIP3    H260974   5.125   3.110   6.109  0.4240  0.1037 -0.1387
13187TIP3   OH260975   4.491   5.408   5.439  0.7274  0.0954 -0.3147
13187TIP3    H160976   4.404   5.429   5.470  0.1721 -2.2566 -0.0934
13187TIP3    H260977   4.527   5.492   5.408 -1.1486  1.2999  0.6203
13188TIP3   OH260978   3.261   0.895   4.458  0.3304  0.8518 -0.6141
13188TIP3    H160979   3.254   0.974   4.404 -0.1360 -0.2829 -2.2706
13188TIP3    H260980   3.171   0.861   4.462  0.6968 -0.1467 -0.7777
13189TIP3   OH260981   3.622   2.455   4.621 -0.1275  0.0347 -0.7830
13189TIP3    H160982   3.611   2.534   4.568  0.7538  0.5355 -0.2470
13189TIP3    H260983   3.554   2.395   4.589 -1.3659  1.2973 -0.6492
13190TIP3   OH260984   1.916   4.427  14.261 -0.0703  0.2895  0.3333
13190TIP3    H160985   1.892   4.338  14.233 -0.8601  0.3770  0.7027
13190TIP3    H260986   1.874   4.437  14.346 -1.7812  1.7531 -0.6248
13191TIP3   OH260987   3.298   6.636   5.266 -0.2131 -0.7902 -0.1615
13191TIP3    H160988   3.283   6.723   5.230  0.8906 -0.9714 -1.1074
13191TIP3    H260989   3.277   6.576   5.195 -0.6324 -1.2992  0.3760
13192TIP3   OH260990   3.780   6.260  15.634 -0.2342 -0.3108  0.1040
13192TIP3    H160991   3.788   6.181  15.688 -0.4138  0.2377  0.9434
13192TIP3    H260992   3.699   6.301  15.663 -1.0767 -0.7199 -1.5531
13193TIP3   OH260993   6.096   2.357  10.735 -0.3779 -0.1112 -0.3557
13193TIP3    H160994   6.048   2.326  10.659 -0.7225  0.4122 -0.3590
13193TIP3    H260995   6.082   2.291  10.802 -0.6622 -0.2242 -0.5257
13194TIP3   OH260996   5.303   5.929  14.770 -0.1458  0.1603  0.2044
13194TIP3    H160997   5.360   5.871  14.720 -1.3865 -1.9913  1.1381
13194TIP3    H260998   5.268   5.990  14.706 -0.9063 -1.8755 -1.4331
13195TIP3   OH260999   5.888   6.492  14.661  0.0830  0.0699  0.0543
13195TIP3    H161000   5.816   6.555  14.665  0.1153  0.0551  1.9144
13195TIP3    H261001   5.961   6.537  14.702  0.3580 -0.8421  0.6030
13196TIP3   OH261002   5.139   6.654   1.072  0.0752 -0.0771  0.3310
13196TIP3    H161003   5.196   6.623   1.001  1.2885  1.5628  0.5279
13196TIP3    H261004   5.183   6.732   1.105 -1.6896  0.5471  1.3220
13197TIP3   OH261005   5.240   6.401   4.454  0.0612  0.1337 -0.2339
13197TIP3    H161006   5.276   6.333   4.398  1.1066  0.8980 -0.5116
13197TIP3    H261007   5.203   6.466   4.394  0.5539  0.6112 -0.0336
13198TIP3   OH261008   4.689   4.411  12.654  0.1414  0.0619  0.7484
13198TIP3    H161009   4.608   4.430  12.606 -0.3592 -0.7783  1.2291
13198TIP3    H261010   4.754   4.398  12.585 -0.2376  0.3023  0.3359
13199TIP3   OH261011   0.606   6.137  16.050 -0.0871 -0.1174 -0.0785
13199TIP3    H161012   0.640   6.069  15.991 -2.4410 -1.4657 -0.0435
13199TIP3    H261013   0.561   6.088  16.118  1.0084  1.4674  1.8770
13200TIP3   OH261014   1.293   4.230  12.485  0.2271 -0.0426  0.2895
13200TIP3    H161015   1.271   4.142  12.516 -1.1500  0.6904  1.4684
13200TIP3    H261016   1.230   4.287  12.528  0.8583  1.4943 -0.7632
13201TIP3   OH261017   0.196   2.754   4.125 -0.5797 -0.1379 -0.0114
13201TIP3    H161018   0.256   2.693   4.082 -0.9742 -2.0857  2.0162
13201TIP3    H261019   0.230   2.840   4.102  2.1420 -1.1413 -0.1664
13202TIP3   OH261020   4.097   0.522  11.619  0.0849  0.5148  0.1747
13202TIP3    H161021   4.066   0.431  11.627  0.6095  0.3145 -0.0276
13202TIP3    H261022   4.176   0.516  11.566 -1.2307  1.3721 -1.9933
13203TIP3   OH261023   6.779   3.915  11.301 -0.2181 -0.6927 -0.2160
13203TIP3    H161024   6.792   3.984  11.236 -0.5262  0.6639  1.1130
13203TIP3    H261025   6.684   3.912  11.314 -0.1367 -0.7181  0.3990
13204TIP3   OH261026   4.927   2.105   0.793 -0.0926 -0.7234  0.3169
13204TIP3    H161027   4.864   2.049   0.838 -0.8838  0.5306  0.8399
13204TIP3    H261028   4.877   2.142   0.720  0.4682 -0.8403 -0.1289
13205TIP3   OH261029   0.993   0.344   0.798  0.2245  0.1782  0.4274
13205TIP3    H161030   0.900   0.352   0.820 -0.3756 -1.2887 -1.3714
13205TIP3    H261031   0.996   0.347   0.703  1.8156 -1.5711  0.3648
13206TIP3   OH261032   5.901   6.217   5.554  0.4724  1.0464 -0.5569
13206TIP3    H161033   5.962   6.281   5.591  0.0333  1.8646 -1.1969
13206TIP3    H261034   5.833   6.270   5.513  0.8244  0.2141 -2.3545
13207TIP3   OH261035   4.124   1.971  12.312  0.3060 -0.1125  0.5062
13207TIP3    H161036   4.213   1.973  12.348  0.4386 -0.4532  0.2049
13207TIP3    H261037   4.080   2.046  12.352  1.7135  2.1943 -1.9608
13208TIP3   OH261038   6.060   1.168  10.520  0.2089 -0.3909 -0.2084
13208TIP3    H161039   5.993   1.130  10.462  0.0243 -1.1641  0.5025
13208TIP3    H261040   6.114   1.221  10.461 -0.7409 -0.1276 -0.8764
13209TIP3   OH261041   2.696   1.687  11.754  0.4057  0.1761 -0.2511
13209TIP3    H161042   2.765   1.684  11.687 -1.2307  0.9421 -2.0540
13209TIP3    H261043   2.722   1.758  11.812  0.5737  1.2313 -1.5769
13210TIP3   OH261044   1.136   1.041   1.633 -0.2382  0.0544  0.2153
13210TIP3    H161045   1.178   1.079   1.556 -0.3592 -0.4924 -0.1265
13210TIP3    H261046   1.049   1.015   1.602 -0.5992  0.5707  0.7468
13211TIP3   OH261047   2.461   2.701  10.851 -0.2330 -0.0877  0.0559
13211TIP3    H161048   2.430   2.702  10.761  2.6422  1.1250 -1.0559
13211TIP3    H261049   2.543   2.652  10.848 -0.0523  0.0011  2.0104
13212TIP3   OH261050   1.423   5.247  13.532  0.1081 -0.0088  0.1960
13212TIP3    H161051   1.444   5.286  13.617 -1.3024 -0.2740  0.6966
13212TIP3    H261052   1.334   5.275  13.514  0.7477  0.9619 -1.7623
13213TIP3   OH261053   5.386   5.870   1.905 -0.4069  0.5496 -0.5733
13213TIP3    H161054   5.311   5.886   1.962 -0.9201 -0.6306 -0.8938
13213TIP3    H261055   5.351   5.817   1.833  0.8212 -0.4108 -0.4898
13214TIP3   OH261056   5.138   4.524  11.192  0.1991 -0.3355  0.1993
13214TIP3    H161057   5.093   4.608  11.191  1.5489  0.5023  2.4654
13214TIP3    H261058   5.106   4.479  11.270  0.0780 -1.6331 -0.5566
13215TIP3   OH261059   4.513   1.142   1.183 -0.5841 -0.5209  0.1513
13215TIP3    H161060   4.425   1.146   1.220 -1.6454 -0.4334 -2.2049
13215TIP3    H261061   4.499   1.129   1.090  1.8593  2.0096 -0.7036
13216TIP3   OH261062   1.758   4.692   1.018  0.1042 -0.0741 -0.1119
13216TIP3    H161063   1.704   4.763   0.983  1.6898  1.4141  0.3681
13216TIP3    H261064   1.818   4.670   0.947 -0.5122 -1.1233 -0.3338
13217TIP3   OH261065   4.894   5.354  17.007 -0.0108  0.6267 -0.7318
13217TIP3    H161066   4.973   5.313  17.040 -0.6128  1.0263  1.3465
13217TIP3    H261067   4.823   5.294  17.030 -0.4426  0.7565 -1.6513
13218TIP3   OH261068   3.188   5.305  16.810  0.3853 -0.4080 -0.0509
13218TIP3    H161069   3.207   5.396  16.786  0.0837 -0.3250  0.0107
13218TIP3    H261070   3.173   5.308  16.905  1.0568 -0.6434  0.0620
13219TIP3   OH261071   2.008   4.449  13.535 -0.2726  0.6699  0.2239
13219TIP3    H161072   2.019   4.544  13.539 -1.2684  0.7407  1.9725
13219TIP3    H261073   1.999   4.430  13.441  0.0974  2.2635 -0.1601
13220TIP3   OH261074   2.738   2.998  11.112 -0.4588 -0.7232 -0.0759
13220TIP3    H161075   2.742   3.023  11.019 -1.0083 -0.4571 -0.0329
13220TIP3    H261076   2.725   3.080  11.158  0.2858 -0.8036  0.2809
13221TIP3   OH261077   3.007   2.087  12.072  0.2771  0.4557  0.3159
13221TIP3    H161078   3.099   2.081  12.099  0.7487  0.2998 -1.1982
13221TIP3    H261079   3.000   2.174  12.031 -0.9861  1.6391  2.8458
13222TIP3   OH261080   5.202   0.063   2.500 -0.7325 -0.1034 -0.0269
13222TIP3    H161081   5.138   0.098   2.562  1.7063  0.9428  2.1063
13222TIP3    H261082   5.226  -0.023   2.537 -0.5589 -0.2741 -0.5333
13223TIP3   OH261083   0.082   0.162  13.215 -0.2480 -0.2373  0.2151
13223TIP3    H161084   0.095   0.094  13.149  1.3510 -0.4753  0.7403
13223TIP3    H261085  -0.007   0.193  13.199  0.1966  0.0140 -2.3533
13224TIP3   OH261086   3.106   1.229  14.707  0.0162  0.6030  0.1842
13224TIP3    H161087   3.053   1.264  14.779  0.4002 -0.7220  1.1415
13224TIP3    H261088   3.055   1.156  14.673 -1.1169  2.3991 -2.2815
13225TIP3   OH261089   4.703   1.689   2.660 -0.0987 -0.0841 -0.0757
13225TIP3    H161090   4.705   1.594   2.668  0.8380 -0.0790 -0.1271
13225TIP3    H261091   4.717   1.707   2.567 -0.0037  0.1002 -0.0286
13226TIP3   OH261092   3.920   4.282   5.176  0.6431  0.8374  0.5628
13226TIP3    H161093   3.999   4.334   5.192  1.8360 -1.1007  1.2838
13226TIP3    H261094   3.918   4.219   5.248  1.1785 -2.3494 -1.9928
13227TIP3   OH261095   1.897   4.457  12.389  0.5591  0.1335 -0.1667
13227TIP3    H161096   1.819   4.413  12.422  0.8571 -0.2358  0.0456
13227TIP3    H261097   1.865   4.510  12.316  0.4045 -1.3881 -1.2226
13228TIP3   OH261098   3.255   1.000  11.653 -0.4795  0.5219 -0.5706
13228TIP3    H161099   3.201   1.005  11.733  0.0562  1.7022 -0.2582
13228TIP3    H261100   3.192   0.980  11.584 -1.0137 -0.1376  0.0851
13229TIP3   OH261101   3.200   6.175   0.023  0.2097 -0.3505 -0.0247
13229TIP3    H161102   3.286   6.217   0.031  0.3034  0.0034 -2.2030
13229TIP3    H261103   3.202   6.104   0.086  1.5890  0.4719  0.9210
13230TIP3   OH261104   2.066   0.662   2.298 -0.1377 -0.2257  0.3929
13230TIP3    H161105   2.094   0.689   2.210 -0.6658 -1.5223 -0.2056
13230TIP3    H261106   2.101   0.729   2.356  0.4566  0.5190 -0.7815
13231TIP3   OH261107   0.813   0.581   5.028 -0.0835 -0.0302 -0.0249
13231TIP3    H161108   0.878   0.526   5.070 -0.1870  0.2777  0.5496
13231TIP3    H261109   0.851   0.604   4.944 -0.1917 -1.2681 -0.4254
13232TIP3   OH261110   3.113   3.922   0.702 -0.1982  0.7449 -0.4616
13232TIP3    H161111   3.169   3.912   0.625  0.0312 -0.7932 -0.1412
13232TIP3    H261112   3.173   3.916   0.776 -0.7349 -1.1827 -0.1065
13233TIP3   OH261113   0.662   0.275  14.680  0.1530  0.2153 -0.1698
13233TIP3    H161114   0.718   0.199  14.691 -1.3518 -1.0370 -0.7699
13233TIP3    H261115   0.580   0.251  14.723 -0.2666  1.6051 -0.1471
13234TIP3   OH261116   6.006   1.603   5.422 -0.0331  0.2457 -1.0962
13234TIP3    H161117   5.964   1.662   5.359 -0.3280  2.2673  0.8577
13234TIP3    H261118   5.939   1.587   5.488  1.7578  2.6733  1.5296
13235TIP3   OH261119   4.027   5.203  15.005 -0.3335 -0.1236  0.9444
13235TIP3    H161120   3.983   5.143  15.066 -0.9942  1.6300  2.2747
13235TIP3    H261121   4.100   5.239  15.055 -0.2032  0.4869  0.3213
13236TIP3   OH261122   5.460   5.481  11.523  0.2785  0.3694 -0.3372
13236TIP3    H161123   5.485   5.399  11.479 -1.4769 -0.7725  0.6932
13236TIP3    H261124   5.439   5.455  11.612  1.4216  2.2753  0.5579
13237TIP3   OH261125   5.455   1.183   1.752 -0.1426 -0.3971  0.4991
13237TIP3    H161126   5.424   1.262   1.796  0.7014  0.9555 -1.2216
13237TIP3    H261127   5.551   1.190   1.757 -0.0582 -0.9236 -0.3232
13238TIP3   OH261128   1.042   0.019  15.067  0.1254  0.5178 -0.8434
13238TIP3    H161129   1.121  -0.035  15.066 -0.8383 -1.0613  0.6643
13238TIP3    H261130   1.038   0.052  15.157 -1.2319  0.0221 -0.7008
13239TIP3   OH261131   3.693   6.725  16.740  0.2910 -0.1512  0.3698
13239TIP3    H161132   3.747   6.789  16.693 -0.6139  0.6833  0.4546
13239TIP3    H261133   3.681   6.761  16.827 -0.0963 -0.5127  0.4735
13240TIP3   OH261134   6.331   5.009   1.236 -0.3738  0.4514 -0.3258
13240TIP3    H161135   6.249   5.037   1.275 -0.3945  1.1173 -0.8280
13240TIP3    H261136   6.362   5.085   1.186  1.2300  0.6772  0.9304
13241TIP3   OH261137   0.679   6.569  15.894  0.2188  0.5759 -0.3060
13241TIP3    H161138   0.758   6.515  15.903  0.4157  0.7389 -0.9874
13241TIP3    H261139   0.668   6.611  15.979  0.6486  0.2565 -0.0900
13242TIP3   OH261140   2.024   5.003  13.260  0.1643 -0.0959 -0.0303
13242TIP3    H161141   2.025   4.945  13.184 -0.1485  0.8262 -0.7418
13242TIP3    H261142   2.100   5.060  13.248 -0.0370  0.2246  0.2235
13243TIP3   OH261143   3.154   0.454   5.531  0.8989  0.2115 -0.2074
13243TIP3    H161144   3.207   0.388   5.575  0.0747 -0.5752 -0.3852
13243TIP3    H261145   3.140   0.420   5.443 -2.2079 -0.9739  0.6300
13244TIP3   OH261146   3.839   4.181   3.276 -0.0399  0.3495 -0.3933
13244TIP3    H161147   3.857   4.262   3.227  0.0661  0.9428  0.6139
13244TIP3    H261148   3.892   4.189   3.355  2.0947 -1.9008 -1.4458
13245TIP3   OH261149   4.421   6.496   2.224 -0.1450  0.1280 -0.2469
13245TIP3    H161150   4.400   6.542   2.305 -1.0922  1.6154 -1.2770
13245TIP3    H261151   4.343   6.507   2.170  0.8147  0.0142 -1.7176
13246TIP3   OH261152   5.927   1.368  12.498 -0.4339 -0.6233 -0.1347
13246TIP3    H161153   5.971   1.452  12.510 -0.6613 -0.4701 -0.3481
13246TIP3    H261154   5.927   1.327  12.584 -2.5991  0.7285  0.5828
13247TIP3   OH261155   4.920   3.785   3.200  0.3201  0.3455  0.2345
13247TIP3    H161156   4.844   3.728   3.194  0.9650 -0.8062  2.1336
13247TIP3    H261157   4.992   3.727   3.224  1.9326  1.3201 -1.8858
13248TIP3   OH261158   2.603   6.147   4.294 -0.0257 -0.1323  0.3846
13248TIP3    H161159   2.648   6.197   4.363 -2.2108  1.1765  0.9560
13248TIP3    H261160   2.601   6.206   4.219 -1.2913  0.0892  0.5718
13249TIP3   OH261161   1.974   4.793  16.651 -0.4208  0.1549  0.1326
13249TIP3    H161162   1.902   4.850  16.680  0.1164  1.2381 -0.5710
13249TIP3    H261163   1.941   4.753  16.571 -0.7713 -0.4779  0.5859
13250TIP3   OH261164   5.867   5.515   0.591  0.2342  0.5584  0.6842
13250TIP3    H161165   5.961   5.499   0.585  0.2666  1.2387 -1.4540
13250TIP3    H261166   5.827   5.448   0.535 -0.3290  1.9596 -0.6293
13251TIP3   OH261167   5.418   1.178   4.175 -0.3280  0.7076  1.2102
13251TIP3    H161168   5.438   1.167   4.082 -0.7014 -1.8330  1.3572
13251TIP3    H261169   5.503   1.180   4.219 -0.1108 -2.1394  1.1089
13252TIP3   OH261170   4.984   0.087  16.609  0.2784 -0.0290 -0.0843
13252TIP3    H161171   4.967   0.158  16.548  1.0767  0.7005  0.5141
13252TIP3    H261172   4.915   0.094  16.675  0.2770  0.1079 -0.1018
13253TIP3   OH261173   5.298   2.060  14.363 -0.1630 -0.1854 -0.0595
13253TIP3    H161174   5.269   2.136  14.411  0.7495 -0.2647  0.6370
13253TIP3    H261175   5.378   2.088  14.319  0.2908 -0.7905  0.3639
13254TIP3   OH261176   6.017   3.462   1.339 -0.1483 -0.2912  0.4288
13254TIP3    H161177   6.006   3.387   1.280 -0.6554  0.0583  0.0751
13254TIP3    H261178   6.067   3.525   1.288 -1.0039  0.2092  0.1837
13255TIP3   OH261179   1.069   3.714  11.157  0.0008  0.4399  0.5567
13255TIP3    H161180   1.074   3.806  11.132  1.2824  0.2097 -0.0893
13255TIP3    H261181   1.093   3.713  11.250 -0.2641  0.7873  0.6273
13256TIP3   OH261182   2.929   6.753   0.483  0.6032 -0.4496 -0.1801
13256TIP3    H161183   2.875   6.721   0.412  1.7614 -2.9894 -0.0423
13256TIP3    H261184   2.874   6.745   0.561  0.4632 -1.0395 -0.3302
13257TIP3   OH261185   3.393   3.705   0.142 -0.0988  0.2816  0.4115
13257TIP3    H161186   3.310   3.706   0.189  0.8473 -2.4719  2.3699
13257TIP3    H261187   3.389   3.628   0.086  0.3852  1.2879 -1.1020
13258TIP3   OH261188   4.075   6.231  11.386 -0.0254 -0.0145 -0.0899
13258TIP3    H161189   4.080   6.327  11.382 -1.1717  0.0690  0.1936
13258TIP3    H261190   4.148   6.205  11.443 -0.0052  0.7225  0.2268
13259TIP3   OH261191   4.395   2.538   1.051  0.3154 -0.3998  0.1714
13259TIP3    H161192   4.337   2.505   1.121 -0.3597  0.9688  0.2768
13259TIP3    H261193   4.434   2.617   1.088  2.5229 -1.4448  0.2088
13260TIP3   OH261194   3.276   6.217  12.714 -0.5891 -0.0870  0.2814
13260TIP3    H161195   3.304   6.242  12.802 -1.6949  2.0403  0.1034
13260TIP3    H261196   3.260   6.300  12.670 -0.5150 -1.1193 -1.7939
13261TIP3   OH261197   5.513   4.533  14.018  0.1913 -0.2739  0.1105
13261TIP3    H161198   5.505   4.444  14.051 -0.1052  0.5070  2.3248
13261TIP3    H261199   5.461   4.533  13.937 -0.6858 -1.8348  0.6310
13262TIP3   OH261200   5.679   5.083  12.267 -0.1736 -0.1977 -0.1076
13262TIP3    H161201   5.699   5.171  12.238 -0.6023  0.4659  1.4624
13262TIP3    H261202   5.757   5.054  12.315 -0.5980 -0.0316  0.7150
13263TIP3   OH261203   5.148   6.063  12.085 -0.1392  0.5350  0.2591
13263TIP3    H161204   5.156   6.154  12.058 -0.7266  0.8818  1.1964
13263TIP3    H261205   5.157   6.066  12.181 -0.8723 -0.3003  0.3658
13264TIP3   OH261206   2.103   1.665   1.194 -0.2771 -0.0598 -0.2682
13264TIP3    H161207   2.091   1.728   1.123 -1.1367 -0.4560 -0.4872
13264TIP3    H261208   2.172   1.606   1.163 -1.4726 -0.9690 -1.3358
13265TIP3   OH261209   3.735   1.501   3.382  0.4163  0.3135  0.3400
13265TIP3    H161210   3.691   1.561   3.442  1.8426  1.0187  0.7215
13265TIP3    H261211   3.816   1.477   3.427  0.4918 -0.8698 -0.3839
13266TIP3   OH261212   3.637   5.247  15.769  0.0346  0.0894 -0.2810
13266TIP3    H161213   3.554   5.291  15.790 -1.3710 -1.8653 -1.4064
13266TIP3    H261214   3.689   5.314  15.725 -1.6399  0.9329 -1.0743
13267TIP3   OH261215   4.937   3.488   1.796 -0.4667 -0.2672  0.3904
13267TIP3    H161216   4.945   3.577   1.762 -0.8452 -1.1840 -2.3056
13267TIP3    H261217   5.027   3.462   1.816 -0.1670  0.1775 -0.3372
13268TIP3   OH261218   2.987   3.817  11.378  0.2541  0.2046  0.0117
13268TIP3    H161219   3.071   3.786  11.344  0.4746  1.4009 -0.6229
13268TIP3    H261220   2.961   3.753  11.443  1.3336 -0.5431 -0.2761
13269TIP3   OH261221   1.617   5.082   2.009 -0.2764  0.0520 -0.2837
13269TIP3    H161222   1.623   5.177   2.002 -0.5662  0.0851 -0.0728
13269TIP3    H261223   1.656   5.050   1.928  1.2414  0.3111  0.3018
13270TIP3   OH261224   1.260   6.745   5.593 -0.4872  0.2803  0.3797
13270TIP3    H161225   1.269   6.829   5.639 -0.9870  0.2474  0.5442
13270TIP3    H261226   1.343   6.735   5.546 -0.4810  0.9426  0.2337
13271TIP3   OH261227   5.026   4.802   2.379  0.2200 -0.0819 -0.1265
13271TIP3    H161228   5.053   4.893   2.368 -0.1194  0.0700  0.2640
13271TIP3    H261229   5.032   4.765   2.291 -0.8659  0.6615 -0.5480
13272TIP3   OH261230   3.900   0.244  10.927  0.1856  0.4130  0.2269
13272TIP3    H161231   3.952   0.205  10.998  0.5140 -0.0074 -0.2347
13272TIP3    H261232   3.903   0.179  10.857  0.2167  0.9992 -0.3279
13273TIP3   OH261233   0.284   4.564  13.232  0.9179  0.5929  0.2352
13273TIP3    H161234   0.269   4.479  13.274  1.0725  0.4029 -0.0867
13273TIP3    H261235   0.263   4.549  13.140 -0.8338  1.3830  0.4788
13274TIP3   OH261236   2.875   5.220  11.469  0.5778 -0.1148  0.4326
13274TIP3    H161237   2.898   5.141  11.518  0.5420 -0.9364 -0.8293
13274TIP3    H261238   2.780   5.222  11.469  0.5752 -0.2734  0.1456
13275TIP3   OH261239   3.200   5.370  11.846 -0.6127  0.3108  0.2383
13275TIP3    H161240   3.225   5.362  11.754 -1.1049 -1.2132  0.2013
13275TIP3    H261241   3.269   5.424  11.885 -0.4711  1.0966 -1.0406
13276TIP3   OH261242   6.381   3.568  11.684 -0.4657 -0.2662 -0.3611
13276TIP3    H161243   6.457   3.510  11.686 -0.8594 -0.7706  1.0395
13276TIP3    H261244   6.375   3.603  11.773 -1.1799  0.6898 -0.7707
13277TIP3   OH261245   6.471   2.141  11.296  0.5427 -0.0216  0.6915
13277TIP3    H161246   6.538   2.208  11.304  0.8933 -0.1617 -0.7709
13277TIP3    H261247   6.389   2.190  11.290  0.9832  0.5572 -3.0799
13278TIP3   OH261248   0.839   4.286   5.702  0.6540  0.3233 -0.3304
13278TIP3    H161249   0.873   4.344   5.634  0.8249  0.1652 -0.3819
13278TIP3    H261250   0.762   4.331   5.736  1.3131  1.0189  0.2717
13279TIP3   OH261251   1.137   1.806   1.618 -0.8824  0.2822  0.2159
13279TIP3    H161252   1.130   1.711   1.626 -2.4567  0.1907 -1.5905
13279TIP3    H261253   1.199   1.831   1.687  1.3022 -2.2635 -0.6376
13280TIP3   OH261254   1.104   0.552   0.488  0.3366  0.1534  0.1400
13280TIP3    H161255   1.140   0.586   0.570 -0.9641 -0.2432  0.9047
13280TIP3    H261256   1.069   0.466   0.511 -1.2221  0.5754 -0.5216
13281TIP3   OH261257   1.116   3.081  16.553  0.1530  0.6853  0.4653
13281TIP3    H161258   1.110   3.001  16.501  0.9382  0.8739  0.0581
13281TIP3    H261259   1.065   3.063  16.632 -0.2053  0.0204  0.0889
13282TIP3   OH261260   2.741   5.735   6.487  0.2877  0.8307 -0.1544
13282TIP3    H161261   2.821   5.754   6.536  0.1619  0.1330  0.3471
13282TIP3    H261262   2.672   5.780   6.536 -0.0632 -1.0444  1.2372
13283TIP3   OH261263   5.436   0.673  12.112 -0.5519 -0.5416  0.8913
13283TIP3    H161264   5.437   0.764  12.082  0.5327 -0.9366 -0.4362
13283TIP3    H261265   5.381   0.627  12.048 -0.8257 -0.8721  1.3608
13284TIP3   OH261266   4.164   0.754   4.862  0.1265 -0.3392 -0.9136
13284TIP3    H161267   4.230   0.686   4.845  1.0119  0.3768 -0.3945
13284TIP3    H261268   4.103   0.714   4.924  0.4786 -0.7586 -0.8367
13285TIP3   OH261269   6.762   2.296  14.586 -0.4649  0.0650  0.0595
13285TIP3    H161270   6.813   2.240  14.645  0.3707  0.4892 -0.2512
13285TIP3    H261271   6.781   2.385  14.615 -0.7592  0.2429 -0.2920
13286TIP3   OH261272   2.267   3.120  10.480  0.6395 -0.4296  0.1463
13286TIP3    H161273   2.281   3.151  10.391  0.5469 -1.4702 -0.2431
13286TIP3    H261274   2.297   3.192  10.536  0.2974  0.4036 -0.7151
13287TIP3   OH261275   6.153   6.374   2.200 -0.1025 -0.0770 -0.4750
13287TIP3    H161276   6.120   6.363   2.290  1.9658 -0.6901  0.2659
13287TIP3    H261277   6.119   6.459   2.173 -1.9191 -0.4880  0.3440
13288TIP3   OH261278   1.878   0.286   0.577 -0.0542  0.2746 -0.0553
13288TIP3    H161279   1.883   0.323   0.488 -0.8150 -2.0964 -1.1570
13288TIP3    H261280   1.800   0.326   0.615  0.2087  1.2220 -0.4659
13289TIP3   OH261281   2.606   3.749  11.501  0.3093  0.1277  0.2741
13289TIP3    H161282   2.552   3.770  11.425  1.0527  0.3049 -0.2142
13289TIP3    H261283   2.657   3.828  11.517  1.6211 -0.5632 -0.3085
13290TIP3   OH261284   6.685   6.251   4.687  0.0476 -0.4308  0.2648
13290TIP3    H161285   6.764   6.253   4.632 -0.1301 -0.2299  0.0170
13290TIP3    H261286   6.694   6.171   4.737 -1.0637 -2.0459 -1.9422
13291TIP3   OH261287   1.757   1.531   0.275 -0.4645  0.2373 -0.2913
13291TIP3    H161288   1.795   1.603   0.326 -1.3854  0.3808  0.2179
13291TIP3    H261289   1.692   1.574   0.219 -0.4902 -0.1030 -0.5201
13292TIP3   OH261290   4.070   0.736   3.242 -0.3483 -0.0999 -0.3817
13292TIP3    H161291   4.155   0.710   3.277  0.2849  0.0952 -1.7176
13292TIP3    H261292   4.045   0.664   3.184 -1.9586 -0.9989  1.3296
13293TIP3   OH261293   1.456   4.266   4.648  0.2519 -0.1144 -0.5920
13293TIP3    H161294   1.452   4.171   4.659 -0.1878  0.0776  1.0205
13293TIP3    H261295   1.543   4.290   4.681  0.3864  0.0513 -1.0530
13294TIP3   OH261296   3.105   2.524   2.671  0.5033 -0.1339 -0.0431
13294TIP3    H161297   3.015   2.557   2.674  1.4700  2.8995 -0.9660
13294TIP3    H261298   3.126   2.503   2.763 -0.0770  2.3709  0.7221
13295TIP3   OH261299   3.331   6.228  14.306  0.6185 -0.2901  0.6991
13295TIP3    H161300   3.366   6.140  14.298  1.0090 -0.1928  1.2748
13295TIP3    H261301   3.266   6.222  14.375  0.9378 -0.0452  1.0271
13296TIP3   OH261302   4.967   0.032   1.688  0.1984 -0.0620 -0.0682
13296TIP3    H161303   5.040   0.093   1.700  0.6755 -0.6745  0.2271
13296TIP3    H261304   4.968  -0.022   1.767  0.8557 -1.5329 -1.0338
13297TIP3   OH261305   4.670   4.148   6.402 -0.1054 -0.3639 -0.0854
13297TIP3    H161306   4.705   4.065   6.370 -1.5221 -1.1037  0.2226
13297TIP3    H261307   4.643   4.130   6.492  1.0972  0.9016  0.5745
13298TIP3   OH261308   6.229   2.004   5.576 -0.8138  0.4438 -0.3616
13298TIP3    H161309   6.144   1.958   5.578 -1.5374  1.6548 -1.5659
13298TIP3    H261310   6.249   2.013   5.482  0.5604  0.3634 -0.0948
13299TIP3   OH261311   4.040   1.009   0.336  0.1159  0.0374 -0.0075
13299TIP3    H161312   4.052   0.926   0.290  1.0360 -1.0419  1.9983
13299TIP3    H261313   3.989   0.986   0.413 -0.8434  1.6391 -0.1310
13300TIP3   OH261314   3.271   5.343   5.949  0.4955 -0.0579  0.0398
13300TIP3    H161315   3.227   5.302   6.023 -0.1818  1.5389  0.5771
13300TIP3    H261316   3.204   5.349   5.881  0.3073  0.9778  0.3038
13301TIP3   OH261317   0.348   1.959   2.468  0.1314 -0.0317 -0.0399
13301TIP3    H161318   0.269   1.926   2.510 -0.9584  0.8966 -1.2633
13301TIP3    H261319   0.420   1.925   2.521 -0.9958 -2.3715  0.0989
13302TIP3   OH261320   3.469   2.246   0.650 -0.8906 -0.0243 -0.0666
13302TIP3    H161321   3.462   2.209   0.562 -2.1624 -0.5723  0.2390
13302TIP3    H261322   3.378   2.261   0.677 -0.4687  2.3596  0.2496
13303TIP3   OH261323   5.060   5.306  14.767 -0.6841 -0.1829  0.0650
13303TIP3    H161324   5.124   5.298  14.837  0.2461 -2.8258 -0.9811
13303TIP3    H261325   4.977   5.321  14.812  0.3358  1.4790  1.5151
13304TIP3   OH261326   2.887   0.594  12.378 -0.1893 -0.0202  0.3176
13304TIP3    H161327   2.793   0.585  12.364 -0.9146 -1.0611  4.4527
13304TIP3    H261328   2.896   0.675  12.428  0.5105 -1.6795  3.1051
13305TIP3   OH261329   4.285   1.546  15.310  0.6254  0.1909 -0.8924
13305TIP3    H161330   4.192   1.527  15.318  0.9085 -0.5874  0.9617
13305TIP3    H261331   4.318   1.548  15.400  2.1104  2.0391 -1.3962
13306TIP3   OH261332   5.308   6.260  11.849  0.2021  0.0989 -0.2326
13306TIP3    H161333   5.334   6.168  11.849  1.0725  0.2971  1.6209
13306TIP3    H261334   5.294   6.281  11.756 -0.4988 -2.0036 -0.6592
13307TIP3   OH261335   4.051   4.428  13.121 -0.4274 -0.1610  0.3519
13307TIP3    H161336   4.118   4.369  13.156 -0.8838 -1.7973 -1.3282
13307TIP3    H261337   3.978   4.420  13.183 -0.5804 -1.6428  0.0340
13308TIP3   OH261338   0.232   5.673   4.359 -0.1321  0.1903 -0.1148
13308TIP3    H161339   0.251   5.662   4.266 -3.3610 -2.0585 -0.6568
13308TIP3    H261340   0.214   5.584   4.391 -3.0840  1.2656  1.6372
13309TIP3   OH261341   4.692   0.730  12.085 -0.0438  0.2031  0.3502
13309TIP3    H161342   4.680   0.636  12.099  0.9714 -0.5137 -2.8073
13309TIP3    H261343   4.603   0.764  12.074 -0.3448 -0.8282 -0.6016
13310TIP3   OH261344   6.329   5.506   5.688  0.2554  0.0765 -0.1437
13310TIP3    H161345   6.410   5.474   5.728  0.1500  0.4954  0.4164
13310TIP3    H261346   6.300   5.577   5.745 -0.2158  0.2968 -0.6420
13311TIP3   OH261347   4.636   4.718  13.132 -0.2111  0.4202 -0.3512
13311TIP3    H161348   4.692   4.683  13.200  2.1892  2.2017 -1.2472
13311TIP3    H261349   4.553   4.671  13.141  0.7479 -0.9224  2.3325
13312TIP3   OH261350   5.333   0.915   5.116  0.0862  0.2583 -0.2046
13312TIP3    H161351   5.374   0.960   5.190  1.3084  0.0540 -0.7359
13312TIP3    H261352   5.378   0.831   5.110 -0.5741 -0.0734 -0.6784
13313TIP3   OH261353   2.902   6.498  14.233  0.5571  0.4171 -0.8435
13313TIP3    H161354   2.869   6.412  14.258  0.9656 -0.0596 -1.8825
13313TIP3    H261355   2.994   6.483  14.211  0.6550  1.1406 -0.9582
13314TIP3   OH261356   0.467   2.729   4.374 -0.0324  0.2423  0.2169
13314TIP3    H161357   0.492   2.765   4.289 -0.8262  1.1098  0.3345
13314TIP3    H261358   0.522   2.775   4.437 -0.3074  0.4989  0.2736
13315TIP3   OH261359   4.839   6.149  11.400 -0.0777 -0.3213 -0.0020
13315TIP3    H161360   4.841   6.104  11.485  0.6383  1.6130  1.0650
13315TIP3    H261361   4.756   6.197  11.401  1.2361  2.1365  1.0260
13316TIP3   OH261362   2.792   6.481   1.273 -0.0628  0.2434 -0.3048
13316TIP3    H161363   2.783   6.422   1.198 -2.1633  1.6004 -1.2277
13316TIP3    H261364   2.750   6.563   1.245 -0.8352  0.8591  2.2978
13317TIP3   OH261365   5.894   5.124   4.365  0.2329 -0.5793 -0.0309
13317TIP3    H161366   5.799   5.133   4.375  0.0966 -0.6803 -1.0651
13317TIP3    H261367   5.929   5.129   4.454 -0.6574  0.4237  0.2867
13318TIP3   OH261368   2.940   2.705   4.341 -0.4546 -0.0437  0.0450
13318TIP3    H161369   2.941   2.787   4.390 -1.2556 -0.2265  0.3733
13318TIP3    H261370   2.887   2.645   4.393  0.8822 -1.0918  0.2894
13319TIP3   OH261371   0.754   0.300   2.750 -0.2736  0.3630  0.6257
13319TIP3    H161372   0.827   0.275   2.806 -1.0700 -2.0226  0.7051
13319TIP3    H261373   0.733   0.221   2.700  0.9513  2.4935 -3.8018
13320TIP3   OH261374   4.939   3.807  11.840  0.1849 -0.3615  0.4065
13320TIP3    H161375   4.879   3.859  11.787  1.4233  0.8556  0.1457
13320TIP3    H261376   4.886   3.733  11.871 -0.8177 -0.6207 -1.7522
13321TIP3   OH261377   6.791   3.203   5.811 -0.1916  0.0499 -0.2392
13321TIP3    H161378   6.720   3.146   5.840 -0.7533  1.1608  0.6558
13321TIP3    H261379   6.858   3.195   5.879 -0.9396  1.6231  0.7392
13322TIP3   OH261380   4.317   1.448  11.181 -0.3055  0.0980  0.5488
13322TIP3    H161381   4.326   1.491  11.095 -1.2053  2.6596  1.6393
13322TIP3    H261382   4.371   1.501  11.239 -0.3555 -1.1320  1.7553
13323TIP3   OH261383   1.880   0.889  16.607 -0.0555  0.2256 -0.0562
13323TIP3    H161384   1.894   0.812  16.552 -0.0298 -0.5556  1.0030
13323TIP3    H261385   1.823   0.858  16.678  0.6667  0.9550  0.8731
13324TIP3   OH261386   4.878   1.838   5.274  0.1629 -0.3470  0.4110
13324TIP3    H161387   4.939   1.910   5.258 -1.9587  1.4442 -0.1791
13324TIP3    H261388   4.867   1.836   5.369  0.8587 -0.4507  0.4920
13325TIP3   OH261389   0.574   2.554   4.039 -0.5542  0.2612 -0.1779
13325TIP3    H161390   0.546   2.463   4.047 -0.6909  0.2800 -0.4417
13325TIP3    H261391   0.494   2.605   4.047 -0.5611  0.3271 -0.6370
13326TIP3   OH261392   2.343   1.093  12.395  0.4328  0.3088 -0.6545
13326TIP3    H161393   2.323   1.124  12.484 -1.7382  1.4643 -1.4759
13326TIP3    H261394   2.294   1.011  12.387  2.5875 -1.1292 -0.0232
13327TIP3   OH261395   6.086   4.511  14.797  0.1333 -0.4075  0.1643
13327TIP3    H161396   6.014   4.528  14.736  0.9627  0.6546 -0.5682
13327TIP3    H261397   6.064   4.428  14.838 -1.4297 -0.1821 -0.1516
13328TIP3   OH261398   4.137   4.172  16.111 -0.2659  0.3207 -0.2843
13328TIP3    H161399   4.182   4.118  16.175 -0.8508  0.0224 -0.1170
13328TIP3    H261400   4.164   4.137  16.026 -0.9498 -0.5004 -0.1735
13329TIP3   OH261401   3.437   5.633   1.650 -0.1009 -0.3489 -0.0074
13329TIP3    H161402   3.455   5.607   1.560 -2.9793  0.7395 -1.0279
13329TIP3    H261403   3.387   5.559   1.687  0.4144 -0.4712  0.4638
13330TIP3   OH261404   4.680   0.532  15.614  0.3302 -0.0284  0.1200
13330TIP3    H161405   4.698   0.558  15.705  1.7993  4.2965 -1.1346
13330TIP3    H261406   4.766   0.506  15.580 -0.0785 -0.8884 -0.2860
13331TIP3   OH261407   4.679   4.434   5.743 -0.2466  0.0358 -0.2014
13331TIP3    H161408   4.734   4.356   5.747 -1.1845 -0.5955  2.1880
13331TIP3    H261409   4.739   4.504   5.720  1.0886 -1.0274 -0.1051
13332TIP3   OH261410   4.226   2.073   0.251  0.2698  0.0727 -0.3896
13332TIP3    H161411   4.259   2.065   0.161  0.8974  0.8896 -0.2350
13332TIP3    H261412   4.296   2.040   0.306  0.0751  0.0244 -0.1668
13333TIP3   OH261413   6.659   2.095  11.713 -0.7111  0.0659  0.0495
13333TIP3    H161414   6.619   2.182  11.727 -1.1653 -0.3808  1.7943
13333TIP3    H261415   6.589   2.043  11.673 -1.2534 -0.1411  1.2192
13334TIP3   OH261416   0.388   4.551   6.210 -0.1917 -0.8118  0.1189
13334TIP3    H161417   0.302   4.514   6.231 -0.8218  0.1922 -0.5780
13334TIP3    H261418   0.450   4.498   6.259 -1.2289 -1.4457  0.7783
13335TIP3   OH261419   5.866   4.541  16.429  1.1738  0.1813 -0.7518
13335TIP3    H161420   5.901   4.587  16.353  0.2973  2.0958 -0.0683
13335TIP3    H261421   5.915   4.577  16.504  1.4156 -1.0273 -0.2948
13336TIP3   OH261422   5.458   4.834   1.487 -0.4127 -0.6350  0.5562
13336TIP3    H161423   5.390   4.901   1.477  1.3716  1.1991  0.0867
13336TIP3    H261424   5.533   4.868   1.439  0.5232 -3.1234  0.1020
13337TIP3   OH261425   4.297   3.442  16.778 -0.1204 -0.2869 -0.2381
13337TIP3    H161426   4.230   3.509  16.763  0.1532  0.0335 -0.0542
13337TIP3    H261427   4.378   3.492  16.790 -0.1033 -0.5999  1.0167
13338TIP3   OH261428   0.302   1.410  16.443  0.0730 -0.4575 -0.7686
13338TIP3    H161429   0.387   1.371  16.426  0.6089 -0.4384  1.5958
13338TIP3    H261430   0.246   1.337  16.470  0.3419 -0.0415  1.0514
13339TIP3   OH261431   4.633   2.057  11.836 -0.0404  0.1296 -0.2534
13339TIP3    H161432   4.578   1.980  11.848 -0.3323  0.1903 -1.1750
13339TIP3    H261433   4.588   2.125  11.886 -0.1526 -0.1232 -0.0044
13340TIP3   OH261434   0.835   3.353   3.935  0.2202 -0.2412  0.1897
13340TIP3    H161435   0.808   3.262   3.947  2.2886 -0.9454  0.0202
13340TIP3    H261436   0.911   3.363   3.993  0.7305  1.0180 -0.6457
13341TIP3   OH261437   2.322   0.648   4.748 -0.3493  0.2894 -0.0276
13341TIP3    H161438   2.386   0.668   4.816  1.9034  0.1906 -1.9874
13341TIP3    H261439   2.325   0.723   4.689  0.8215 -1.2858 -2.1331
13342TIP3   OH261440   1.036   2.217  13.676  0.2751 -0.3813  0.7770
13342TIP3    H161441   0.988   2.239  13.597  0.9897 -0.8441  0.2023
13342TIP3    H261442   1.038   2.298  13.727 -0.6771 -0.2324  0.5894
13343TIP3   OH261443   5.764   4.236   0.390 -0.3611  0.3259 -0.6163
13343TIP3    H161444   5.710   4.310   0.361 -0.0005  1.1107  0.6825
13343TIP3    H261445   5.701   4.174   0.427 -0.5966  0.2403 -1.1458
13344TIP3   OH261446   5.622   3.928  11.077 -0.5237 -0.3453 -0.0455
13344TIP3    H161447   5.538   3.958  11.042 -0.4820 -1.1741 -0.9015
13344TIP3    H261448   5.687   3.960  11.014 -0.3831 -1.2728 -0.3871
13345TIP3   OH261449   6.746   6.264  16.716  0.4580 -0.2958 -0.0473
13345TIP3    H161450   6.686   6.311  16.657  0.6948 -2.4058 -2.1228
13345TIP3    H261451   6.776   6.190  16.664  2.3105 -1.1414  2.1103
13346TIP3   OH261452   3.630   1.220  11.427  0.0858  0.2119  0.0507
13346TIP3    H161453   3.670   1.143  11.385  1.5622 -1.0460  3.4127
13346TIP3    H261454   3.546   1.188  11.460 -0.4331  0.7974 -0.6671
13347TIP3   OH261455   5.125   3.923   4.867 -0.2411  0.2799 -0.3178
13347TIP3    H161456   5.054   3.935   4.803  0.1435 -1.0302 -1.0175
13347TIP3    H261457   5.178   4.002   4.858 -2.9562  2.6393  2.0819
13348TIP3   OH261458   1.107   1.087  10.954 -0.1950 -0.4455 -0.5558
13348TIP3    H161459   1.165   1.149  10.911  0.3089  0.1059  0.8529
13348TIP3    H261460   1.166   1.026  10.999 -0.6655  0.3302  1.1824
13349TIP3   OH261461   3.885   1.069   5.581  0.1827  0.6857 -0.4886
13349TIP3    H161462   3.840   1.065   5.497  0.3415  1.8393 -0.6413
13349TIP3    H261463   3.852   1.149   5.622 -1.3759 -0.8265  1.4116
13350TIP3   OH261464   0.429   3.386   2.077 -0.1961 -0.0202  0.2660
13350TIP3    H161465   0.474   3.350   2.000  2.1910  0.2505  1.4497
13350TIP3    H261466   0.398   3.308   2.124  1.4143 -0.4128  0.7579
13351TIP3   OH261467   2.816   0.668  12.708 -0.2215 -0.1562 -0.5578
13351TIP3    H161468   2.790   0.577  12.698  0.2247 -0.3084 -0.3042
13351TIP3    H261469   2.752   0.704  12.770  1.4591 -1.0945  1.8285
13352TIP3   OH261470   4.544   5.904  15.710 -0.0865  0.4081 -0.2444
13352TIP3    H161471   4.626   5.864  15.739  0.2129  0.4785 -0.9841
13352TIP3    H261472   4.530   5.870  15.622 -0.8169  0.4571 -0.1559
13353TIP3   OH261473   4.703   1.423  16.656 -0.6237 -0.4306  0.2068
13353TIP3    H161474   4.648   1.492  16.694  0.3191  0.2346  0.4174
13353TIP3    H261475   4.726   1.367  16.731 -2.4635 -1.7878 -0.1714
13354TIP3   OH261476   4.226   6.806   3.827  0.3181 -0.0319  0.1687
13354TIP3    H161477   4.187   6.719   3.829  0.9607 -0.4791 -2.4920
13354TIP3    H261478   4.272   6.814   3.910  0.9592 -2.5931  0.1505
13355TIP3   OH261479   1.447   4.418   1.984  0.2088 -0.1436  0.0788
13355TIP3    H161480   1.531   4.378   1.964  1.0452  1.6588 -0.2444
13355TIP3    H261481   1.386   4.375   1.924  1.1356 -0.6062 -0.5665
13356TIP3   OH261482   0.763   4.659   0.306 -0.2668 -0.3225  0.6963
13356TIP3    H161483   0.823   4.618   0.368  1.3698  1.8505  0.6728
13356TIP3    H261484   0.816   4.671   0.227 -0.7955  1.3231  0.5529
13357TIP3   OH261485   6.756   4.979   1.710  0.1569 -0.4434 -0.2218
13357TIP3    H161486   6.758   4.953   1.802 -0.8426  0.2955  0.0312
13357TIP3    H261487   6.843   5.013   1.692 -0.5860  2.9291  1.5646
13358TIP3   OH261488   1.572   2.897   2.909 -0.6238  0.1574  0.1110
13358TIP3    H161489   1.665   2.891   2.885 -0.6510 -1.8779  0.2980
13358TIP3    H261490   1.529   2.937   2.833  0.4004  1.2268  0.0671
13359TIP3   OH261491   1.551   6.239  16.988  0.2051 -0.3146  0.2726
13359TIP3    H161492   1.465   6.245  16.945  0.4412  1.8653  0.0102
13359TIP3    H261493   1.543   6.292  17.067  1.5789  0.7271 -0.2531
13360TIP3   OH261494   5.861   3.383  13.289 -0.0374 -0.1168 -0.6642
13360TIP3    H161495   5.851   3.383  13.194  1.4574 -1.1203 -0.8478
13360TIP3    H261496   5.831   3.297  13.317 -0.2082  0.0707 -0.2607
13361TIP3   OH261497   2.740   5.436   5.851 -0.1830  0.0251  0.3185
13361TIP3    H161498   2.749   5.452   5.945  3.2981 -1.4025  0.3863
13361TIP3    H261499   2.678   5.364   5.844  1.0503 -1.2253  1.7412
13362TIP3   OH261500   0.706   3.188  12.649  0.4270 -0.4610  0.3672
13362TIP3    H161501   0.618   3.151  12.651 -0.3040  1.1880  2.1707
13362TIP3    H261502   0.692   3.283  12.647  2.1796 -0.1814 -0.4004
13363TIP3   OH261503   4.285   1.898   0.625 -0.0156  0.0500 -0.6653
13363TIP3    H161504   4.379   1.907   0.645 -0.2752 -0.2995  0.8009
13363TIP3    H261505   4.241   1.916   0.708 -1.1923 -1.2373 -0.9737
13364TIP3   OH261506   1.123   6.561   4.277 -0.6944 -0.1407 -0.0773
13364TIP3    H161507   1.178   6.545   4.200  0.0222 -0.5909  0.5281
13364TIP3    H261508   1.145   6.491   4.338 -1.6616 -0.1076  0.3338
13365TIP3   OH261509   3.971   0.687  11.429  0.2591 -0.3893  0.5560
13365TIP3    H161510   4.025   0.630  11.484  3.7826 -0.3142 -2.4140
13365TIP3    H261511   3.923   0.626  11.372 -1.1064 -0.4145  1.6975
13366TIP3   OH261512   0.754   0.077  13.934 -0.0737  0.0544 -0.1595
13366TIP3    H161513   0.732   0.112  14.021  1.0778  1.5027 -0.4095
13366TIP3    H261514   0.740  -0.017  13.941  0.5243  0.0747  1.7681
13367TIP3   OH261515   4.435   2.314  15.516 -0.0309 -0.1719 -0.3300
13367TIP3    H161516   4.495   2.366  15.463 -1.3236 -0.0311 -1.7141
13367TIP3    H261517   4.365   2.289  15.456  0.0942 -2.8103  0.4842
13368TIP3   OH261518   0.337   1.880  14.261 -0.6442  0.2556 -0.0109
13368TIP3    H161519   0.325   1.862  14.354 -0.7101 -0.0536 -0.0785
13368TIP3    H261520   0.267   1.832  14.218 -0.0335 -0.3956 -0.2946
13369TIP3   OH261521   2.451   5.957  14.270  0.3856 -0.2787 -0.3956
13369TIP3    H161522   2.507   5.990  14.340  0.3046 -1.1529  0.0949
13369TIP3    H261523   2.495   5.984  14.189 -0.1627  1.8198 -0.0446
13370TIP3   OH261524   5.950   6.150  15.862 -0.3163 -0.3989 -0.0471
13370TIP3    H161525   5.920   6.228  15.910  2.1233 -0.2449  1.4167
13370TIP3    H261526   5.992   6.186  15.784 -1.4033 -0.4301 -0.6539
13371TIP3   OH261527   0.665   4.587  13.767 -0.2256  0.1962  0.2601
13371TIP3    H161528   0.668   4.670  13.721  1.6690 -0.0786 -0.1641
13371TIP3    H261529   0.578   4.552  13.748 -0.4185  1.2839 -0.9467
13372TIP3   OH261530   6.197   3.941  15.539 -0.4514 -0.0961  0.3454
13372TIP3    H161531   6.215   3.978  15.626 -1.8603 -0.0448  0.6359
13372TIP3    H261532   6.108   3.906  15.546  0.2640 -2.1917 -0.3792
13373TIP3   OH261533   6.187   2.910  15.413 -0.0117  0.6540 -0.6001
13373TIP3    H161534   6.263   2.936  15.360  0.3411  0.6605 -0.1042
13373TIP3    H261535   6.208   2.821  15.442 -0.6690  0.2603 -1.3041
13374TIP3   OH261536   4.302   4.943   5.706  0.1034  0.3359 -0.3524
13374TIP3    H161537   4.310   4.848   5.699 -0.6993  0.2906 -0.7470
13374TIP3    H261538   4.251   4.957   5.786 -0.4165  0.3992 -0.6899
13375TIP3   OH261539   0.936   4.444   0.227  0.0661  0.2295  0.3891
13375TIP3    H161540   0.921   4.429   0.320  0.6571 -0.4989  0.3734
13375TIP3    H261541   1.029   4.425   0.213 -0.2489 -0.7807 -0.5498
13376TIP3   OH261542   6.031   5.723  16.507 -0.5618 -0.1649  0.4615
13376TIP3    H161543   6.111   5.759  16.544 -1.5890  0.5762  2.0867
13376TIP3    H261544   6.059   5.643  16.463  1.1145  0.2922  0.6158
13377TIP3   OH261545   4.323   0.635  13.099 -0.0139 -0.6454 -0.1563
13377TIP3    H161546   4.405   0.659  13.142 -1.4378  2.3588  1.1922
13377TIP3    H261547   4.341   0.551  13.057  3.9852  0.2704 -0.6626
13378TIP3   OH261548   1.969   1.453  12.366 -0.5986 -0.1758  0.4670
13378TIP3    H161549   2.018   1.482  12.443 -0.3415  0.3337  0.1146
13378TIP3    H261550   2.023   1.384  12.327  0.4924  1.2579 -0.6479
13379TIP3   OH261551   2.708   1.219  10.403 -0.3539  0.1894  0.0048
13379TIP3    H161552   2.758   1.137  10.396 -1.0228 -0.1472 -1.0970
13379TIP3    H261553   2.761   1.283  10.355 -0.8891 -0.1496 -1.0952
13380TIP3   OH261554   5.798   3.288   0.826 -0.1634  0.5297 -0.4859
13380TIP3    H161555   5.770   3.353   0.762 -1.6484  1.1300  0.6990
13380TIP3    H261556   5.878   3.324   0.865  0.0346  0.7656 -1.1060
13381TIP3   OH261557   4.892   4.847   2.629 -0.1318 -0.1946 -0.3706
13381TIP3    H161558   4.984   4.852   2.656 -0.1253 -1.8721  0.0649
13381TIP3    H261559   4.895   4.805   2.543 -0.4673  0.1688 -0.5616
13382TIP3   OH261560   0.302   0.617   5.038 -0.0762  0.3532  0.2356
13382TIP3    H161561   0.378   0.627   5.096  1.1621  0.1398 -1.2797
13382TIP3    H261562   0.295   0.701   4.993 -1.1532  0.5842  0.7822
13383TIP3   OH261563   5.975   2.421   1.699 -0.1170 -0.4974 -0.4649
13383TIP3    H161564   5.893   2.390   1.660 -0.4740 -2.5908  1.6978
13383TIP3    H261565   6.036   2.348   1.688  1.3656  0.8548 -1.6129
13384TIP3   OH261566   0.001   2.765   4.839  0.5011 -0.1008  0.0598
13384TIP3    H161567  -0.052   2.720   4.904  1.2345 -1.1962 -0.0845
13384TIP3    H261568   0.090   2.735   4.855  0.8973  0.7057 -0.5405
13385TIP3   OH261569   5.646   2.393   2.980 -0.1496  0.1666  0.1019
13385TIP3    H161570   5.700   2.422   2.907  2.6362 -2.4987  0.9121
13385TIP3    H261571   5.663   2.458   3.049  0.0735  0.6990 -0.4413
13386TIP3   OH261572   2.395   3.947  13.419 -0.2305  0.1171 -0.2294
13386TIP3    H161573   2.448   3.929  13.497 -0.5308 -0.5904 -0.1763
13386TIP3    H261574   2.455   3.990  13.359 -0.0153  0.7383  0.4198
13387TIP3   OH261575   2.598   4.078   5.426 -0.3152  0.4273  0.9316
13387TIP3    H161576   2.524   4.053   5.481  0.5097  2.0493  2.9244
13387TIP3    H261577   2.675   4.051   5.477  0.5262 -0.8544 -0.9125
13388TIP3   OH261578   3.902   1.262  12.230  0.0031  0.8213  0.2802
13388TIP3    H161579   3.965   1.333  12.234 -0.1249  0.8939  1.4851
13388TIP3    H261580   3.844   1.276  12.306 -0.1837 -0.4000  0.3985
13389TIP3   OH261581   3.695   5.568  15.770 -0.2293  0.1196  0.0059
13389TIP3    H161582   3.769   5.525  15.727  0.0218  0.1224  0.4259
13389TIP3    H261583   3.634   5.589  15.699  0.4990  0.7721 -0.4471
13390TIP3   OH261584   1.862   3.199   3.566 -0.4459 -0.1501  0.0578
13390TIP3    H161585   1.861   3.104   3.577  0.6493 -0.3860 -1.4663
13390TIP3    H261586   1.950   3.218   3.532 -0.2523  1.5549  1.3875
13391TIP3   OH261587   4.815   2.420   6.572  0.3507 -0.5616  0.2779
13391TIP3    H161588   4.725   2.415   6.539  0.3177 -1.4348  0.4775
13391TIP3    H261589   4.844   2.508   6.549 -0.8489  0.0381  0.9604
13392TIP3   OH261590   6.322   6.461   1.956  0.0267 -0.0447  0.3454
13392TIP3    H161591   6.301   6.549   1.987  1.3205  0.5536 -0.3972
13392TIP3    H261592   6.408   6.442   1.995 -0.6722 -1.4165  1.3298
13393TIP3   OH261593   4.915   3.922   3.786  0.3123  0.8839 -0.1409
13393TIP3    H161594   4.887   3.894   3.699  1.1677  0.3759 -0.2725
13393TIP3    H261595   4.843   3.975   3.820  0.1750  1.4911 -1.3508
13394TIP3   OH261596   1.295   1.216   3.284 -0.4708 -0.4919 -0.2508
13394TIP3    H161597   1.285   1.308   3.260  1.3605  0.2676  1.5394
13394TIP3    H261598   1.390   1.201   3.278 -0.5046 -1.6280  1.4590
13395TIP3   OH261599   0.877   3.108  12.874 -0.4885  0.5428  0.1889
13395TIP3    H161600   0.959   3.066  12.850 -1.5651 -1.9072  0.5549
13395TIP3    H261601   0.832   3.124  12.791  1.1040  3.7917 -0.2038
13396TIP3   OH261602   0.915   5.498   6.088 -0.4027 -0.6722  0.1812
13396TIP3    H161603   0.992   5.486   6.032  0.0640  1.2256  0.3556
13396TIP3    H261604   0.946   5.551   6.161 -1.6705 -0.6532  0.7407
13397TIP3   OH261605   3.921   4.621  13.002  0.1017  0.2332  0.1812
13397TIP3    H161606   3.960   4.547  13.047 -0.0276  0.7138  1.1051
13397TIP3    H261607   3.841   4.640  13.051 -0.3060  0.4542 -0.5512
13398TIP3   OH261608   3.240   0.613  16.458 -0.1241 -0.3660  0.0695
13398TIP3    H161609   3.250   0.518  16.466 -2.6399 -0.7873 -0.9226
13398TIP3    H261610   3.276   0.633  16.371  0.7961 -0.3044  0.4490
13399TIP3   OH261611   1.216   3.696  15.973  0.7447  0.0864  0.0961
13399TIP3    H161612   1.219   3.685  16.068  1.1186  0.5415  0.1394
13399TIP3    H261613   1.220   3.607  15.938 -0.0750 -0.1305  0.5191
13400TIP3   OH261614   4.512   1.224   2.774  0.2865  0.3624 -0.4702
13400TIP3    H161615   4.477   1.308   2.803  0.2868  0.4594 -0.7455
13400TIP3    H261616   4.577   1.201   2.840 -0.0249  0.3635 -0.1600
13401TIP3   OH261617   3.087   4.589  13.894  0.5548 -0.1605 -0.7869
13401TIP3    H161618   3.062   4.666  13.943  0.5266  0.0562 -1.1380
13401TIP3    H261619   3.119   4.527  13.960  0.8787  0.2692 -0.5407
13402TIP3   OH261620   3.728   5.418  10.829 -0.0736  0.3519  0.1903
13402TIP3    H161621   3.701   5.342  10.777  0.3433  0.3282  0.0020
13402TIP3    H261622   3.647   5.451  10.867 -0.3103  0.0446 -0.0404
13403TIP3   OH261623   4.602   3.299   0.847  0.3127  0.2601 -0.0779
13403TIP3    H161624   4.567   3.228   0.900 -0.2380  1.2114  0.8709
13403TIP3    H261625   4.635   3.363   0.911 -1.1838  1.8436 -0.8283
13404TIP3   OH261626   5.060   4.192  11.796 -0.0338 -0.3176  0.2968
13404TIP3    H161627   5.044   4.157  11.708  1.5574 -1.3972  0.3952
13404TIP3    H261628   5.122   4.264  11.781 -1.6282  1.1201  0.3235
13405TIP3   OH261629   2.765   1.673   5.374  0.1436  0.2523 -0.6478
13405TIP3    H161630   2.760   1.588   5.331  0.6349 -0.0902 -0.0379
13405TIP3    H261631   2.787   1.653   5.465 -0.2734  1.0003 -0.3736
13406TIP3   OH261632   0.460   1.973   4.293 -0.1398  0.3258  0.0907
13406TIP3    H161633   0.482   1.900   4.235  0.1721  0.1244  0.4560
13406TIP3    H261634   0.367   1.962   4.311  0.2820 -1.0759  1.6206
13407TIP3   OH261635   5.019   0.017  14.853 -0.5345  0.0469 -0.1778
13407TIP3    H161636   5.069   0.002  14.934 -1.3023 -1.0421  0.1183
13407TIP3    H261637   5.030  -0.063  14.803 -2.2429 -0.3777  0.0507
13408TIP3   OH261638   3.181   0.720  13.675  0.2825 -0.1805 -0.2804
13408TIP3    H161639   3.150   0.806  13.705  0.4168 -0.2977  0.2039
13408TIP3    H261640   3.179   0.666  13.754  0.2484 -0.6087 -0.5737
13409TIP3   OH261641   3.061   6.604  12.150  0.2033 -0.5494  0.6362
13409TIP3    H161642   3.141   6.639  12.111  0.0720 -0.7177  0.2013
13409TIP3    H261643   3.028   6.543  12.084 -0.9382  0.4197  0.2806
13410TIP3   OH261644   0.601   2.526   2.075  0.0298  0.0619  0.1917
13410TIP3    H161645   0.540   2.452   2.068 -0.9202  1.0215 -3.1895
13410TIP3    H261646   0.682   2.494   2.035  0.2798  0.2737  0.5186
13411TIP3   OH261647   0.537   6.511  11.404  0.2959 -0.5549 -0.3960
13411TIP3    H161648   0.558   6.456  11.480  0.3922 -1.1919 -0.8729
13411TIP3    H261649   0.578   6.466  11.330 -1.2978 -0.9067 -1.1097
13412TIP3   OH261650   4.506   6.057  16.612  0.3054  0.5586 -0.0863
13412TIP3    H161651   4.544   6.097  16.534 -2.2005  1.0625 -1.1346
13412TIP3    H261652   4.490   5.966  16.587  0.1529  0.5361  0.0896
13413TIP3   OH261653   1.664   1.173   5.419 -0.0423 -0.0653  0.3202
13413TIP3    H161654   1.649   1.193   5.511 -0.4621 -1.1390  0.5056
13413TIP3    H261655   1.594   1.219   5.373 -0.8656 -0.8790  0.7132
13414TIP3   OH261656   6.137   2.646  14.307 -0.4266 -0.5354  0.7368
13414TIP3    H161657   6.109   2.705  14.377 -1.2256  1.0852 -0.8362
13414TIP3    H261658   6.227   2.672  14.288 -0.5161 -0.3427  0.5682
13415TIP3   OH261659   0.332   4.285   1.257 -0.0145 -0.3859 -0.3377
13415TIP3    H161660   0.398   4.294   1.326  0.3737 -0.8398 -0.6405
13415TIP3    H261661   0.258   4.242   1.300 -0.2825  0.4994  0.1054
13416TIP3   OH261662   0.295   4.965   2.844  0.4763 -0.5297 -0.3441
13416TIP3    H161663   0.297   5.015   2.925 -1.5314 -0.6626 -0.1489
13416TIP3    H261664   0.313   5.030   2.775  2.4286 -0.4655  0.1781
13417TIP3   OH261665   2.010   1.666   2.978  0.1441  0.3062 -0.2629
13417TIP3    H161666   1.973   1.744   2.937 -3.1574 -1.0723 -0.1882
13417TIP3    H261667   1.996   1.596   2.914  2.5893 -0.4131 -0.1236
13418TIP3   OH261668   6.448   4.851  16.717 -0.4524  0.2758 -0.5346
13418TIP3    H161669   6.521   4.796  16.747 -0.6454  0.3813  0.1348
13418TIP3    H261670   6.483   4.897  16.641  0.2911  0.5747 -0.0177
13419TIP3   OH261671   1.612   3.101  14.649 -0.2716  0.2140  0.0909
13419TIP3    H161672   1.694   3.092  14.697  0.5409 -0.9810 -1.4153
13419TIP3    H261673   1.585   3.192  14.663  0.5425  0.2331  1.7551
13420TIP3   OH261674   0.443   5.038  13.996  0.3497 -0.1564 -0.3396
13420TIP3    H161675   0.536   5.058  13.986  0.6079 -0.7462  0.7234
13420TIP3    H261676   0.401   5.123  14.005  0.8031  0.1094 -0.7057
13421TIP3   OH261677   5.543   3.730   0.389 -0.2596  0.1614 -0.3547
13421TIP3    H161678   5.486   3.676   0.443 -2.5595  1.3652 -1.4594
13421TIP3    H261679   5.632   3.707   0.418 -1.2678 -1.5082  1.6799
13422TIP3   OH261680   3.061   4.881   5.693 -0.3479 -0.8388  0.6505
13422TIP3    H161681   3.098   4.834   5.619  0.1495  1.1699 -0.4220
13422TIP3    H261682   3.130   4.879   5.760  1.1614  1.4226 -0.7201
13423TIP3   OH261683   2.968   4.973  16.307  0.2253 -0.0536  0.0555
13423TIP3    H161684   2.971   4.938  16.395 -0.1896  1.1798  0.5837
13423TIP3    H261685   3.024   5.051  16.309 -1.6774  1.3979 -0.0701
13424TIP3   OH261686   4.542   2.234  10.402 -0.0479 -0.1669 -0.0639
13424TIP3    H161687   4.499   2.167  10.349 -0.8008  0.1222  0.1653
13424TIP3    H261688   4.503   2.316  10.374 -0.4513 -0.0043  0.9215
13425TIP3   OH261689   2.729   0.767   2.183  0.2955 -0.2021  0.4549
13425TIP3    H161690   2.739   0.757   2.277 -2.0263 -0.0713  0.7702
13425TIP3    H261691   2.634   0.768   2.168  0.5848 -1.3885 -2.0072
13426TIP3   OH261692   3.233   2.109   4.916  0.0983 -0.3772  0.5829
13426TIP3    H161693   3.254   2.193   4.956  0.4672 -2.1495  4.5345
13426TIP3    H261694   3.313   2.058   4.921  0.2812 -0.7193 -2.9715
13427TIP3   OH261695   3.870   2.377  13.926  0.4949 -0.0621  0.0644
13427TIP3    H161696   3.842   2.444  13.863 -0.2184 -1.3035 -0.9921
13427TIP3    H261697   3.804   2.380  13.995 -0.4381 -0.7384 -0.7785
13428TIP3   OH261698   2.527   2.252  17.077 -0.0742 -0.1768 -0.3463
13428TIP3    H161699   2.589   2.192  17.117 -0.7534 -3.3845 -3.5362
13428TIP3    H261700   2.574   2.290  17.002 -0.7968  0.3103 -0.5679
13429TIP3   OH261701   2.352   6.072   1.954 -0.1859  0.3386 -0.0174
13429TIP3    H161702   2.324   6.123   2.030 -0.1200  0.3460  0.0018
13429TIP3    H261703   2.317   6.121   1.879 -2.8299 -1.1996  0.0776
13430TIP3   OH261704   2.577   4.819  13.820 -0.1480 -0.4517 -0.0180
13430TIP3    H161705   2.621   4.898  13.787  0.6147 -1.1453 -0.6979
13430TIP3    H261706   2.538   4.847  13.903 -1.7756  1.2357 -1.2587
13431TIP3   OH261707   3.480   1.953  13.702 -0.1923  0.4611  0.0459
13431TIP3    H161708   3.482   1.863  13.669 -0.2722 -0.1047  1.5361
13431TIP3    H261709   3.571   1.972  13.723 -0.1270  0.8636 -0.5618
13432TIP3   OH261710   4.115   4.654   3.360  0.3530  0.3511 -0.0943
13432TIP3    H161711   4.071   4.712   3.422  0.1957  1.3136 -1.0665
13432TIP3    H261712   4.176   4.602   3.413 -1.2947 -0.3849  1.1625
13433TIP3   OH261713   5.357   3.820   3.243  0.0511 -0.4887  0.1137
13433TIP3    H161714   5.326   3.897   3.195 -2.4441 -1.9679 -0.8532
13433TIP3    H261715   5.338   3.841   3.335  0.9497  0.6786  0.0574
13434TIP3   OH261716   4.759   3.953  16.941 -0.4253  0.6900  0.5006
13434TIP3    H161717   4.851   3.939  16.962 -1.1941 -1.0634  3.2717
13434TIP3    H261718   4.725   3.865  16.922 -1.7060  1.1695  0.4594
13435TIP3   OH261719   2.651   6.044   3.258  0.7816  0.6031  0.3896
13435TIP3    H161720   2.649   5.950   3.240 -0.3663  0.6696  0.1130
13435TIP3    H261721   2.694   6.052   3.343 -0.1047 -0.2528  0.9293
13436TIP3   OH261722   3.023   5.828  16.591  0.7840 -0.3087  0.2678
13436TIP3    H161723   3.112   5.845  16.561  0.3791  1.6342  0.0410
13436TIP3    H261724   3.025   5.738  16.623  2.6255 -0.5571 -0.4303
13437TIP3   OH261725   6.148   2.074   1.138 -0.0206 -0.2514 -0.0972
13437TIP3    H161726   6.136   2.112   1.051 -1.6367  0.1631  0.2787
13437TIP3    H261727   6.194   2.141   1.188  0.1561 -0.1573 -0.3852
13438TIP3   OH261728   5.303   0.062  14.220 -0.1990  0.1212 -0.1947
13438TIP3    H161729   5.288  -0.030  14.242 -2.4564  0.1390 -1.3420
13438TIP3    H261730   5.342   0.060  14.132 -1.0110  0.2567 -0.5665
13439TIP3   OH261731   1.682   6.228  11.342  0.3545 -0.6196 -0.4292
13439TIP3    H161732   1.727   6.312  11.343 -3.0026  1.4168 -1.1839
13439TIP3    H261733   1.659   6.212  11.433 -0.3392  0.1454 -0.4580
13440TIP3   OH261734   3.630   0.718   1.361  0.2738 -0.2110  0.1653
13440TIP3    H161735   3.556   0.667   1.395  0.8453 -0.6507  0.7706
13440TIP3    H261736   3.602   0.809   1.371 -0.9673 -0.3783 -1.4062
13441TIP3   OH261737   0.569   6.584  15.023 -0.3107  0.0774  0.2205
13441TIP3    H161738   0.488   6.636  15.027 -0.1687  0.2812  0.5106
13441TIP3    H261739   0.579   6.550  15.112  2.4853  4.0020  1.6672
13442TIP3   OH261740   6.638   6.151  15.885  0.1145 -0.0761 -0.1554
13442TIP3    H161741   6.606   6.197  15.807 -0.4036  0.5813  0.4329
13442TIP3    H261742   6.635   6.217  15.954 -0.9040 -1.0674  0.7763
13443TIP3   OH261743   2.553   2.160   1.997  0.6723  0.7223 -0.3482
13443TIP3    H161744   2.511   2.094   2.052  0.5032  0.0938 -1.1920
13443TIP3    H261745   2.600   2.216   2.057  1.1013 -0.3854  0.3766
13444TIP3   OH261746   0.944   1.813   2.156 -0.4928  0.4624  0.5461
13444TIP3    H161747   0.925   1.890   2.210  0.6917  0.7752  0.5453
13444TIP3    H261748   0.890   1.826   2.077 -1.0481  0.7864  0.9706
13445TIP3   OH261749   6.161   3.480  11.970 -0.7050  0.0780  0.3899
13445TIP3    H161750   6.201   3.409  11.919 -0.6254 -0.6160  1.3990
13445TIP3    H261751   6.180   3.459  12.061 -0.8171  1.3273  0.7269
13446TIP3   OH261752   4.174   4.857  16.913  0.3637 -0.2665 -0.4300
13446TIP3    H161753   4.223   4.939  16.901  1.0275 -0.8278 -1.7593
13446TIP3    H261754   4.234   4.800  16.961  0.0456 -0.1172  0.1550
13447TIP3   OH261755   5.395   4.276   0.703  0.0448  0.0269 -0.2352
13447TIP3    H161756   5.333   4.249   0.636  0.2122 -2.4102  0.4744
13447TIP3    H261757   5.481   4.266   0.661  0.0640  1.5206 -0.6007
13448TIP3   OH261758   4.680   6.109  16.363  0.0575  0.1350  0.2192
13448TIP3    H161759   4.747   6.176  16.352 -0.0513  0.2467  0.2387
13448TIP3    H261760   4.717   6.049  16.428  0.1353  0.1993  0.2348
13449TIP3   OH261761   1.229   1.247  14.921  0.5148  0.4422  0.2631
13449TIP3    H161762   1.135   1.231  14.912  0.7157  0.1682 -1.9546
13449TIP3    H261763   1.241   1.337  14.891  0.5865  1.7678  3.8538
13450TIP3   OH261764   0.397   3.325   3.523  0.0739 -0.3933  0.1130
13450TIP3    H161765   0.314   3.296   3.485 -1.3962  3.2498  0.1546
13450TIP3    H261766   0.449   3.353   3.447 -0.4617  1.1966  0.2884
13451TIP3   OH261767   5.733   2.550   3.176 -0.0831 -0.1124  0.5946
13451TIP3    H161768   5.757   2.615   3.110 -0.8083  0.1088  0.5387
13451TIP3    H261769   5.677   2.598   3.238  0.8334 -0.2357  1.5432
13452TIP3   OH261770   2.219   0.387   2.958  0.4876  0.1663 -0.7642
13452TIP3    H161771   2.165   0.327   2.907  0.2865 -0.0327 -0.3231
13452TIP3    H261772   2.307   0.379   2.920  1.0729 -2.3339  0.8706
13453TIP3   OH261773   2.562   4.544  11.317 -0.3472  0.4708 -0.0999
13453TIP3    H161774   2.504   4.579  11.386 -1.5790  0.0862 -0.9110
13453TIP3    H261775   2.529   4.456  11.300 -0.6399  0.8752 -1.8006
13454TIP3   OH261776   1.641   4.037  10.281 -0.1848 -0.2002 -0.6313
13454TIP3    H161777   1.611   3.953  10.248 -0.6953 -0.1828 -0.2054
13454TIP3    H261778   1.577   4.062  10.348  0.8945 -0.2829  0.4662
13455TIP3   OH261779   1.423   1.685   1.523  0.5026  0.1328 -0.2486
13455TIP3    H161780   1.389   1.747   1.459  0.3851  0.3978  0.0645
13455TIP3    H261781   1.346   1.639   1.556  0.6643 -0.7460 -1.0469
13456TIP3   OH261782   2.885   0.659  16.380  0.2940 -0.0583  1.2730
13456TIP3    H161783   2.825   0.635  16.451  1.1099 -1.6635  1.4638
13456TIP3    H261784   2.935   0.733  16.415 -1.3724  1.1687  1.1885
13457TIP3   OH261785   0.317   4.503   2.946  0.8480 -0.3736  0.6133
13457TIP3    H161786   0.233   4.530   2.982  0.6212  0.6557 -0.6076
13457TIP3    H261787   0.304   4.411   2.922  0.4968 -0.5923  1.5934
13458TIP3   OH261788   0.323   6.081  12.350 -0.7227  0.7272 -0.4634
13458TIP3    H161789   0.262   6.027  12.399 -1.6745  0.2822 -2.0842
13458TIP3    H261790   0.282   6.168  12.347 -0.4922  0.8458 -0.1517
13459TIP3   OH261791   3.869   0.614   0.049  0.7239 -0.0588  0.2030
13459TIP3    H161792   3.808   0.643  -0.020  1.7092  0.1387 -0.6045
13459TIP3    H261793   3.948   0.589   0.002  0.6277 -2.1839  1.0615
13460TIP3   OH261794   3.282   0.950   4.023 -0.6249  0.2119  0.5549
13460TIP3    H161795   3.215   0.928   4.087 -1.0756 -0.5166 -0.1463
13460TIP3    H261796   3.342   0.875   4.024 -1.8692 -0.9216 -1.4562
13461TIP3   OH261797   1.559   6.119  13.575 -0.2725  0.1344  0.1561
13461TIP3    H161798   1.538   6.177  13.648 -0.2595 -0.0119  0.2753
13461TIP3    H261799   1.495   6.049  13.579  0.5924 -0.6344  0.8883
13462TIP3   OH261800   0.348   5.495  11.651 -0.2000  0.1617  0.2353
13462TIP3    H161801   0.375   5.451  11.570 -0.9023 -0.1955  0.1813
13462TIP3    H261802   0.318   5.423  11.707  2.1618  0.1571  1.6203
13463TIP3   OH261803   5.141   3.921   3.935 -0.4300  0.4031 -0.1795
13463TIP3    H161804   5.057   3.923   3.888 -0.4110 -3.2998 -0.6278
13463TIP3    H261805   5.120   3.882   4.020  0.8450 -0.9613 -0.4499
13464TIP3   OH261806   5.392   3.334  13.621  0.0636 -0.0920 -0.6773
13464TIP3    H161807   5.429   3.420  13.639  1.5288 -0.3194 -2.3347
13464TIP3    H261808   5.299   3.342  13.644  0.2236  1.8430 -0.5718
13465TIP3   OH261809   5.818   1.448   0.378 -0.0890 -0.1071  0.4661
13465TIP3    H161810   5.913   1.450   0.392  0.4375  0.8628 -2.5246
13465TIP3    H261811   5.781   1.489   0.456  1.9448 -0.3151  1.6106
13466TIP3   OH261812   0.181   1.945   0.456 -0.0635  0.2106 -0.0435
13466TIP3    H161813   0.205   1.955   0.548  0.5656 -0.9316 -0.0714
13466TIP3    H261814   0.098   1.898   0.457  0.0341  0.0389 -0.0694
13467TIP3   OH261815   0.384   0.296   6.106 -0.1794 -0.1399  0.2120
13467TIP3    H161816   0.339   0.261   6.029 -1.0949  1.9198 -0.2617
13467TIP3    H261817   0.420   0.379   6.077  1.8417 -0.5831  1.2932
13468TIP3   OH261818   1.682   2.286  16.026 -0.0934  0.6329  0.3048
13468TIP3    H161819   1.640   2.348  16.085  2.0295  1.1198  1.4052
13468TIP3    H261820   1.752   2.335  15.984  0.5243 -0.5634 -0.1274
13469TIP3   OH261821   6.646   4.524   0.338  0.6553  0.2118 -0.1983
13469TIP3    H161822   6.598   4.480   0.408  1.0855  0.2936  0.1547
13469TIP3    H261823   6.591   4.513   0.260  0.2409 -0.0016  0.1212
13470TIP3   OH261824   5.808   1.403   2.543 -0.0067 -0.2468 -0.0052
13470TIP3    H161825   5.748   1.478   2.545 -1.0357 -1.0314 -0.4826
13470TIP3    H261826   5.768   1.342   2.481  1.8908 -0.3102 -1.2242
13471TIP3   OH261827   4.646   5.465   3.304 -0.2817 -0.1485  0.3434
13471TIP3    H161828   4.608   5.503   3.224 -0.0600 -1.0007 -0.1861
13471TIP3    H261829   4.614   5.520   3.375  0.6220  1.4547 -0.4550
13472TIP3   OH261830   1.694   1.015  16.465  0.4439 -0.3446  0.3694
13472TIP3    H161831   1.775   0.988  16.509  1.1605 -1.1596 -1.3663
13472TIP3    H261832   1.681   0.950  16.396 -1.1904  0.3159 -0.0039
13473TIP3   OH261833   6.224   0.503   1.411  0.6025 -0.1443  0.3308
13473TIP3    H161834   6.252   0.519   1.321  0.5598 -1.1265  0.1349
13473TIP3    H261835   6.184   0.585   1.438 -3.3445 -1.0384 -2.0149
13474TIP3   OH261836   6.114   6.256  14.644 -0.2707  0.0777  0.2443
13474TIP3    H161837   6.127   6.351  14.640 -2.2356  0.4559  1.5875
13474TIP3    H261838   6.107   6.229  14.553  2.2995  0.8485 -0.2754
13475TIP3   OH261839   2.871   5.433   0.531  0.1327 -0.4032 -0.4559
13475TIP3    H161840   2.803   5.403   0.471 -0.0404  1.4811 -1.2787
13475TIP3    H261841   2.884   5.360   0.591 -3.7777 -0.3234  0.7711
13476TIP3   OH261842   0.390   3.898  13.679  0.2013  0.2086 -0.0812
13476TIP3    H161843   0.464   3.920  13.737 -1.6533  0.8983  2.1540
13476TIP3    H261844   0.375   3.805  13.694  0.6399  0.0447 -0.6118
13477TIP3   OH261845   0.093   1.188   5.619  0.1782  0.0285 -0.4456
13477TIP3    H161846   0.116   1.100   5.590  1.4150  0.2287 -0.1218
13477TIP3    H261847   0.172   1.240   5.602  0.2622  0.5792  1.4530
13478TIP3   OH261848   5.404   0.424  11.462 -0.4209 -0.2199  0.6877
13478TIP3    H161849   5.479   0.470  11.425 -0.3620 -1.8566 -1.4309
13478TIP3    H261850   5.410   0.439  11.556  0.4752  2.6861  0.2716
13479TIP3   OH261851   5.670   6.489  16.752 -0.0635 -0.3857  0.2117
13479TIP3    H161852   5.634   6.473  16.664 -1.5670 -1.9022  1.0433
13479TIP3    H261853   5.695   6.403  16.784  1.1628  0.2409  1.0210
13480TIP3   OH261854   5.123   1.808   2.312  0.1851  0.3191  0.3017
13480TIP3    H161855   5.177   1.788   2.388  0.7278 -1.2565 -0.4640
13480TIP3    H261856   5.084   1.893   2.332  1.8146  0.8224  1.4949
13481TIP3   OH261857   3.550   1.128  13.267  0.9603 -0.0707  0.1606
13481TIP3    H161858   3.642   1.123  13.295  2.7584 -0.6048 -4.8294
13481TIP3    H261859   3.531   1.221  13.265  2.2820  0.2181 -0.9066
13482TIP3   OH261860   4.242   2.100  14.328 -0.8010 -0.0976  0.3089
13482TIP3    H161861   4.178   2.167  14.348 -0.3317  0.4066  0.1350
13482TIP3    H261862   4.253   2.052  14.411 -3.8001 -2.3203 -0.3983
13483TIP3   OH261863   0.222   5.317   2.895 -0.0419  0.0964 -0.4898
13483TIP3    H161864   0.289   5.355   2.838 -1.3114  2.4914 -0.5027
13483TIP3    H261865   0.139   5.347   2.857 -0.9595  1.3217  2.2685
13484TIP3   OH261866   4.060   2.483  11.415 -0.2052 -0.5214  0.5459
13484TIP3    H161867   4.063   2.394  11.451 -0.1484 -0.5786  0.4004
13484TIP3    H261868   4.004   2.475  11.337 -1.1922 -0.1960  1.2020
13485TIP3   OH261869   2.429   4.332   0.324  0.2004 -0.1476 -0.1554
13485TIP3    H161870   2.509   4.359   0.278  1.3810 -0.1809  1.7789
13485TIP3    H261871   2.390   4.414   0.355 -0.2529 -0.1718 -0.6421
13486TIP3   OH261872   3.173   1.557   5.174 -0.2985 -0.1768 -0.6498
13486TIP3    H161873   3.195   1.647   5.149 -2.1185  0.5875  0.3547
13486TIP3    H261874   3.140   1.517   5.093  1.2614 -0.2525 -1.2981
13487TIP3   OH261875   6.399   3.270  15.932  0.6935  0.2497  0.2345
13487TIP3    H161876   6.347   3.200  15.970  1.5790 -0.4171  0.2531
13487TIP3    H261877   6.387   3.261  15.838  2.3052 -1.1650  0.1227
13488TIP3   OH261878   1.220   2.212   3.685  0.0412  0.4214  0.5062
13488TIP3    H161879   1.226   2.183   3.776 -0.5393 -0.4420  0.2838
13488TIP3    H261880   1.142   2.267   3.682  0.0604  0.4500  0.5311
13489TIP3   OH261881   3.049   6.147   2.620 -0.2593  0.4014  0.0160
13489TIP3    H161882   3.013   6.233   2.595 -2.4469 -0.2992  0.5800
13489TIP3    H261883   3.137   6.167   2.653  0.3244  2.0885 -2.2890
13490TIP3   OH261884   4.643   5.106   2.181  0.5538  0.3172 -0.3707
13490TIP3    H161885   4.574   5.125   2.245  1.0385 -0.3580  0.3751
13490TIP3    H261886   4.681   5.023   2.211  2.2041  1.0558 -0.3047
13491TIP3   OH261887   3.824   5.135   3.727 -0.2040  0.3879  0.1814
13491TIP3    H161888   3.803   5.043   3.742  1.6485  0.3075  2.9813
13491TIP3    H261889   3.745   5.183   3.752 -0.5244 -0.3287  0.5658
13492TIP3   OH261890   5.733   5.517  15.989 -0.1770 -0.4216  0.3663
13492TIP3    H161891   5.754   5.514  16.083  1.2576 -2.0063  0.0237
13492TIP3    H261892   5.815   5.542  15.947 -1.1210  1.5320 -0.4276
13493TIP3   OH261893   4.335   4.276  14.118 -0.2019 -0.2929 -0.6519
13493TIP3    H161894   4.286   4.193  14.120  0.6083 -0.7696  0.9717
13493TIP3    H261895   4.424   4.250  14.095  0.1543  0.0456  0.2941
13494TIP3   OH261896   2.697   1.775  16.905  0.1846  0.1819 -0.1229
13494TIP3    H161897   2.664   1.777  16.995  0.4802 -0.7438  0.0191
13494TIP3    H261898   2.788   1.806  16.912  1.0476 -2.2504  0.3187
13495TIP3   OH261899   4.180   2.578  11.738  0.6016  0.0818  0.0943
13495TIP3    H161900   4.094   2.540  11.723  1.1957 -1.0449 -0.6149
13495TIP3    H261901   4.188   2.647  11.672 -0.7097  1.9562  1.7500
13496TIP3   OH261902   0.629   5.543   2.660 -0.3273  0.0488  0.4115
13496TIP3    H161903   0.718   5.509   2.668 -0.0048  1.0305  1.1961
13496TIP3    H261904   0.604   5.524   2.570  0.2618 -1.2051  0.4979
13497TIP3   OH261905   1.337   4.083   1.699 -0.0141  0.1298 -0.6034
13497TIP3    H161906   1.294   4.099   1.615 -1.4572 -1.3969 -0.2127
13497TIP3    H261907   1.320   3.991   1.718 -0.3520  0.5864  1.6884
13498TIP3   OH261908   0.737   3.942  10.992 -0.0662  0.1688 -0.1854
13498TIP3    H161909   0.800   3.886  10.946  1.2679 -0.0190  1.7440
13498TIP3    H261910   0.786   3.974  11.068 -1.6440  1.8353  0.1650
13499TIP3   OH261911   4.252   3.046   6.470 -0.5989  0.2851  0.2771
13499TIP3    H161912   4.234   3.024   6.379  0.7099 -0.3940  0.1588
13499TIP3    H261913   4.174   3.094   6.499 -0.1005  2.6495 -1.8810
13500TIP3   OH261914   4.299   1.653   5.442 -0.0718 -0.6311  0.6291
13500TIP3    H161915   4.308   1.747   5.428 -2.6652 -0.3859  0.0554
13500TIP3    H261916   4.244   1.646   5.521 -2.1582 -1.5085 -0.8045
13501TIP3   OH261917   2.275   0.958  13.279 -0.3910 -0.3487 -0.5289
13501TIP3    H161918   2.203   1.014  13.310 -0.1683 -0.0770 -0.5031
13501TIP3    H261919   2.232   0.895  13.221 -0.5659  0.1957 -1.0018
13502TIP3   OH261920   2.157   2.459   2.001  0.4775 -0.4591 -0.0115
13502TIP3    H161921   2.177   2.553   2.005  1.1613 -0.5761 -0.4786
13502TIP3    H261922   2.226   2.417   2.051  0.8812 -0.8005 -0.8328
13503TIP3   OH261923   3.254   5.304  14.989 -0.4019 -0.4960  0.7038
13503TIP3    H161924   3.250   5.327  14.896 -0.4570 -1.0304  0.5702
13503TIP3    H261925   3.231   5.384  15.035 -0.4502 -0.2502  0.2525
13504TIP3   OH261926   3.692   1.206  16.092 -0.3054 -0.2902 -0.0184
13504TIP3    H161927   3.714   1.262  16.166 -0.6997 -1.1268  0.7442
13504TIP3    H261928   3.616   1.156  16.121 -0.4576 -0.6540 -0.9862
13505TIP3   OH261929   4.414   0.688   0.807 -0.0248 -0.3537 -0.4712
13505TIP3    H161930   4.372   0.774   0.799 -0.3102 -0.4469  0.0055
13505TIP3    H261931   4.472   0.683   0.731  3.3622  2.1525  1.6727
13506TIP3   OH261932   1.651   2.649   2.208 -0.0431 -0.0934  0.1602
13506TIP3    H161933   1.738   2.611   2.220  0.7209  0.8309 -1.9254
13506TIP3    H261934   1.627   2.627   2.118 -3.4479 -3.0616  1.5728
13507TIP3   OH261935   0.222   0.998   1.667  0.3840  0.1498 -0.3416
13507TIP3    H161936   0.224   1.054   1.745  1.6456  0.5545 -0.6520
13507TIP3    H261937   0.242   1.057   1.594  0.3497 -0.4449 -0.8406
13508TIP3   OH261938   1.774   0.315   3.859 -0.0960 -0.0862 -0.1580
13508TIP3    H161939   1.766   0.225   3.826 -0.0090  0.2685 -1.1582
13508TIP3    H261940   1.800   0.304   3.951 -1.9019 -1.1141  0.2738
13509TIP3   OH261941   3.247   5.357   5.518  0.3701  0.2427  0.1437
13509TIP3    H161942   3.280   5.295   5.582  2.8053  1.0831 -0.1955
13509TIP3    H261943   3.230   5.437   5.568 -2.1254 -0.3975  0.4617
13510TIP3   OH261944   3.388   0.170  15.217  0.2616 -0.0149  0.0925
13510TIP3    H161945   3.380   0.264  15.204 -1.1640 -0.1461 -0.1962
13510TIP3    H261946   3.340   0.131  15.144  1.5768 -1.0009 -0.2950
13511TIP3   OH261947   5.618   6.316  12.528 -1.2763  0.0200  0.2830
13511TIP3    H161948   5.616   6.408  12.502 -0.3167 -0.4828 -1.7328
13511TIP3    H261949   5.671   6.315  12.608  1.2982  0.9344 -1.2822
13512TIP3   OH261950   0.642   2.712  13.904  0.1658 -0.5253  0.0374
13512TIP3    H161951   0.649   2.795  13.857  1.1804 -0.6044  0.0356
13512TIP3    H261952   0.549   2.691  13.900 -0.2189  0.9288  0.5950
13513TIP3   OH261953   5.612   0.717  16.942  0.0299 -0.6352 -0.3003
13513TIP3    H161954   5.648   0.733  16.854  0.1991  0.2255 -0.0775
13513TIP3    H261955   5.576   0.801  16.969 -0.1865 -0.9447  0.3886
13514TIP3   OH261956   1.491   2.359   3.464  0.5490  0.5912 -1.1254
13514TIP3    H161957   1.522   2.439   3.421 -0.8254  1.2273 -0.9900
13514TIP3    H261958   1.463   2.388   3.551  1.6647 -0.3718 -0.4176
13515TIP3   OH261959   0.972   6.346   4.746 -0.2120  0.4562  0.1815
13515TIP3    H161960   0.939   6.258   4.727 -1.2890  1.1949 -1.7609
13515TIP3    H261961   1.037   6.362   4.678 -0.1557  1.2143  0.4052
13516TIP3   OH261962   4.010   0.398   0.536 -0.2735  0.1454  0.8876
13516TIP3    H161963   4.090   0.423   0.581 -0.0508  0.6641  0.2123
13516TIP3    H261964   3.984   0.315   0.577  1.0359 -0.4444  0.5583
13517TIP3   OH261965   1.833   3.789  15.672  0.3747  0.6176 -0.0804
13517TIP3    H161966   1.813   3.879  15.696  0.4171  0.6698 -0.2406
13517TIP3    H261967   1.926   3.780  15.691  0.1121  0.2364  1.0961
13518TIP3   OH261968   0.662   3.866  14.055  0.6097 -0.1173 -0.1988
13518TIP3    H161969   0.744   3.869  14.005  0.0827  0.2521 -1.0728
13518TIP3    H261970   0.620   3.950  14.037  1.3346  0.9288  2.5735
13519TIP3   OH261971   0.030   5.306  11.182 -0.2302  0.0725  0.3505
13519TIP3    H161972   0.025   5.375  11.116 -0.0132  1.0045  1.2672
13519TIP3    H261973  -0.037   5.331  11.246  0.1178 -0.3551  0.8870
13520TIP3   OH261974   6.685   0.551   0.532 -0.2106 -0.1440  0.4870
13520TIP3    H161975   6.679   0.512   0.620  2.1271 -0.0260  0.7483
13520TIP3    H261976   6.690   0.476   0.473 -1.9700 -0.2270  0.3905
13521TIP3   OH261977   1.852   0.626   0.461 -0.1065  0.5514  0.1697
13521TIP3    H161978   1.941   0.646   0.489  1.0744 -0.2100 -2.6858
13521TIP3    H261979   1.835   0.689   0.390 -1.4754  0.0945  0.0736
13522TIP3   OH261980   0.731   1.519   3.828  0.0824  0.3332  0.0044
13522TIP3    H161981   0.826   1.519   3.824  0.0557  0.1068 -0.7765
13522TIP3    H261982   0.707   1.427   3.843 -0.0067  0.4277  0.4560
13523TIP3   OH261983   2.091   4.856   3.665  0.6604  0.2823 -0.1490
13523TIP3    H161984   2.171   4.803   3.666 -0.5655 -1.6635  1.5420
13523TIP3    H261985   2.027   4.802   3.619 -0.8525 -0.1682  2.3240
13524TIP3   OH261986   4.035   0.417  11.901 -0.3060  0.4855  0.0589
13524TIP3    H161987   4.088   0.475  11.955  1.3280 -0.7050 -0.1884
13524TIP3    H261988   4.064   0.435  11.811 -1.9741  1.4261 -0.3352
13525TIP3   OH261989   1.524   6.368   0.120 -0.0644 -0.3091 -0.1696
13525TIP3    H161990   1.474   6.409   0.190 -0.1839 -1.2776  0.3249
13525TIP3    H261991   1.597   6.325   0.164  1.5122  1.4543 -0.9108
13526TIP3   OH261992   2.963   4.205  16.515 -1.2179 -0.1394 -0.4459
13526TIP3    H161993   2.929   4.116  16.525  0.1962 -0.7276 -0.5962
13526TIP3    H261994   2.923   4.254  16.587 -0.8880 -1.2680  0.5530
13527TIP3   OH261995   5.932   5.060   5.234  0.1179 -0.3775  0.5136
13527TIP3    H161996   5.855   5.021   5.193 -1.9297  2.7212  1.0491
13527TIP3    H261997   5.938   5.018   5.319 -1.2383 -0.4372  0.6057
13528TIP3   OH261998   5.359   1.040   5.784 -0.3364  0.2324 -0.3638
13528TIP3    H161999   5.448   1.054   5.752 -0.2981 -1.3146 -1.0145
13528TIP3    H262000   5.366   1.046   5.879  0.4321  0.2833 -0.4218
13529TIP3   OH262001   1.797   1.913   0.830 -0.2255 -0.0301 -0.3442
13529TIP3    H162002   1.869   1.915   0.893 -2.1136  1.6038  1.9360
13529TIP3    H262003   1.839   1.926   0.745  2.0686  2.6894  1.0416
13530TIP3   OH262004   2.790   1.578  15.816 -0.2217 -0.3717 -0.3099
13530TIP3    H162005   2.811   1.608  15.904 -0.6461 -1.1964  0.0730
13530TIP3    H262006   2.875   1.556  15.777  0.1856  1.7553 -0.7930
13531TIP3   OH262007   6.805   1.097   2.207  0.5594 -0.2279 -0.5535
13531TIP3    H162008   6.780   1.154   2.134  0.7440  0.3273 -0.1909
13531TIP3    H262009   6.864   1.151   2.260  0.6471 -0.7227 -0.1428
13532TIP3   OH262010   1.736   5.138  13.008  0.0873  0.2381  0.4171
13532TIP3    H162011   1.646   5.120  13.033  0.4895 -0.4080  1.4665
13532TIP3    H262012   1.766   5.057  12.966  0.4208  0.1405  0.8270
13533TIP3   OH262013   4.667   0.100   2.777  0.0074  0.4261  0.2615
13533TIP3    H162014   4.643   0.192   2.791 -2.5711 -0.0415 -0.4863
13533TIP3    H262015   4.593   0.050   2.813  0.1878 -1.2401 -1.4757
13534TIP3   OH262016   5.528   6.097  13.338  0.2150  0.1772 -0.0909
13534TIP3    H162017   5.540   6.088  13.433 -0.6996  0.1329  0.0271
13534TIP3    H262018   5.522   6.007  13.306 -3.6953  0.0857  0.4020
13535TIP3   OH262019   2.998   5.394  13.895  0.0778 -0.4126  0.5052
13535TIP3    H162020   2.924   5.358  13.847 -0.4204  1.9217 -0.6165
13535TIP3    H262021   2.962   5.466  13.946  1.6448  1.3152 -0.6916
13536TIP3   OH262022   6.426   0.274   4.692  0.0361 -0.0097  0.4697
13536TIP3    H162023   6.396   0.312   4.775 -1.0782  3.0629 -1.1833
13536TIP3    H262024   6.357   0.212   4.668  0.9831 -1.9364  2.3294
13537TIP3   OH262025   2.180   2.707  13.664  0.0224  0.4457 -0.0541
13537TIP3    H162026   2.100   2.746  13.628  0.4673  0.4820 -1.0399
13537TIP3    H262027   2.148   2.641  13.725 -0.7725  0.3244 -0.5733
13538TIP3   OH262028   4.711   2.822  12.771 -0.2780  0.0344  0.3568
13538TIP3    H162029   4.732   2.826  12.677  0.1471  0.1660  0.4602
13538TIP3    H262030   4.634   2.764  12.775  0.6681 -1.2782  0.0896
13539TIP3   OH262031   3.660   5.228   4.502 -0.1990  0.4058 -0.0706
13539TIP3    H162032   3.725   5.285   4.463  0.5335  0.2349  0.8738
13539TIP3    H262033   3.711   5.158   4.543 -0.9631  0.2719  0.6826
13540TIP3   OH262034   0.984   0.366   5.801  0.2469 -0.0302  0.1940
13540TIP3    H162035   1.009   0.281   5.763 -1.6715 -0.9151  0.8003
13540TIP3    H262036   0.973   0.423   5.725  0.9396 -0.4891 -0.2671
13541TIP3   OH262037   0.845   3.400  14.058 -0.2805 -0.3137 -0.3181
13541TIP3    H162038   0.884   3.347  14.127 -0.6471 -0.6689 -0.3811
13541TIP3    H262039   0.755   3.415  14.087 -0.2831 -0.0207 -0.4691
13542TIP3   OH262040   1.139   4.372  13.382 -0.2455  0.3667  0.0646
13542TIP3    H162041   1.174   4.448  13.429  1.1683  0.7923 -1.5797
13542TIP3    H262042   1.181   4.297  13.423 -0.2882  0.5939  0.5325
13543TIP3   OH262043   1.971   3.954  15.969  0.0708  0.3828  0.6394
13543TIP3    H162044   1.986   3.888  16.036 -3.2562  0.5333  1.7341
13543TIP3    H262045   1.988   4.037  16.014 -0.6510  0.4248  0.8462
13544TIP3   OH262046   0.823   6.105  15.455 -0.1571  0.0653  0.0605
13544TIP3    H162047   0.894   6.059  15.410  0.3252 -1.0682  1.8862
13544TIP3    H262048   0.866   6.182  15.494  0.2860 -0.9665  1.7237
13545TIP3   OH262049   4.121   6.797  16.685 -0.4440  0.6891  0.4769
13545TIP3    H162050   4.189   6.737  16.717 -1.9036 -0.1032  2.3211
13545TIP3    H262051   4.148   6.820  16.597  1.5514 -0.5999  0.6918
13546TIP3   OH262052   2.276   4.784   5.099  0.1861 -0.0785  0.1956
13546TIP3    H162053   2.254   4.706   5.149  2.6856 -0.1960  1.2788
13546TIP3    H262054   2.252   4.857   5.156  1.1492 -0.1684  0.7356
13547TIP3   OH262055   5.976   6.043  14.995  0.1012  0.5701  0.1307
13547TIP3    H162056   5.951   6.115  14.936 -0.2919  0.1722 -0.1994
13547TIP3    H262057   5.897   6.027  15.047  0.5846  1.2173  1.0931
13548TIP3   OH262058   6.545   0.260  15.053 -0.1682 -0.3686 -0.5699
13548TIP3    H162059   6.556   0.350  15.084  1.1495 -0.8544  0.5303
13548TIP3    H262060   6.462   0.260  15.007 -0.2519  1.3845 -0.4931
13549TIP3   OH262061   5.257   5.064  11.259  0.2636 -0.1026  0.2832
13549TIP3    H162062   5.181   5.009  11.278  0.7448 -2.1358 -2.8917
13549TIP3    H262063   5.224   5.130  11.198  0.9845 -1.1831 -1.3600
13550TIP3   OH262064   2.540   4.999   1.855  0.5843  0.1512  0.2001
13550TIP3    H162065   2.602   4.929   1.830  0.8196  0.3431  0.2387
13550TIP3    H262066   2.565   5.074   1.801  1.1036  0.5713  1.0030
13551TIP3   OH262067   2.971   2.933   1.683  0.5102 -0.2440  0.3390
13551TIP3    H162068   3.016   2.848   1.680  1.6264  0.3407 -1.7777
13551TIP3    H262069   3.028   2.988   1.736  0.5329 -0.4437  0.5222
13552TIP3   OH262070   0.743   2.753  12.862  0.5154  0.0369 -0.4531
13552TIP3    H162071   0.728   2.802  12.781  0.9313 -0.5019 -0.8600
13552TIP3    H262072   0.669   2.777  12.918  1.3834  2.1901 -0.1150
13553TIP3   OH262073   1.685   4.493   5.480  0.3383  0.6275  0.3902
13553TIP3    H162074   1.596   4.460   5.474  0.4157  0.3350  0.8396
13553TIP3    H262075   1.682   4.558   5.551  0.9460 -0.9443  1.9230
13554TIP3   OH262076   5.182   0.874  15.626 -0.1392  0.5427 -0.2815
13554TIP3    H162077   5.115   0.842  15.687 -0.5972 -1.4157 -1.7000
13554TIP3    H262078   5.145   0.857  15.540  1.3781  1.2534 -1.1060
13555TIP3   OH262079   2.343   4.045  12.482  0.3185 -0.0645  0.0746
13555TIP3    H162080   2.294   4.100  12.421 -0.2914  1.2185  1.6564
13555TIP3    H262081   2.428   4.088  12.490  0.8189 -0.8718 -0.7173
13556TIP3   OH262082   1.732   2.627   5.768  0.6213 -0.4320  0.3085
13556TIP3    H162083   1.709   2.628   5.861 -0.6736  0.0353 -0.0010
13556TIP3    H262084   1.808   2.568   5.763  0.4552 -0.7840  1.5962
13557TIP3   OH262085   6.742   6.402  14.243 -0.1784 -0.0000  0.4228
13557TIP3    H162086   6.704   6.411  14.330  0.7252  0.5644  0.7750
13557TIP3    H262087   6.726   6.486  14.200  0.0886  0.0149  0.3448
13558TIP3   OH262088   4.509   4.816  11.872 -0.2470  0.4543  0.0511
13558TIP3    H162089   4.499   4.903  11.834 -0.5421  0.2863 -0.2509
13558TIP3    H262090   4.601   4.793  11.855 -0.6263 -0.0350 -1.4447
13559TIP3   OH262091   0.369   5.085  12.015 -0.2452  0.0329  0.1239
13559TIP3    H162092   0.463   5.087  11.995 -0.5508 -0.3636 -1.5182
13559TIP3    H262093   0.360   5.012  12.077  0.7551  1.2951  1.8500
13560TIP3   OH262094   4.002   2.808  11.979  0.5477 -0.0452  0.0856
13560TIP3    H162095   3.917   2.852  11.973  0.4677  0.2139  2.3447
13560TIP3    H262096   3.984   2.718  11.955  0.0178  0.3847 -1.2124
13561TIP3   OH262097   4.567   5.239  15.965 -0.4870  0.0172  0.4451
13561TIP3    H162098   4.510   5.311  15.939 -1.1416  0.1658  2.1604
13561TIP3    H262099   4.641   5.243  15.904 -0.8678  1.6755  0.0527
13562TIP3   OH262100   5.381   2.924   4.695  0.6289 -0.8227  0.6152
13562TIP3    H162101   5.393   3.006   4.742  0.7099  0.6715 -1.8608
13562TIP3    H262102   5.289   2.901   4.710  0.8161 -0.7701  1.9930
13563TIP3   OH262103   3.187   6.180  13.903  0.0207 -0.1306  0.4344
13563TIP3    H162104   3.182   6.164  13.809 -1.2026 -1.2282  0.6588
13563TIP3    H262105   3.221   6.269  13.911 -0.7761  0.3367 -1.0682
13564TIP3   OH262106   3.991   3.719   4.689  0.1340 -0.2392 -0.1786
13564TIP3    H162107   3.920   3.738   4.628  0.1625 -0.6337 -0.3372
13564TIP3    H262108   3.991   3.624   4.697  1.4867 -0.3643 -1.2190
13565TIP3   OH262109   4.779   3.139   1.946  0.0484  0.3518 -0.3284
13565TIP3    H162110   4.710   3.087   1.904 -0.4527  2.7413 -2.8172
13565TIP3    H262111   4.851   3.138   1.883 -0.1327  2.8519 -0.6933
13566TIP3   OH262112   0.492   1.970  12.935  0.2065 -0.2092  0.1197
13566TIP3    H162113   0.431   1.937  12.869 -0.8727 -0.1480  1.0561
13566TIP3    H262114   0.440   2.032  12.986  1.0588 -0.1491  0.9300
13567TIP3   OH262115   1.969   3.461   2.948 -0.0911  0.6253  0.5158
13567TIP3    H162116   2.008   3.373   2.943  0.3706  0.8299  0.5216
13567TIP3    H262117   1.984   3.499   2.862  0.2589  0.9305  0.7097
13568TIP3   OH262118   3.283   2.645  14.336  0.2658  0.0910  0.5351
13568TIP3    H162119   3.238   2.625  14.419 -0.4406 -1.6841 -0.2178
13568TIP3    H262120   3.212   2.657  14.273  0.8075 -0.2343 -0.1499
13569TIP3   OH262121   0.326   6.177   0.351  0.0206  0.0741 -0.0864
13569TIP3    H162122   0.402   6.217   0.393  0.5221 -0.6404 -0.2889
13569TIP3    H262123   0.357   6.151   0.264 -1.1155  1.8865 -1.0899
13570TIP3   OH262124   0.467   6.013  12.907  0.0139 -0.0710 -0.4317
13570TIP3    H162125   0.542   6.039  12.853 -0.3382  0.1842 -0.8073
13570TIP3    H262126   0.467   6.075  12.980  0.5462 -0.4743 -0.0796
13571TIP3   OH262127   0.376   2.213  11.406 -0.0524 -0.0973  0.2480
13571TIP3    H162128   0.321   2.182  11.333  2.1733  0.5153 -1.8103
13571TIP3    H262129   0.421   2.135  11.437 -1.2597 -0.4206  1.2527
13572TIP3   OH262130   1.632   3.514   5.753 -0.0689  0.3109  0.0786
13572TIP3    H162131   1.694   3.554   5.814 -2.8007  2.1604  1.8659
13572TIP3    H262132   1.671   3.527   5.667  0.8477  3.8479  0.8777
13573TIP3   OH262133   1.776   6.587  13.045  0.5089 -0.7654  0.0278
13573TIP3    H162134   1.738   6.675  13.046  1.5492 -0.2561 -1.3395
13573TIP3    H262135   1.701   6.528  13.055 -0.3247  0.2433 -0.0849
13574TIP3   OH262136   5.343   1.747   1.869  0.2279 -0.0126  0.2617
13574TIP3    H162137   5.337   1.809   1.941 -0.9507  2.3739 -1.7575
13574TIP3    H262138   5.381   1.797   1.797  3.3440 -2.8312 -0.3529
13575TIP3   OH262139   6.009   4.564   5.368 -0.0453 -0.3248  0.4479
13575TIP3    H162140   6.034   4.560   5.276 -0.5097  2.0538  0.1422
13575TIP3    H262141   6.090   4.584   5.414 -0.2532  1.3754  0.1593
13576TIP3   OH262142   1.155   4.573   2.999 -0.4082  0.0487 -0.6733
13576TIP3    H162143   1.198   4.499   2.957 -0.3313  0.1800 -0.8231
13576TIP3    H262144   1.174   4.562   3.092  0.4523  0.4353 -0.7935
13577TIP3   OH262145   4.020   0.638  13.496 -0.5791  0.2761 -0.3375
13577TIP3    H162146   3.997   0.554  13.456 -2.6047  1.1560 -1.1904
13577TIP3    H262147   4.029   0.698  13.422 -2.5397  1.5279  0.3620
13578TIP3   OH262148   5.594   2.756  10.655  0.6788 -0.3290  0.3681
13578TIP3    H162149   5.683   2.777  10.682  0.2225  2.3862  0.1122
13578TIP3    H262150   5.540   2.822  10.699 -0.8426 -0.1688 -1.6036
13579TIP3   OH262151   5.669   4.602   5.581 -0.3622 -0.6030  0.4791
13579TIP3    H162152   5.591   4.562   5.542 -0.2224 -0.1242 -0.2937
13579TIP3    H262153   5.661   4.582   5.674  0.2490 -3.4334  0.0334
13580TIP3   OH262154   3.995   1.433   3.512  0.2607 -0.1125 -0.1302
13580TIP3    H162155   4.050   1.376   3.458  0.5799 -0.3043  0.3938
13580TIP3    H262156   4.034   1.520   3.502  0.9990 -0.3462  0.6836
13581TIP3   OH262157   1.585   3.061   0.531 -0.2029  0.4276  0.6197
13581TIP3    H162158   1.643   3.023   0.465  0.7031 -1.0760  2.2091
13581TIP3    H262159   1.641   3.122   0.580 -0.1341 -0.4583  1.6755
13582TIP3   OH262160   1.196   2.486  15.679  0.6238  0.0146  0.4570
13582TIP3    H162161   1.224   2.565  15.725 -0.4292 -0.8457  2.7233
13582TIP3    H262162   1.101   2.486  15.686  0.6058 -1.4796  0.6377
13583TIP3   OH262163   5.549   0.799   6.465  0.1243  0.6711 -0.4410
13583TIP3    H162164   5.485   0.800   6.393  0.4408  0.5937 -0.7274
13583TIP3    H262165   5.634   0.792   6.421  0.4269  1.9764 -0.1330
13584TIP3   OH262166   2.806   1.940  11.318 -0.8722  0.5684  0.2492
13584TIP3    H162167   2.811   1.956  11.412 -3.4389  0.6742  0.4395
13584TIP3    H262168   2.831   2.023  11.278  0.4397  0.4641  0.8013
13585TIP3   OH262169   0.136   4.493  15.116 -0.6110  0.4921  0.1731
13585TIP3    H162170   0.095   4.416  15.155  1.2716 -0.3250  0.6484
13585TIP3    H262171   0.149   4.554  15.189 -1.2433  0.8968 -0.0378
13586TIP3   OH262172   1.185   0.681   5.989  0.6679  0.2776  0.2801
13586TIP3    H162173   1.259   0.701   6.047 -0.0819  1.6114  0.8106
13586TIP3    H262174   1.169   0.588   6.003  1.1495  0.3480  1.4787
13587TIP3   OH262175   3.187   0.550   2.682 -0.2072  0.4183  0.2880
13587TIP3    H162176   3.175   0.514   2.594 -2.1129  0.4440  0.4850
13587TIP3    H262177   3.140   0.489   2.740  0.9455  0.4496  1.2877
13588TIP3   OH262178   6.354   2.352   4.584  0.0618  0.1934  0.1092
13588TIP3    H162179   6.375   2.414   4.514 -0.6106  0.0091 -0.2668
13588TIP3    H262180   6.261   2.332   4.572  0.0275 -0.1301  0.8290
13589TIP3   OH262181   4.203   4.911  13.841 -0.3008 -0.8087  0.3874
13589TIP3    H162182   4.165   4.829  13.809 -1.5214 -0.2595  0.3582
13589TIP3    H262183   4.282   4.885  13.887 -1.1948 -2.1208  1.2413
13590TIP3   OH262184   3.439   1.056   5.102  0.3160  0.8533 -0.0539
13590TIP3    H162185   3.363   1.057   5.043 -0.2074 -0.4550  0.5453
13590TIP3    H262186   3.494   1.128   5.072 -1.3522  2.1104 -0.2467
13591TIP3   OH262187   5.463   3.936  12.295  0.1324  0.4801  0.3560
13591TIP3    H162188   5.501   4.021  12.317  0.6298  0.1685  0.7310
13591TIP3    H262189   5.408   3.914  12.370  2.1997 -0.8029  1.6111
13592TIP3   OH262190   6.180   5.378   1.329  0.0168 -0.2376 -0.2219
13592TIP3    H162191   6.236   5.341   1.261  0.1955 -1.1343  0.3941
13592TIP3    H262192   6.211   5.467   1.340  0.4100 -0.2906 -0.8549
13593TIP3   OH262193   2.865   1.039   4.060 -0.8030  0.2558  0.0143
13593TIP3    H162194   2.789   1.097   4.060 -2.5208 -1.8518  0.4756
13593TIP3    H262195   2.928   1.081   4.119 -1.8646  1.7373  0.1399
13594TIP3   OH262196   4.803   6.078   2.566 -0.2071 -0.0736 -0.5086
13594TIP3    H162197   4.872   6.022   2.602  0.2631  1.0597  0.4237
13594TIP3    H262198   4.753   6.106   2.643 -0.9134  0.1593 -1.0429
13595TIP3   OH262199   0.170   3.996   2.063  0.1534  0.1476 -0.1563
13595TIP3    H162200   0.242   3.981   2.001  0.6937 -2.5963  1.0022
13595TIP3    H262201   0.213   4.010   2.147 -0.5589 -2.4697  0.7367
13596TIP3   OH262202   2.241   1.933  14.238 -0.6136 -0.4619 -0.3048
13596TIP3    H162203   2.261   1.938  14.144  2.0157 -0.5653  0.1691
13596TIP3    H262204   2.241   1.840  14.257  1.0968 -0.3956  0.1652
13597TIP3   OH262205   5.159   4.881   4.152  0.3952 -0.1374  0.0969
13597TIP3    H162206   5.168   4.910   4.243 -0.4580 -1.8295  0.7498
13597TIP3    H262207   5.076   4.834   4.149  1.5535 -2.2815 -0.9252
13598TIP3   OH262208   5.218   1.779   5.459  0.1253 -0.2601  0.8625
13598TIP3    H162209   5.235   1.712   5.393 -1.4394 -0.4118  0.5600
13598TIP3    H262210   5.148   1.742   5.513 -0.8298  1.1479  0.6427
13599TIP3   OH262211   4.743   0.783  16.359 -0.0311 -0.7704 -0.0083
13599TIP3    H162212   4.690   0.705  16.345 -0.4460 -0.4988  0.0231
13599TIP3    H262213   4.709   0.847  16.296 -1.9115  0.4664  2.1160
13600TIP3   OH262214   2.934   0.447  16.741 -0.1626  0.4871  0.8813
13600TIP3    H162215   2.966   0.366  16.700 -0.2548  0.2977  1.1798
13600TIP3    H262216   2.960   0.439  16.833 -0.8420  0.4467  1.0733
13601TIP3   OH262217   6.556   5.257  10.480  0.5074  0.0743 -0.2211
13601TIP3    H162218   6.468   5.236  10.450  0.0760  2.3887 -0.7759
13601TIP3    H262219   6.545   5.333  10.537  1.8763 -1.3148  2.0492
13602TIP3   OH262220   5.424   1.475  12.696 -0.7402  0.3605  0.3906
13602TIP3    H162221   5.446   1.511  12.611 -0.2290 -0.1682  0.3001
13602TIP3    H262222   5.406   1.552  12.751 -2.6268  0.6783 -0.5915
13603TIP3   OH262223   2.662   0.995   5.626 -0.1962 -0.0580 -0.2357
13603TIP3    H162224   2.593   1.051   5.663 -2.0708  0.1014 -3.6140
13603TIP3    H262225   2.735   1.055   5.612 -0.0027  0.1971  1.5380
13604TIP3   OH262226   0.048   1.310   3.145 -0.2955  0.0706  0.4700
13604TIP3    H162227  -0.019   1.353   3.198  0.0406  1.3188 -0.0771
13604TIP3    H262228   0.119   1.290   3.206 -0.6167 -0.0672  0.8011
13605TIP3   OH262229   3.499   1.378  13.226 -0.1154 -0.4420 -0.5721
13605TIP3    H162230   3.538   1.419  13.148  0.4192  0.2107  0.0316
13605TIP3    H262231   3.452   1.449  13.269  1.7246 -0.1294  1.0821
13606TIP3   OH262232   3.865   2.839   3.126 -0.5406 -0.1994 -0.8473
13606TIP3    H162233   3.807   2.807   3.057 -0.0237  0.4624 -1.6042
13606TIP3    H262234   3.864   2.769   3.192 -3.3844  0.4196 -0.0950
13607TIP3   OH262235   0.821   4.784   1.790  0.1811  0.0504 -0.7928
13607TIP3    H162236   0.823   4.865   1.740 -1.8305  1.8680  1.8493
13607TIP3    H262237   0.906   4.780   1.834  0.0091  1.1284 -0.3563
13608TIP3   OH262238   2.930   3.867   3.721  0.2584  0.4173  0.3868
13608TIP3    H162239   2.868   3.854   3.649  3.1120 -1.8067 -1.9171
13608TIP3    H262240   2.883   3.835   3.799 -2.1041  0.6335 -0.8534
13609TIP3   OH262241   5.452   3.845   4.064 -0.1066 -0.0926  0.0190
13609TIP3    H162242   5.449   3.925   4.117  0.3948  0.7419 -1.1870
13609TIP3    H262243   5.421   3.776   4.124 -0.1344  0.9149  1.2085
13610TIP3   OH262244   4.961   2.675   0.163 -0.0283  0.3147 -0.4411
13610TIP3    H162245   4.973   2.764   0.198 -1.4234 -0.2015  1.5664
13610TIP3    H262246   4.876   2.677   0.121  0.4068  0.1731 -1.3559
13611TIP3   OH262247   2.543   5.619  12.008 -0.0078  0.1803 -0.0171
13611TIP3    H162248   2.458   5.593  12.044  0.1252 -0.1278  0.0742
13611TIP3    H262249   2.601   5.624  12.084 -0.3661  2.1565  0.1893
13612TIP3   OH262250   2.830   5.390   1.370 -0.8265  0.1773  0.1874
13612TIP3    H162251   2.887   5.420   1.441 -1.0143 -0.2657  0.5309
13612TIP3    H262252   2.882   5.323   1.325 -0.3422  1.1061 -0.6800
13613TIP3   OH262253   4.662   4.954  15.965  0.1479 -0.2832 -1.0948
13613TIP3    H162254   4.745   4.986  15.930 -0.0276  0.3543 -0.9431
13613TIP3    H262255   4.595   4.997  15.913 -0.1337  1.1428  0.3616
13614TIP3   OH262256   5.600   4.553  13.382  0.0328  0.6465 -0.1448
13614TIP3    H162257   5.662   4.596  13.440 -0.0762 -0.7114  1.0406
13614TIP3    H262258   5.550   4.494  13.439 -0.2426 -0.5716 -1.5613
13615TIP3   OH262259   5.902   3.324   4.559  0.1997  0.4456  0.2706
13615TIP3    H162260   5.913   3.399   4.500 -1.8434  0.1634 -0.5485
13615TIP3    H262261   5.817   3.339   4.601  0.3646 -0.7677  1.0871
13616TIP3   OH262262   2.504   2.088   1.727  0.9130 -0.0941  0.3330
13616TIP3    H162263   2.535   2.134   1.805 -0.1127  0.2898  0.5233
13616TIP3    H262264   2.418   2.054   1.751  1.3583 -1.5288 -0.0424
13617TIP3   OH262265   1.386   0.880  12.870  0.2899 -0.4418 -0.0827
13617TIP3    H162266   1.320   0.914  12.810 -0.7377 -1.8508  0.1985
13617TIP3    H262267   1.365   0.921  12.954  0.7989  0.3655 -0.3386
13618TIP3   OH262268   0.480   2.513   1.709  0.4315  0.5713  0.6013
13618TIP3    H162269   0.567   2.510   1.671  0.7095  0.8492  1.2072
13618TIP3    H262270   0.463   2.423   1.738  0.0783  0.2810 -0.4647
13619TIP3   OH262271   2.763   0.231  13.897  0.0749 -0.1092 -0.0526
13619TIP3    H162272   2.768   0.135  13.904  1.0300 -0.1137 -0.6902
13619TIP3    H262273   2.675   0.252  13.929 -0.9095 -1.3718 -1.7643
13620TIP3   OH262274   5.228   2.130   0.585  0.3964  0.0949 -0.0967
13620TIP3    H162275   5.161   2.063   0.569  1.7432 -1.1147 -0.9172
13620TIP3    H262276   5.289   2.088   0.646  1.2235  0.5864 -0.5728
13621TIP3   OH262277   5.537   2.942  16.121 -0.4660 -0.1330 -0.2259
13621TIP3    H162278   5.501   2.853  16.111 -1.9423  0.3332  0.7129
13621TIP3    H262279   5.577   2.960  16.036  1.3065 -2.2880  0.0554
13622TIP3   OH262280   1.497   5.645  14.190 -0.5856 -0.7135 -0.6350
13622TIP3    H162281   1.433   5.589  14.233  0.8840 -2.1090 -0.1641
13622TIP3    H262282   1.565   5.660  14.256 -1.1311  2.1117 -0.5577
13623TIP3   OH262283   1.707   0.519   2.468 -0.3493  0.1729 -0.3987
13623TIP3    H162284   1.666   0.435   2.446 -1.3359 -0.2871  2.6401
13623TIP3    H262285   1.787   0.495   2.515 -0.4752  0.9040  0.2137
13624TIP3   OH262286   2.565   5.091  12.033 -0.2662 -0.0247  0.0717
13624TIP3    H162287   2.479   5.049  12.038 -0.8924  1.3474  1.1335
13624TIP3    H262288   2.591   5.081  11.941 -0.1404 -3.1266  0.3254
13625TIP3   OH262289   3.843   1.298   3.930 -0.3302  0.2665 -0.0216
13625TIP3    H162290   3.846   1.324   3.838 -2.0407  1.2423  0.1679
13625TIP3    H262291   3.771   1.348   3.968 -0.8426 -1.4549  1.4382
13626TIP3   OH262292   0.346   2.412  16.633 -0.1101  0.0846  0.6203
13626TIP3    H162293   0.387   2.460  16.561 -0.4762 -0.1798  0.2308
13626TIP3    H262294   0.379   2.455  16.713 -0.7765  1.2939  0.2811
13627TIP3   OH262295   3.537   6.611   3.638 -0.1146  0.2345  0.2051
13627TIP3    H162296   3.536   6.677   3.707  1.6357  2.0676 -1.4169
13627TIP3    H262297   3.524   6.528   3.685 -0.6482  1.5302  2.5048
13628TIP3   OH262298   6.211   2.225  11.832 -0.5675  0.2150 -0.4413
13628TIP3    H162299   6.162   2.259  11.907  0.0995  2.0287 -0.7672
13628TIP3    H262300   6.223   2.132  11.851 -1.6949  0.3224  0.9759
13629TIP3   OH262301   1.808   1.326   2.261 -0.0012  0.3747 -0.3662
13629TIP3    H162302   1.732   1.294   2.213  0.3684 -0.6627 -0.2799
13629TIP3    H262303   1.831   1.408   2.216  0.1794 -0.4332 -1.8277
13630TIP3   OH262304   0.586   6.757   0.929  0.0893  0.5557 -0.2114
13630TIP3    H162305   0.496   6.739   0.954  0.3704  0.6523  0.9059
13630TIP3    H262306   0.606   6.841   0.970  0.5882  0.6997 -0.7338
13631TIP3   OH262307   4.630   1.635  16.377  0.5290  0.4506 -0.1389
13631TIP3    H162308   4.563   1.568  16.390  1.9079 -0.7319  1.3796
13631TIP3    H262309   4.581   1.715  16.356 -1.2607 -0.6256 -0.2210
13632TIP3   OH262310   3.670   5.942   4.085  0.2857 -0.6532 -0.3363
13632TIP3    H162311   3.696   5.873   4.145 -0.9469  0.8688  2.1231
13632TIP3    H262312   3.574   5.938   4.083  0.2368  0.2400 -1.0870
13633TIP3   OH262313   5.893   2.208  14.147  0.0625 -0.1391  0.0697
13633TIP3    H162314   5.934   2.127  14.178  2.6737  0.6282 -1.0995
13633TIP3    H262315   5.859   2.249  14.227  2.1550 -0.5902  1.2832
13634TIP3   OH262316   2.693   0.536   5.336 -0.4512 -0.3380  0.0965
13634TIP3    H162317   2.651   0.608   5.382  2.2461  1.4220  0.0434
13634TIP3    H262318   2.709   0.470   5.403 -1.3304 -0.1293  0.5272
13635TIP3   OH262319   6.547   3.842   2.463 -0.0187 -0.3105  0.1906
13635TIP3    H162320   6.613   3.875   2.402 -0.7169  0.2115 -0.3046
13635TIP3    H262321   6.579   3.868   2.550 -0.3953  1.4611 -0.1613
13636TIP3   OH262322   0.953   2.433   6.096 -0.5198  0.1001 -0.1406
13636TIP3    H162323   0.974   2.465   6.184 -0.0458  1.8234 -0.8523
13636TIP3    H262324   0.975   2.505   6.038 -1.2882 -0.8318 -1.6503
13637TIP3   OH262325   4.455   3.170   1.048 -0.1590  0.6919  0.2820
13637TIP3    H162326   4.423   3.080   1.052  1.3381 -0.0342 -2.0344
13637TIP3    H262327   4.525   3.174   1.113 -1.2677  0.6992  1.5145
13638TIP3   OH262328   5.814   1.388   4.932 -0.0055  0.5328 -1.0509
13638TIP3    H162329   5.887   1.415   4.877  1.5584 -0.6996  0.3386
13638TIP3    H262330   5.773   1.470   4.960  1.0811  1.2635 -1.5509
13639TIP3   OH262331   0.852   0.043   4.427 -0.2526  0.2201 -0.7296
13639TIP3    H162332   0.945   0.019   4.425  0.2802  1.2942  2.9142
13639TIP3    H262333   0.807  -0.041   4.442  0.5641  0.0929  1.3114
13640TIP3   OH262334   1.926   4.718  14.684  0.2103 -0.0359  0.1409
13640TIP3    H162335   1.995   4.751  14.742  0.5836 -0.4025 -0.0941
13640TIP3    H262336   1.923   4.624  14.701  0.4094 -0.1681 -0.5266
13641TIP3   OH262337   0.880   0.953   1.760 -0.4008  0.2146 -0.4308
13641TIP3    H162338   0.932   1.020   1.804  0.7778 -0.6581 -0.4522
13641TIP3    H262339   0.791   0.966   1.793  0.2608  0.2146  1.4558
13642TIP3   OH262340   3.637   1.828   0.188 -0.1840 -0.1907  0.2375
13642TIP3    H162341   3.568   1.771   0.219  0.4157  0.0596  2.1550
13642TIP3    H262342   3.716   1.774   0.188 -0.3163 -0.4943 -1.9825
13643TIP3   OH262343   2.526   5.836  11.273 -0.3341 -0.2580 -0.3019
13643TIP3    H162344   2.524   5.747  11.238  0.5298 -0.4123  0.0100
13643TIP3    H262345   2.496   5.827  11.364 -1.0338 -0.1025 -0.5145
13644TIP3   OH262346   5.916   0.138   1.159  0.4504 -0.5267 -0.7477
13644TIP3    H162347   5.895   0.046   1.140  1.3655 -0.7377 -0.8124
13644TIP3    H262348   6.006   0.148   1.127  1.0697 -0.1423  1.0401
13645TIP3   OH262349   3.040   6.683  10.576  0.7281  0.1529 -0.7075
13645TIP3    H162350   2.950   6.656  10.590  1.5493 -2.4600  0.0891
13645TIP3    H262351   3.045   6.699  10.481 -0.3717 -0.5670 -0.9148
13646TIP3   OH262352   5.352   3.186  11.640 -0.1761 -0.3037 -0.4598
13646TIP3    H162353   5.402   3.195  11.721 -0.3758  1.3573 -0.4893
13646TIP3    H262354   5.402   3.237  11.576 -0.1730 -1.3689 -1.3142
13647TIP3   OH262355   2.227   1.608  15.058 -0.4991  0.0295 -0.0323
13647TIP3    H162356   2.267   1.694  15.061  0.4507 -0.3622 -1.0434
13647TIP3    H262357   2.284   1.553  15.111  0.9252 -0.7500 -2.2586
13648TIP3   OH262358   0.911   4.710  16.424  0.2052 -0.2992 -0.5162
13648TIP3    H162359   0.964   4.727  16.346  0.0835 -0.0682 -0.5478
13648TIP3    H262360   0.885   4.796  16.455  0.8425 -0.3535  0.1913
13649TIP3   OH262361   3.033   3.100  15.736 -0.0958 -0.0501 -0.0844
13649TIP3    H162362   2.990   3.176  15.774  1.9322  0.7721  0.6986
13649TIP3    H262363   3.015   3.029  15.798 -1.2737 -0.0294 -0.3786
13650TIP3   OH262364   3.209   1.306  13.128 -0.0745 -0.2754  0.0855
13650TIP3    H162365   3.206   1.383  13.071  0.5789 -1.2084 -1.2837
13650TIP3    H262366   3.275   1.328  13.194  2.3968 -0.7018 -2.0423
13651TIP3   OH262367   4.995   5.133  11.368  0.2576 -0.3560  0.2060
13651TIP3    H162368   4.935   5.151  11.296  0.7915 -0.1580 -0.1926
13651TIP3    H262369   4.989   5.210  11.424  1.3035  0.3570 -0.6424
13652TIP3   OH262370   3.279   6.745  16.092  0.1167 -0.0650  0.6169
13652TIP3    H162371   3.366   6.785  16.094 -0.8745  2.2713 -0.0824
13652TIP3    H262372   3.247   6.761  16.004 -0.3701 -2.5348  0.2673
13653TIP3   OH262373   0.129   5.487  11.987  0.1149  0.3749 -0.2805
13653TIP3    H162374   0.041   5.449  11.987 -0.7776  2.2072 -1.9258
13653TIP3    H262375   0.174   5.443  12.058 -1.1321 -2.8361 -1.2753
13654TIP3   OH262376   3.949   1.458   0.146 -0.2748  0.4452  0.2792
13654TIP3    H162377   3.917   1.403   0.217  1.3718  0.3473  0.9993
13654TIP3    H262378   4.036   1.422   0.125 -0.0789  1.4327 -0.7133
13655TIP3   OH262379   3.457   5.722   2.565  0.5532  0.2712  0.8981
13655TIP3    H162380   3.509   5.799   2.540  0.8213 -0.3053 -0.3452
13655TIP3    H262381   3.520   5.650   2.565  0.1381 -0.0911  1.2870
13656TIP3   OH262382   6.397   6.414  12.803 -0.1692 -0.0486  1.4033
13656TIP3    H162383   6.423   6.395  12.713  1.6297  0.6450  1.7328
13656TIP3    H262384   6.301   6.415  12.800 -0.1605  1.0569 -0.7482
13657TIP3   OH262385   5.053   3.342  14.350  0.2513 -0.4758 -0.0757
13657TIP3    H162386   5.001   3.267  14.321 -3.0111  1.9688 -1.1377
13657TIP3    H262387   5.102   3.369  14.273 -0.6430  0.0382 -0.4735
13658TIP3   OH262388   6.285   5.161   4.908 -0.6706  0.3145 -0.0608
13658TIP3    H162389   6.360   5.197   4.955 -0.4627 -0.2854  0.0674
13658TIP3    H262390   6.222   5.138   4.977 -0.5579 -0.1223 -0.0991
13659TIP3   OH262391   4.126   5.826  15.607  0.6177  0.5580 -0.2423
13659TIP3    H162392   4.055   5.832  15.543 -0.3451  1.4349  0.8542
13659TIP3    H262393   4.196   5.780  15.561 -0.4759  0.0949 -1.5178
13660TIP3   OH262394   5.837   2.903   2.067 -0.1213 -0.0764 -0.0245
13660TIP3    H162395   5.754   2.951   2.075 -0.3802 -0.5938  0.5130
13660TIP3    H262396   5.830   2.834   2.133  0.9279  0.1481  0.3433
13661TIP3   OH262397   1.585   6.491   0.456  0.6202  0.1476  0.4865
13661TIP3    H162398   1.497   6.519   0.431  0.8381  1.1376  0.7887
13661TIP3    H262399   1.643   6.562   0.427  1.0849  0.4565  2.0494
13662TIP3   OH262400   6.274   3.517  13.162 -0.3018 -0.0542  0.2558
13662TIP3    H162401   6.298   3.553  13.077 -0.7996 -0.3653 -0.0253
13662TIP3    H262402   6.189   3.558  13.182 -0.7407 -0.8407  0.0573
13663TIP3   OH262403   6.501   3.537   0.163 -0.0091  0.0334  0.0745
13663TIP3    H162404   6.451   3.605   0.208 -0.0310 -0.1941  0.3957
13663TIP3    H262405   6.524   3.576   0.079  1.3113  1.0442  0.8502
13664TIP3   OH262406   6.019   2.320   5.259  0.2746 -0.1751 -0.2605
13664TIP3    H162407   6.026   2.354   5.348 -1.7156  1.4621 -0.6389
13664TIP3    H262408   6.046   2.229   5.266 -0.6685 -0.3562  2.2197
13665TIP3   OH262409   0.289   2.067   1.798  0.3647  0.4544 -0.0625
13665TIP3    H162410   0.362   2.125   1.821  1.0026 -0.6515  0.8077
13665TIP3    H262411   0.239   2.116   1.732  0.5274  2.2395  1.0740
13666TIP3   OH262412   2.533   3.154  12.951 -0.2760 -0.3667 -0.1514
13666TIP3    H162413   2.514   3.207  12.873 -0.4169 -1.2274 -0.7137
13666TIP3    H262414   2.622   3.179  12.976 -1.0115  1.5480  0.7569
13667TIP3   OH262415   3.026   3.813   0.049  0.2220  0.5826 -0.0248
13667TIP3    H162416   3.021   3.860  -0.034 -0.4943  0.2349 -0.1835
13667TIP3    H262417   3.017   3.882   0.115 -0.3758  0.7248 -0.2498
13668TIP3   OH262418   6.709   6.196   0.066  0.7863 -1.1139 -0.1916
13668TIP3    H162419   6.779   6.153   0.116 -0.0496 -2.3305 -0.0295
13668TIP3    H262420   6.644   6.220   0.133  0.6223 -0.8322 -0.4509
13669TIP3   OH262421   1.419   6.016   6.565  0.0409 -0.2000  0.0164
13669TIP3    H162422   1.417   5.969   6.481 -0.2859  0.3412 -0.2865
13669TIP3    H262423   1.376   5.957   6.626 -1.4353  0.1807 -0.6186
13670TIP3   OH262424   2.169   0.911  16.735  0.4461  0.1116  0.6420
13670TIP3    H162425   2.186   1.003  16.758  0.5879 -0.0994  1.3839
13670TIP3    H262426   2.076   0.909  16.712  0.6467  0.6226 -0.2967
13671TIP3   OH262427   3.362   6.712  10.846  0.1628  0.1290 -0.0844
13671TIP3    H162428   3.381   6.669  10.763 -2.7474 -1.0812 -0.2691
13671TIP3    H262429   3.286   6.768  10.827  0.7502  1.4653  1.3136
13672TIP3   OH262430   4.404   1.709   2.666  0.0574  0.2315 -0.3500
13672TIP3    H162431   4.475   1.649   2.689 -1.1019 -0.9641  0.3054
13672TIP3    H262432   4.411   1.780   2.730 -0.7407 -1.0936  1.3070
13673TIP3   OH262433   3.283   6.055  11.866 -0.1805 -0.5149 -0.7728
13673TIP3    H162434   3.350   6.079  11.930  0.0901 -3.2453  0.0861
13673TIP3    H262435   3.257   6.138  11.827  0.6679  1.1270  1.8676
13674TIP3   OH262436   3.135   3.094  16.108 -0.6356  0.3173  0.4647
13674TIP3    H162437   3.053   3.140  16.088 -1.4583 -0.7085  1.3747
13674TIP3    H262438   3.197   3.164  16.129 -1.4837  1.0762  0.5065
13675TIP3   OH262439   0.609   4.692  15.910  0.8611  0.6046  0.0221
13675TIP3    H162440   0.695   4.725  15.885  0.6043  0.9557 -0.4299
13675TIP3    H262441   0.610   4.689  16.005  1.9757 -1.0361  0.0003
13676TIP3   OH262442   3.442   2.662   5.355  0.6937 -0.4216  0.3620
13676TIP3    H162443   3.508   2.594   5.340  0.5950 -0.0507 -2.2037
13676TIP3    H262444   3.432   2.705   5.270 -2.2704  0.0797  0.8609
13677TIP3   OH262445   1.291   6.653  11.062 -0.0324  0.2197 -0.1201
13677TIP3    H162446   1.295   6.579  11.002  0.6254 -1.9525  2.3782
13677TIP3    H262447   1.209   6.698  11.041 -0.1301 -0.8291 -2.1346
13678TIP3   OH262448   6.219   4.771  11.341 -0.1118  0.2713  0.3362
13678TIP3    H162449   6.238   4.721  11.420 -0.4413  1.3684  1.1188
13678TIP3    H262450   6.137   4.733  11.309 -0.6394  0.6313  1.2174
13679TIP3   OH262451   6.208   6.438   1.356 -0.0595  0.3880 -0.1017
13679TIP3    H162452   6.175   6.523   1.328 -0.1107 -0.0850 -1.6086
13679TIP3    H262453   6.130   6.390   1.385 -0.4494  0.0097 -1.6550
13680TIP3   OH262454   6.544   1.973  13.284 -0.5441  0.0727  0.4260
13680TIP3    H162455   6.570   2.055  13.241  0.6356  0.0202  0.9994
13680TIP3    H262456   6.591   1.905  13.236 -0.5793 -0.1524  0.7102
13681TIP3   OH262457   4.588   1.133  15.644 -0.0493 -0.2207  0.3112
13681TIP3    H162458   4.535   1.057  15.621 -1.3408 -0.3014  3.0677
13681TIP3    H262459   4.551   1.204  15.592 -1.3198 -0.7721  0.4069
13682TIP3   OH262460   3.635   2.296  10.883  0.1944  0.3180  0.0122
13682TIP3    H162461   3.592   2.370  10.926 -1.4324 -0.4917 -0.1592
13682TIP3    H262462   3.713   2.335  10.842 -0.8255  2.0196 -0.4265
13683TIP3   OH262463   2.882   3.664   2.719  0.3203  0.6864  0.8397
13683TIP3    H162464   2.917   3.747   2.751 -0.9605  2.0634 -1.0662
13683TIP3    H262465   2.951   3.629   2.663  0.6377  0.7554  1.1811
13684TIP3   OH262466   6.036   6.109   3.375  0.1797  0.0773  0.1505
13684TIP3    H162467   5.981   6.080   3.449 -0.8781  2.8688  0.5958
13684TIP3    H262468   6.016   6.047   3.305 -0.0137 -1.7086  1.7055
13685TIP3   OH262469   4.039   5.766   4.746 -0.1120 -0.1585  0.2238
13685TIP3    H162470   4.007   5.684   4.784  0.3638 -0.1819  0.5952
13685TIP3    H262471   4.001   5.835   4.801  0.7864 -0.2022  0.9326
13686TIP3   OH262472   2.510   2.814   4.654  0.1605  0.2052  0.0345
13686TIP3    H162473   2.426   2.835   4.695  0.4015  0.1699  0.5521
13686TIP3    H262474   2.486   2.769   4.572 -0.3256  0.8158 -0.1650
13687TIP3   OH262475   6.038   6.674   1.991  0.5008  0.0268 -0.3206
13687TIP3    H162476   6.131   6.688   2.010  1.0147 -1.8573 -1.0881
13687TIP3    H262477   6.004   6.760   1.970  1.9782  0.8221  0.4009
13688TIP3   OH262478   3.311   1.498   5.775  0.4433  0.1299  0.9233
13688TIP3    H162479   3.303   1.411   5.814  1.6752 -0.9963 -1.1804
13688TIP3    H262480   3.362   1.548   5.839  1.1468 -1.1902  1.4306
13689TIP3   OH262481   5.220   2.415   1.755 -0.5392 -0.2786  0.4264
13689TIP3    H162482   5.207   2.339   1.699 -0.3525 -0.5594  0.7595
13689TIP3    H262483   5.186   2.388   1.841 -0.5719  0.0503  0.5199
13690TIP3   OH262484   1.664   4.690  11.604  0.8263  0.3694  0.4420
13690TIP3    H162485   1.597   4.656  11.545  1.0332  1.2523 -0.3162
13690TIP3    H262486   1.614   4.724  11.679  0.6411 -2.1752  1.5917
13691TIP3   OH262487   0.970   4.210   2.536 -0.2936 -0.1805  0.0694
13691TIP3    H162488   1.020   4.292   2.537 -2.1623  1.0042  0.4925
13691TIP3    H262489   1.036   4.142   2.519  1.4418  1.2970  0.5701
13692TIP3   OH262490   6.301   5.504  17.002 -0.0533 -0.0307  0.3863
13692TIP3    H162491   6.274   5.533  16.915  0.4830  1.0847  0.5687
13692TIP3    H262492   6.396   5.516  17.003  0.2705 -2.2781  0.3313
13693TIP3   OH262493   1.768   6.319   0.587 -0.2865 -0.6493  0.3090
13693TIP3    H162494   1.688   6.370   0.571  0.2655 -0.3188 -1.6892
13693TIP3    H262495   1.804   6.355   0.668 -0.6793  1.1704 -0.2787
13694TIP3   OH262496   0.914   4.061   2.289 -0.1273  0.2256  0.1859
13694TIP3    H162497   0.975   4.008   2.340 -0.3376  0.6466  0.8785
13694TIP3    H262498   0.897   4.138   2.343  1.1688  1.6579 -1.3393
13695TIP3   OH262499   1.477   1.068  10.478 -0.2946 -0.0030  0.0910
13695TIP3    H162500   1.474   0.976  10.453 -2.4377 -0.2192  0.9406
13695TIP3    H262501   1.398   1.082  10.530 -0.5321  2.5455 -0.7757
13696TIP3   OH262502   6.137   5.128  12.819 -0.0517  0.1309  1.1206
13696TIP3    H162503   6.191   5.199  12.784 -0.6786  0.0877  0.0272
13696TIP3    H262504   6.065   5.174  12.864  0.2903  0.1775  1.6384
13697TIP3   OH262505   5.106   1.168  15.404  0.1326 -0.3961  0.4324
13697TIP3    H162506   5.141   1.092  15.358  0.6140  0.2990 -0.3817
13697TIP3    H262507   5.022   1.138  15.439  0.5261 -1.4331  0.5265
13698TIP3   OH262508   6.765   4.409   1.708  0.4055  0.4752  0.3919
13698TIP3    H162509   6.744   4.353   1.634 -0.4243  1.6408 -0.3010
13698TIP3    H262510   6.689   4.401   1.766 -0.0989  1.4903 -0.1068
13699TIP3   OH262511   0.359   5.946  14.486 -0.4223 -0.8310  0.0574
13699TIP3    H162512   0.426   5.971  14.422  0.6024 -0.4082  1.2509
13699TIP3    H262513   0.302   6.023  14.493 -0.8962 -1.0903 -0.7499
13700TIP3   OH262514   3.487   2.683   6.248  0.5328  0.1019 -0.1613
13700TIP3    H162515   3.534   2.766   6.253 -0.9181  0.9599 -0.2254
13700TIP3    H262516   3.501   2.643   6.334  0.3774  0.9151  0.2546
13701TIP3   OH262517   5.776   2.057   5.292 -0.1529 -0.1820  0.0889
13701TIP3    H162518   5.725   2.136   5.273  2.5266  1.8910  0.9788
13701TIP3    H262519   5.744   2.028   5.377 -0.8513  0.1957 -0.0395
13702TIP3   OH262520   0.887   0.455  15.203 -0.1357  0.0933  0.2291
13702TIP3    H162521   0.835   0.517  15.151 -0.3021 -0.8593 -0.7699
13702TIP3    H262522   0.881   0.373  15.155  0.2942 -0.6429  1.4018
13703TIP3   OH262523   6.445   1.276   6.045 -0.0226  0.3035  0.2391
13703TIP3    H162524   6.471   1.217   6.116  0.1552  0.0068 -0.0688
13703TIP3    H262525   6.358   1.308   6.071 -0.4067 -0.5940  0.1067
13704TIP3   OH262526   2.429   2.424   4.514 -0.3317  0.4917 -0.1583
13704TIP3    H162527   2.504   2.404   4.458 -0.3421  1.0027 -0.3639
13704TIP3    H262528   2.360   2.365   4.484 -0.3310  0.7490 -0.6808
13705TIP3   OH262529   6.102   2.769   0.094 -0.3496  0.0455 -0.1269
13705TIP3    H162530   6.092   2.836   0.027 -0.6416  0.6922  0.5486
13705TIP3    H262531   6.045   2.697   0.065 -1.5654  0.8800  0.1313
13706TIP3   OH262532   0.528   0.504   5.721 -0.3131  0.5310  0.2124
13706TIP3    H162533   0.520   0.437   5.654 -2.7527  2.0327 -1.1840
13706TIP3    H262534   0.610   0.485   5.766 -0.7108 -3.1009 -0.3302
13707TIP3   OH262535   2.288   0.301   5.699  0.4434 -0.4897  0.1500
13707TIP3    H162536   2.230   0.255   5.639  1.5326 -2.2006  0.3570
13707TIP3    H262537   2.233   0.321   5.775  0.4431 -3.8043  1.1970
13708TIP3   OH262538   6.218   1.468   6.172  0.0959 -0.1033 -0.3717
13708TIP3    H162539   6.236   1.526   6.098 -0.9974 -0.2653 -0.7890
13708TIP3    H262540   6.123   1.453   6.168  0.1439 -0.7533  0.5911
13709TIP3   OH262541   3.532   0.668  15.606  0.9533 -0.0501 -0.0433
13709TIP3    H162542   3.613   0.624  15.631  1.0741  0.4615  0.4853
13709TIP3    H262543   3.510   0.632  15.521  1.2724 -0.8318  0.1980
13710TIP3   OH262544   0.726   6.042  14.110 -0.5005 -0.9987 -0.1920
13710TIP3    H162545   0.743   5.963  14.059  1.4097 -1.0037  0.3795
13710TIP3    H262546   0.806   6.093  14.103 -1.5727  0.7418 -0.2483
13711TIP3   OH262547   3.514   1.996   2.631 -0.4041 -0.0548  0.7580
13711TIP3    H162548   3.517   2.080   2.585  0.8506  0.1309  1.1425
13711TIP3    H262549   3.604   1.982   2.660 -0.8175 -1.0372  1.6004
13712TIP3   OH262550   3.739   1.489  13.110  0.0862 -0.1956 -0.2812
13712TIP3    H162551   3.814   1.532  13.069  1.1177 -1.5664  0.0784
13712TIP3    H262552   3.776   1.447  13.188 -0.6445 -2.4264 -1.0611
13713TIP3   OH262553   0.779   2.121   0.778  0.0699 -0.8539  0.9719
13713TIP3    H162554   0.798   2.192   0.838  1.3612 -1.3170  1.1297
13713TIP3    H262555   0.784   2.161   0.691  2.0460 -0.9793  0.9857
13714TIP3   OH262556   4.706   4.868   0.350 -0.7770  0.2234  0.1476
13714TIP3    H162557   4.715   4.892   0.442  1.5337 -0.3028  0.1329
13714TIP3    H262558   4.796   4.854   0.320 -1.4886  0.0310 -2.1078
13715TIP3   OH262559   0.897   5.283  10.737  0.1160 -0.5063  0.0336
13715TIP3    H162560   0.982   5.291  10.780  0.7749 -0.7459 -1.1997
13715TIP3    H262561   0.899   5.197  10.695 -0.6063 -0.3747 -0.2780
13716TIP3   OH262562   0.777   2.849  11.740  0.2330 -0.1551 -0.0594
13716TIP3    H162563   0.858   2.862  11.788  1.1010  0.9234 -1.7267
13716TIP3    H262564   0.716   2.812  11.804  1.4624  0.7670  1.7013
13717TIP3   OH262565   5.037   0.860   3.476  0.4450  0.2186  0.3977
13717TIP3    H162566   5.075   0.941   3.510 -1.4146  1.3622 -0.1100
13717TIP3    H262567   5.112   0.809   3.445  1.6785  1.6179  0.9722
13718TIP3   OH262568   0.180   0.899  12.614  0.3767 -0.3087  0.4315
13718TIP3    H162569   0.191   0.983  12.569 -1.3470 -0.1586  0.1944
13718TIP3    H262570   0.205   0.834  12.549 -1.3070 -0.0615 -0.5285
13719TIP3   OH262571   0.163   4.702  17.078 -0.7118  0.4549  0.4940
13719TIP3    H162572   0.164   4.789  17.118 -0.6328  0.3713  0.6718
13719TIP3    H262573   0.254   4.672  17.084 -0.7646  0.3058  0.5483
13720TIP3   OH262574   4.536   6.023   4.181 -0.3101  0.5074 -0.5341
13720TIP3    H162575   4.513   6.116   4.173  0.7633  0.7585 -0.8012
13720TIP3    H262576   4.558   6.012   4.274 -1.2937  0.3101 -0.3176
13721TIP3   OH262577   2.099   4.747   4.043  0.1754 -0.4003 -0.1143
13721TIP3    H162578   2.054   4.681   3.990 -2.6492 -0.7742  2.4611
13721TIP3    H262579   2.037   4.819   4.051  2.8295  2.3642 -2.0644
13722TIP3   OH262580   5.067   3.716   3.659 -0.5028  0.4168  0.0515
13722TIP3    H162581   5.064   3.778   3.732  0.5072  0.3955  0.1201
13722TIP3    H262582   4.985   3.667   3.666 -0.7514  0.9153  0.7255
13723TIP3   OH262583   5.055   2.089   3.643  0.1067  0.2667 -0.4779
13723TIP3    H162584   5.001   2.090   3.722  1.6558 -1.8897  0.7293
13723TIP3    H262585   5.143   2.107   3.674  0.5793  0.5213 -1.9037
13724TIP3   OH262586   4.601   0.973  11.672  0.4895 -0.0912 -0.1708
13724TIP3    H162587   4.664   1.015  11.614  0.9246 -1.7978 -0.9964
13724TIP3    H262588   4.651   0.953  11.752  0.8050 -0.7115 -0.5128
13725TIP3   OH262589   1.372   5.515   1.424 -0.0514  0.5915  0.3188
13725TIP3    H162590   1.345   5.519   1.515 -0.3175 -1.0935  0.3543
13725TIP3    H262591   1.319   5.581   1.379  0.8199  2.1723  1.5127
13726TIP3   OH262592   3.229   5.309  13.256  0.5930  0.0730 -0.3221
13726TIP3    H162593   3.252   5.402  13.254 -0.5697  0.3690 -1.0875
13726TIP3    H262594   3.273   5.272  13.179  1.2130 -0.0618  0.0897
13727TIP3   OH262595   4.347   5.771  12.689  0.2754  0.0285  0.2236
13727TIP3    H162596   4.436   5.784  12.657 -0.4323  0.4328 -1.7050
13727TIP3    H262597   4.311   5.702  12.633 -0.7174  0.0452  0.8112
13728TIP3   OH262598   0.435   1.087  15.883 -0.1209 -0.4498  0.0458
13728TIP3    H162599   0.362   1.057  15.828  1.0710 -0.8569 -1.3973
13728TIP3    H262600   0.397   1.156  15.938 -2.1492 -2.2943  1.1051
13729TIP3   OH262601   3.596   1.447   4.040  0.5574 -0.7018 -0.5913
13729TIP3    H162602   3.501   1.447   4.031  0.5223  0.5737 -0.3520
13729TIP3    H262603   3.613   1.392   4.117 -0.1255  0.5605  0.4872
13730TIP3   OH262604   0.564   4.508   5.223  0.3243 -0.8091  0.0453
13730TIP3    H162605   0.581   4.484   5.314 -0.7646 -0.3897  0.3755
13730TIP3    H262606   0.491   4.568   5.228  1.4228  0.6700 -0.9723
13731TIP3   OH262607   1.377   3.948   4.228 -0.0228  0.1318 -0.7816
13731TIP3    H162608   1.343   3.885   4.291 -0.2274 -0.7548 -1.7618
13731TIP3    H262609   1.432   3.897   4.170 -1.0399  0.6272 -2.2442
13732TIP3   OH262610   5.029   4.539  11.769  0.1424  0.1303  0.5548
13732TIP3    H162611   4.957   4.565  11.827  0.8970  1.0047  1.1222
13732TIP3    H262612   4.989   4.532  11.682 -1.3792 -2.7882  1.3453
13733TIP3   OH262613   4.527   4.931   2.509 -0.5901  0.3853 -0.1880
13733TIP3    H162614   4.451   4.882   2.478 -0.4535  0.0993 -0.0777
13733TIP3    H262615   4.601   4.894   2.461 -0.2713 -0.5707  0.9882
13734TIP3   OH262616   6.172   6.546   0.996 -0.0989 -0.1123  0.4797
13734TIP3    H162617   6.229   6.478   1.030 -1.2000 -1.1292  0.3851
13734TIP3    H262618   6.103   6.498   0.950 -0.3103  1.1163 -0.5358
13735TIP3   OH262619   0.213   3.115  16.682  0.0133  0.0607 -0.5742
13735TIP3    H162620   0.274   3.172  16.636 -0.3403 -0.2737 -1.4920
13735TIP3    H262621   0.263   3.035  16.700  0.2210  0.2825 -0.1687
13736TIP3   OH262622   1.900   3.022  12.912 -0.1282 -0.0957  0.4397
13736TIP3    H162623   1.976   3.071  12.882  0.5813 -0.3113  1.7711
13736TIP3    H262624   1.918   2.932  12.885  0.2694 -0.2037  1.0347
13737TIP3   OH262625   2.520   1.690   4.939 -0.5997 -0.1420 -0.4143
13737TIP3    H162626   2.488   1.762   4.884 -1.5107  0.5144  0.9395
13737TIP3    H262627   2.450   1.625   4.936 -1.5732  0.7441  1.5105
13738TIP3   OH262628   2.775   0.373   0.866 -0.4787 -0.0634 -0.1252
13738TIP3    H162629   2.831   0.378   0.943 -2.5201 -2.0902  1.6012
13738TIP3    H262630   2.754   0.280   0.856 -0.8109  0.2106 -2.7618
13739TIP3   OH262631   2.094   4.987  11.328  0.0082  0.2664 -0.1446
13739TIP3    H162632   2.133   4.913  11.374  1.0305  0.2023 -1.0873
13739TIP3    H262633   2.073   5.050  11.398 -0.4920 -0.7169  0.6174
13740TIP3   OH262634   2.189   0.407  12.823  0.3646 -0.2868 -0.2461
13740TIP3    H162635   2.208   0.318  12.792  0.9791 -0.2211 -0.0762
13740TIP3    H262636   2.106   0.399  12.869  0.0987 -0.6455 -0.7801
13741TIP3   OH262637   3.356   3.416  17.070  0.1905  0.4286  0.7575
13741TIP3    H162638   3.383   3.347  17.010  0.5997 -0.2472  1.6991
13741TIP3    H262639   3.283   3.459  17.026  0.5027 -0.0244 -0.2325
13742TIP3   OH262640   4.007   3.533  13.731  0.5936 -0.0897 -0.6240
13742TIP3    H162641   3.978   3.614  13.772 -0.2526 -1.7572  2.4155
13742TIP3    H262642   3.987   3.544  13.639 -2.9390  1.7689  0.1985
13743TIP3   OH262643   3.808   2.579  13.340  0.1739  0.3978  0.0868
13743TIP3    H162644   3.825   2.652  13.281  1.2789  0.5102  0.5316
13743TIP3    H262645   3.889   2.529  13.341 -0.0111  0.0978  1.0950
13744TIP3   OH262646   4.597   3.625  14.304  0.8023  0.0517  0.1644
13744TIP3    H162647   4.678   3.676  14.304  1.0529 -0.3057 -1.4064
13744TIP3    H262648   4.613   3.556  14.240 -0.8544  0.1562 -0.3878
13745TIP3   OH262649   0.228   3.461  13.452  0.5432  0.3461  0.0095
13745TIP3    H162650   0.259   3.547  13.425  3.1261 -0.2669  0.7594
13745TIP3    H262651   0.275   3.443  13.533  1.1075 -2.3130 -0.8124
13746TIP3   OH262652   0.957   6.661  14.857 -0.2478 -0.0424  0.4099
13746TIP3    H162653   0.887   6.605  14.890  0.2469 -1.4330 -0.7824
13746TIP3    H262654   0.984   6.713  14.933 -0.9991 -1.1386  1.4655
13747TIP3   OH262655   3.029   1.634   6.426 -0.2921  0.2511  0.0435
13747TIP3    H162656   3.009   1.722   6.395  1.7274  0.4150 -0.9187
13747TIP3    H262657   3.123   1.624   6.413  0.0336 -1.0862  2.6693
13748TIP3   OH262658   5.977   4.134  13.551 -0.5807 -0.2300 -0.3777
13748TIP3    H162659   5.946   4.104  13.466 -1.2320 -2.9960  0.7020
13748TIP3    H262660   5.992   4.053  13.600 -2.2177  1.1935  2.8073
13749TIP3   OH262661   1.936   6.661  12.578  0.1173 -0.1319  0.7138
13749TIP3    H162662   1.933   6.570  12.550 -2.0784  0.7623 -2.5463
13749TIP3    H262663   1.863   6.670  12.639 -1.1821 -0.1338 -0.7748
13750TIP3   OH262664   6.464   6.448  11.568  0.7413 -0.2239 -0.0288
13750TIP3    H162665   6.516   6.506  11.625  0.5076  0.3431 -0.3822
13750TIP3    H262666   6.510   6.364  11.571  1.7773  0.3102 -0.4475
13751TIP3   OH262667   3.268   4.988   4.288  0.5578 -0.6525  0.7385
13751TIP3    H162668   3.276   4.941   4.371  1.6581 -1.9705 -0.0743
13751TIP3    H262669   3.177   4.974   4.261 -0.0729  0.5335  2.1072
13752TIP3   OH262670   6.640   2.561   1.592 -0.6573  0.0436  0.4385
13752TIP3    H162671   6.693   2.525   1.663 -1.4564 -0.3950  0.8258
13752TIP3    H262672   6.596   2.637   1.630  0.3588  0.9555 -0.1352
13753TIP3   OH262673   1.561   3.168   0.033  0.2107 -0.9160 -0.3438
13753TIP3    H162674   1.523   3.159   0.121 -0.5113 -1.9202 -0.7412
13753TIP3    H262675   1.654   3.182   0.049  0.1428 -1.4007  0.5858
13754TIP3   OH262676   3.497   1.083   3.920 -0.2829  0.3530  0.1531
13754TIP3    H162677   3.484   1.119   3.832  1.0629 -2.3102 -1.2449
13754TIP3    H262678   3.411   1.049   3.946 -0.4409  0.1954 -0.5740
13755TIP3   OH262679   5.513   1.950  15.853 -0.3772  0.7263 -0.4371
13755TIP3    H162680   5.518   2.044  15.836  1.1118  1.3624  2.7075
13755TIP3    H262681   5.591   1.931  15.906 -0.4764 -2.3833 -1.1826
13756TIP3   OH262682   0.217   4.841   4.533 -0.1280  0.2830 -0.1104
13756TIP3    H162683   0.169   4.852   4.615  0.5931 -0.0399  0.3635
13756TIP3    H262684   0.228   4.747   4.524  0.8056  0.3602  0.0356
13757TIP3   OH262685   1.045   0.270   2.631  0.1425  0.2378  0.0279
13757TIP3    H162686   0.980   0.298   2.567 -1.9397  0.5542  2.1566
13757TIP3    H262687   1.119   0.328   2.617 -1.3490  2.1483 -0.2926
13758TIP3   OH262688   4.083   3.674   5.612  0.2578  0.1142 -0.3571
13758TIP3    H162689   4.013   3.721   5.567 -0.2954 -0.3824 -0.0325
13758TIP3    H262690   4.111   3.733   5.682 -0.5804 -0.1115  0.1812
13759TIP3   OH262691   3.861   6.157   3.063 -0.5586 -0.2526 -0.3148
13759TIP3    H162692   3.832   6.244   3.036 -1.7852 -0.7823 -0.7634
13759TIP3    H262693   3.793   6.126   3.123 -0.3456 -1.0623 -0.4698
13760TIP3   OH262694   3.211   1.740   0.879 -0.6170 -0.3568 -0.4494
13760TIP3    H162695   3.127   1.697   0.861 -2.1101  2.5478 -1.1250
13760TIP3    H262696   3.230   1.790   0.800  1.4487 -0.4298 -0.0400
13761TIP3   OH262697   0.117   0.941  16.983  0.0889 -0.2808 -0.0520
13761TIP3    H162698   0.209   0.951  16.957  0.0616 -0.8905 -0.3882
13761TIP3    H262699   0.072   1.013  16.940  0.5128  0.4513  0.6833
13762TIP3   OH262700   0.234   1.916   0.989  0.4404 -0.1403 -0.1328
13762TIP3    H162701   0.168   1.856   1.024  0.3520  0.8710  1.5610
13762TIP3    H262702   0.215   1.999   1.032  0.8607  1.0053 -2.0291
13763TIP3   OH262703   1.417   0.677   3.901  0.3791  0.2935 -0.2496
13763TIP3    H162704   1.415   0.672   3.805 -1.0375  2.7928 -0.4584
13763TIP3    H262705   1.474   0.606   3.928 -1.6713 -2.5853 -2.7533
13764TIP3   OH262706   0.611   2.879  12.529 -0.2495  0.6953 -0.4806
13764TIP3    H162707   0.571   2.866  12.444 -0.0183 -1.5258 -0.3185
13764TIP3    H262708   0.554   2.940  12.574 -1.3203  0.5590 -1.6140
13765TIP3   OH262709   5.307   1.653   0.794 -0.2172 -0.2423 -0.2650
13765TIP3    H162710   5.301   1.559   0.812 -2.1740  0.0945  1.1221
13765TIP3    H262711   5.225   1.689   0.827 -0.0110  1.8201 -1.8120
13766TIP3   OH262712   5.799   1.815   0.392 -0.2676  0.3866 -0.5794
13766TIP3    H162713   5.829   1.770   0.471 -1.3074 -0.6249 -0.7332
13766TIP3    H262714   5.857   1.891   0.384 -0.5885  0.9397  1.5695
13767TIP3   OH262715   3.127   4.670   1.963 -0.7690 -0.6032  0.4291
13767TIP3    H162716   3.112   4.711   1.878  1.5590 -1.4457 -0.4434
13767TIP3    H262717   3.064   4.598   1.967 -2.0741  0.4827  0.2193
13768TIP3   OH262718   4.531   0.527  16.058  0.3397 -0.1122  0.1382
13768TIP3    H162719   4.458   0.479  16.019  0.1373 -0.0153  0.3931
13768TIP3    H262720   4.495   0.615  16.075  0.8784  0.3139 -0.8762
13769TIP3   OH262721   3.177   4.127  13.144  0.0872 -0.0534 -0.0568
13769TIP3    H162722   3.177   4.043  13.189 -1.8741 -0.2788 -0.4252
13769TIP3    H262723   3.163   4.106  13.052  1.7920  0.5629 -0.4978
13770TIP3   OH262724   6.278   2.562   1.489  0.6655  0.1361  0.2718
13770TIP3    H162725   6.248   2.565   1.579  1.8067  1.1892  0.6487
13770TIP3    H262726   6.199   2.573   1.436  0.0480 -0.0523  1.1491
13771TIP3   OH262727   6.433   0.075  13.289  0.2846 -0.8818 -0.0066
13771TIP3    H162728   6.348   0.114  13.269 -0.6301 -2.4122  0.6595
13771TIP3    H262729   6.427  -0.014  13.255  2.6082 -0.2929 -2.2771
13772TIP3   OH262730   4.729   0.306  12.930  0.5994 -0.4686  0.5053
13772TIP3    H162731   4.690   0.364  12.864  0.6498 -0.1725  0.7304
13772TIP3    H262732   4.823   0.310  12.912  0.7126  0.4287  1.2337
13773TIP3   OH262733   3.328   6.804   0.972  0.6998 -0.3534 -0.1516
13773TIP3    H162734   3.262   6.870   0.997  0.2513 -0.6347 -0.5725
13773TIP3    H262735   3.338   6.750   1.050  0.3817 -0.3413 -0.0984
13774TIP3   OH262736   0.258   1.864   2.902 -0.1365 -0.7513 -0.1663
13774TIP3    H162737   0.220   1.836   2.985  1.3436  0.1167  0.8438
13774TIP3    H262738   0.343   1.822   2.899  0.4339  0.3918 -0.5410
13775TIP3   OH262739   0.533   0.294   4.711  0.2347  0.1021 -1.0099
13775TIP3    H162740   0.605   0.237   4.738  0.6169  0.4462 -1.2746
13775TIP3    H262741   0.464   0.235   4.683  1.2186 -0.2550 -2.8400
13776TIP3   OH262742   4.519   3.576   2.812 -0.2758  0.1517 -0.3817
13776TIP3    H162743   4.455   3.542   2.874 -1.6177  0.3735 -1.5825
13776TIP3    H262744   4.468   3.632   2.753  1.4961  2.5900  0.2443
13777TIP3   OH262745   0.621   2.744  15.794  1.1067 -0.5199  0.2316
13777TIP3    H162746   0.640   2.728  15.702  0.7438 -0.5645  0.1619
13777TIP3    H262747   0.608   2.657  15.832  0.1000 -0.4507  0.0661
13778TIP3   OH262748   2.465   4.101  13.217 -0.3223 -0.0926 -0.2354
13778TIP3    H162749   2.377   4.126  13.189 -0.7350  0.2864  1.3095
13778TIP3    H262750   2.511   4.080  13.136 -2.3443 -2.0250 -0.9899
13779TIP3   OH262751   0.697   3.182   0.582  0.6107 -0.7822  0.3481
13779TIP3    H162752   0.782   3.149   0.552 -0.3188  0.1106 -3.9538
13779TIP3    H262753   0.693   3.271   0.547 -1.6321 -0.3886  1.4582
13780TIP3   OH262754   3.637   4.341   3.107 -0.1483  0.2082 -0.0924
13780TIP3    H162755   3.688   4.363   3.029 -1.3711  1.2833 -0.6158
13780TIP3    H262756   3.655   4.248   3.122  0.0179 -0.0452 -1.7126
13781TIP3   OH262757   4.116   2.116   3.466  0.2660 -0.3979 -0.0247
13781TIP3    H162758   4.036   2.137   3.514  0.5760 -1.4392  0.9913
13781TIP3    H262759   4.086   2.066   3.390 -0.1863  0.8046 -0.6578
13782TIP3   OH262760   1.416   0.215   3.192  0.2366  0.3422 -0.5686
13782TIP3    H162761   1.451   0.131   3.223 -0.9944 -0.9734 -2.4806
13782TIP3    H262762   1.486   0.251   3.138  1.7294  1.8413  2.1277
13783TIP3   OH262763   6.625   1.247  12.326  0.1640  0.0945  0.4291
13783TIP3    H162764   6.602   1.170  12.378 -0.6727  0.4802  0.6497
13783TIP3    H262765   6.547   1.264  12.273  0.2091  0.9829  0.6294
13784TIP3   OH262766   4.941   6.335   0.023 -0.4616 -0.6574 -0.2559
13784TIP3    H162767   5.031   6.309   0.044 -0.6982 -0.9928  0.3341
13784TIP3    H262768   4.952   6.415  -0.029  0.1504 -0.1920  0.5712
13785TIP3   OH262769   0.597   0.690   1.770 -0.2196 -0.2708 -0.2783
13785TIP3    H162770   0.580   0.781   1.794 -0.7078 -0.5866  0.6403
13785TIP3    H262771   0.607   0.691   1.675 -1.0855  0.6046 -0.3682
13786TIP3   OH262772   6.786   2.371  10.431  0.1097 -0.0589 -0.0406
13786TIP3    H162773   6.862   2.313  10.426  1.2051  1.2370  0.7074
13786TIP3    H262774   6.823   2.457  10.454 -1.7347  0.3032  1.8546
13787TIP3   OH262775   2.164   2.840  14.269  0.3186  0.1032  0.6639
13787TIP3    H162776   2.252   2.828  14.235 -0.3822 -0.4156 -1.1093
13787TIP3    H262777   2.135   2.924  14.232 -0.5651 -0.6051 -0.3208
13788TIP3   OH262778   0.691   5.942   6.662 -0.1175 -0.0686 -0.1562
13788TIP3    H162779   0.780   5.919   6.636 -0.5738 -0.3921 -1.4953
13788TIP3    H262780   0.638   5.868   6.634 -0.6880 -0.3558  1.5754
13789TIP3   OH262781   6.390   5.339   5.383  0.4799 -0.4098  0.3441
13789TIP3    H162782   6.370   5.252   5.347  0.5442 -0.2256 -0.1399
13789TIP3    H262783   6.306   5.385   5.383  0.2361 -0.8263  1.5951
13790TIP3   OH262784   3.130   2.340  10.632  0.2026  0.1334  0.8724
13790TIP3    H162785   3.076   2.375  10.561  0.1981 -0.0721  0.7732
13790TIP3    H262786   3.179   2.269  10.592  2.4240  1.8781  0.3235
13791TIP3   OH262787   5.693   5.179  13.150 -0.4192  0.0042 -0.5815
13791TIP3    H162788   5.632   5.234  13.200 -0.5015 -0.3677 -0.2648
13791TIP3    H262789   5.639   5.109  13.114 -0.1119 -0.6066  0.1105
13792TIP3   OH262790   1.715   2.299  14.461  0.0031  0.2858  0.3344
13792TIP3    H162791   1.752   2.368  14.406  0.5850  1.0740  1.6648
13792TIP3    H262792   1.639   2.339  14.502  0.1577  0.0438  0.8687
13793TIP3   OH262793   1.676   6.012  10.873  0.2027  0.0114 -0.0971
13793TIP3    H162794   1.770   6.025  10.861  0.4734  1.1945  2.4905
13793TIP3    H262795   1.667   5.997  10.967 -2.0967 -1.2819 -0.4707
13794TIP3   OH262796   4.046   3.507  16.588 -0.1098  0.3425 -0.2725
13794TIP3    H162797   4.078   3.542  16.671 -0.3596 -0.5214  0.2039
13794TIP3    H262798   4.027   3.584  16.535  1.5820  0.9109 -0.1283
13795TIP3   OH262799   2.712   2.488  14.311  0.1123  0.5157  0.3307
13795TIP3    H162800   2.629   2.514  14.351  0.1930 -1.0012  1.5757
13795TIP3    H262801   2.763   2.569  14.305 -0.8780  1.2048  0.9230
13796TIP3   OH262802   0.307   6.180  16.094 -0.1359  0.3451  0.5092
13796TIP3    H162803   0.369   6.252  16.106  2.4453 -1.8862  1.4680
13796TIP3    H262804   0.267   6.169  16.180  1.7996 -1.2504  1.2932
13797TIP3   OH262805   4.309   0.047  12.116  0.0174  0.2004  0.8426
13797TIP3    H162806   4.355   0.116  12.069 -1.2089 -1.3488 -3.1041
13797TIP3    H262807   4.233   0.091  12.155 -0.3088  1.2695 -0.9009
13798TIP3   OH262808   0.134   4.887   5.150 -0.1083 -0.6195  0.2716
13798TIP3    H162809   0.207   4.826   5.161 -0.8394 -1.4062  1.0305
13798TIP3    H262810   0.094   4.891   5.237 -0.4188  0.5128  0.0886
13799TIP3   OH262811   2.128   1.684  15.351 -0.2000  0.4250 -0.0854
13799TIP3    H162812   2.217   1.720  15.359  0.4151 -0.3655 -2.5850
13799TIP3    H262813   2.091   1.728  15.275 -1.7387  0.2856  0.5599
13800TIP3   OH262814   5.310   1.649  15.429 -0.0933  0.2168 -0.5152
13800TIP3    H162815   5.233   1.691  15.467  0.3297  0.3870  0.1748
13800TIP3    H262816   5.351   1.719  15.377  0.6832  0.7411  0.7401
13801TIP3   OH262817   3.141   4.663   3.683 -0.0129  0.0490 -0.5953
13801TIP3    H162818   3.074   4.625   3.739  2.6405 -1.3447  1.8574
13801TIP3    H262819   3.098   4.672   3.598 -3.0910 -1.2940  0.6675
13802TIP3   OH262820   1.060   5.431  12.778  0.4139 -0.0086 -0.7265
13802TIP3    H162821   0.996   5.456  12.844 -0.0337 -1.4542 -0.5653
13802TIP3    H262822   1.135   5.487  12.794 -0.2230  0.6283  0.0982
13803TIP3   OH262823   6.649   0.295   4.099  0.0092 -0.1598  0.2862
13803TIP3    H162824   6.650   0.204   4.070 -0.1708  0.1024 -0.5861
13803TIP3    H262825   6.570   0.303   4.152 -0.0795 -0.4645  0.1990
13804TIP3   OH262826   4.159   5.726   1.103  0.4395  0.0355 -0.4339
13804TIP3    H162827   4.184   5.716   1.011  0.9174  1.4420 -0.4817
13804TIP3    H262828   4.090   5.792   1.102 -1.3255 -1.7154  0.0020
13805TIP3   OH262829   2.989   1.955   5.961  0.5593 -0.6859  0.1385
13805TIP3    H162830   2.958   1.908   5.883 -0.1091  1.7374 -1.1533
13805TIP3    H262831   2.918   2.014   5.984  1.1589 -0.6280  2.0052
13806TIP3   OH262832   3.121   5.564  15.871 -0.3709 -0.3812 -0.7422
13806TIP3    H162833   3.069   5.603  15.941 -0.5225 -0.8931 -0.5629
13806TIP3    H262834   3.160   5.486  15.911  2.1612  1.0332 -0.2623
13807TIP3   OH262835   3.676   5.100  16.000  0.0148 -0.1663  0.1317
13807TIP3    H162836   3.627   5.020  15.982 -1.4962  0.6414  0.4839
13807TIP3    H262837   3.661   5.155  15.923 -0.3094  0.4043  0.5942
13808TIP3   OH262838   5.238   0.336   1.061  0.2561  0.1448  0.3304
13808TIP3    H162839   5.162   0.347   1.119  0.3795 -0.4377  0.6047
13808TIP3    H262840   5.241   0.418   1.011 -1.0566 -0.1584 -0.2892
13809TIP3   OH262841   0.788   5.531  10.752  0.1436 -0.0898 -0.1345
13809TIP3    H162842   0.800   5.562  10.841 -1.7669  0.1712  0.0727
13809TIP3    H262843   0.828   5.444  10.752  0.3797  0.0017  0.9010
13810TIP3   OH262844   5.205   5.952   4.992 -0.4598 -0.2992 -0.3776
13810TIP3    H162845   5.269   6.015   4.960 -1.6870  1.3297  0.2050
13810TIP3    H262846   5.228   5.938   5.084 -0.0164 -0.9393 -0.5830
13811TIP3   OH262847   0.581   2.210   6.368  0.0815  0.2196  0.3552
13811TIP3    H162848   0.589   2.126   6.324  0.4028  0.9570 -1.0405
13811TIP3    H262849   0.492   2.240   6.348 -0.2290 -0.0240  1.3117
13812TIP3   OH262850   3.848   1.747   5.559  0.5151 -0.3151  0.6956
13812TIP3    H162851   3.929   1.746   5.610 -0.5243  0.8568  2.4528
13812TIP3    H262852   3.821   1.839   5.559 -0.3493 -0.5443 -0.6592
13813TIP3   OH262853   2.323   0.614   1.073  0.0784  0.6223 -0.1702
13813TIP3    H162854   2.252   0.670   1.105  0.0660  0.2777  0.4278
13813TIP3    H262855   2.328   0.632   0.980 -2.4982 -1.1679 -0.7550
13814TIP3   OH262856   3.742   3.173  13.712 -0.2022 -0.0006 -0.2059
13814TIP3    H162857   3.796   3.110  13.665  1.3976  1.0118  0.1892
13814TIP3    H262858   3.659   3.128  13.726  1.6014 -2.9893  2.1687
13815TIP3   OH262859   2.602   3.413  15.833  0.1960 -0.2704  0.0856
13815TIP3    H162860   2.537   3.437  15.767  1.7014 -0.0081 -1.3605
13815TIP3    H262861   2.578   3.466  15.910 -1.6471 -0.6534 -0.1598
13816TIP3   OH262862   1.766   1.843   3.739  0.3820  0.7553  0.3398
13816TIP3    H162863   1.836   1.836   3.674 -0.1674  2.9567 -0.6090
13816TIP3    H262864   1.777   1.930   3.777 -0.1840  0.0562  2.1883
13817TIP3   OH262865   1.796   0.951   2.323 -0.0003 -0.0597  0.8161
13817TIP3    H162866   1.857   1.024   2.314  0.4704 -0.5108  0.2726
13817TIP3    H262867   1.809   0.918   2.412 -0.3645  0.6449  1.1325
13818TIP3   OH262868   0.822   6.334   2.885 -0.0465 -0.1354 -0.1565
13818TIP3    H162869   0.827   6.267   2.953 -1.4910  0.0930  0.2076
13818TIP3    H262870   0.837   6.417   2.932  0.6809 -0.1061 -0.4256
13819TIP3   OH262871   4.549   1.256  16.413  0.2993  0.8294 -0.2606
13819TIP3    H162872   4.627   1.289  16.369  0.1204  0.1924 -1.0745
13819TIP3    H262873   4.492   1.333  16.421  1.1257  1.3789  0.6589
13820TIP3   OH262874   3.440   6.479   0.182 -0.1204 -0.2021 -0.2014
13820TIP3    H162875   3.448   6.535   0.105 -0.6647  0.6774  0.3558
13820TIP3    H262876   3.434   6.390   0.148 -2.5042  0.3129 -1.2972
13821TIP3   OH262877   5.042   1.739  10.790 -0.8681 -0.4466  0.1262
13821TIP3    H162878   5.128   1.698  10.801  0.1316  1.7542  0.9699
13821TIP3    H262879   4.980   1.666  10.797  0.8393 -1.8979  0.9325
13822TIP3   OH262880   2.147   6.391  14.300 -0.3670 -0.0627 -0.3329
13822TIP3    H162881   2.064   6.437  14.311 -0.0162  0.4409  0.2673
13822TIP3    H262882   2.211   6.460  14.284  0.3957 -0.1607  1.8468
13823TIP3   OH262883   4.010   1.869  15.312  0.7463  0.4675 -0.2344
13823TIP3    H162884   3.941   1.848  15.249  0.1539  0.3998  0.4181
13823TIP3    H262885   4.082   1.809  15.290  0.4624  0.2901 -0.6954
13824TIP3   OH262886   0.641   1.688   1.993  0.3973  0.0586 -0.5220
13824TIP3    H162887   0.697   1.615   1.969  0.3638  0.3772 -1.5921
13824TIP3    H262888   0.631   1.739   1.913  2.4862  2.6516  0.7115
13825TIP3   OH262889   4.259   1.154   4.008  0.0013  0.0959 -0.4470
13825TIP3    H162890   4.215   1.077   4.043  1.8991 -0.8226  0.0792
13825TIP3    H262891   4.205   1.228   4.036 -1.8682 -1.0227 -0.9799
13826TIP3   OH262892   0.503   2.600   1.060  0.1448  0.1596 -0.2075
13826TIP3    H162893   0.473   2.652   1.134 -1.7906 -1.6718  0.4183
13826TIP3    H262894   0.468   2.644   0.983 -0.5794  0.3420  0.2216
13827TIP3   OH262895   6.669   3.779   6.004 -0.1002  0.1326 -1.0041
13827TIP3    H162896   6.627   3.755   6.087 -1.1127  0.5724 -1.3748
13827TIP3    H262897   6.762   3.759   6.017 -0.4067 -0.7706 -0.1305
13828TIP3   OH262898   1.048   3.412  15.605  0.3235 -0.1948  0.0405
13828TIP3    H162899   1.045   3.487  15.545 -0.5210  0.1366  0.4672
13828TIP3    H262900   1.074   3.338  15.551  2.1037  0.5697 -0.2063
13829TIP3   OH262901   2.163   5.790  13.001 -0.4161 -0.3292 -0.2945
13829TIP3    H162902   2.200   5.725  13.061 -0.6155  0.2329  0.4545
13829TIP3    H262903   2.195   5.764  12.915 -1.4846 -2.1401 -0.1931
13830TIP3   OH262904   2.899   5.032   3.528  0.0677  0.0996 -0.0927
13830TIP3    H162905   2.858   4.963   3.581 -1.4167  0.4168 -0.7534
13830TIP3    H262906   2.825   5.083   3.496  0.9373  0.1996 -2.0837
13831TIP3   OH262907   6.759   1.382  14.547 -0.6641  0.6616 -0.3257
13831TIP3    H162908   6.689   1.412  14.604 -0.2158  3.1162 -0.9846
13831TIP3    H262909   6.714   1.341  14.473 -1.3928  1.7106 -0.4710
13832TIP3   OH262910   0.928   0.522  13.601  0.9195 -0.1174  0.2712
13832TIP3    H162911   0.931   0.463  13.526  2.0900 -0.0772  0.2796
13832TIP3    H262912   0.965   0.471  13.673  0.7626  0.1999  0.5771
13833TIP3   OH262913   4.117   6.540   3.843  0.2914 -0.4941 -0.3035
13833TIP3    H162914   4.134   6.481   3.770  0.8320 -1.5567  0.6377
13833TIP3    H262915   4.183   6.517   3.908 -0.4400  0.1194  0.6898
13834TIP3   OH262916   4.395   6.676   4.022  0.3193 -0.2367  0.1758
13834TIP3    H162917   4.332   6.627   4.075  0.3518  1.7739  2.2421
13834TIP3    H262918   4.440   6.732   4.085  4.6605 -1.9218 -1.0509
13835TIP3   OH262919   5.043   3.940   5.966 -0.7222  0.0749  0.4061
13835TIP3    H162920   5.017   4.007   5.902  1.0471  0.1635 -0.2828
13835TIP3    H262921   5.065   3.863   5.913  1.1813  0.2824  0.8055
13836TIP3   OH262922   1.344   2.730  11.738  0.2921 -0.6472 -0.0438
13836TIP3    H162923   1.267   2.696  11.692  0.0710  1.9317 -1.7954
13836TIP3    H262924   1.310   2.760  11.823 -0.6055  0.1425 -0.6565
13837TIP3   OH262925   5.580   5.451  16.262  0.3085  0.2336  0.4053
13837TIP3    H162926   5.662   5.500  16.260  0.7828 -0.3512  2.7533
13837TIP3    H262927   5.528   5.494  16.330 -1.4338  0.6657 -1.1222
13838TIP3   OH262928   2.242   1.243  13.612  0.4151  0.0933 -0.7574
13838TIP3    H162929   2.208   1.154  13.609 -1.7832  0.8745 -1.7181
13838TIP3    H262930   2.328   1.235  13.653 -0.1093 -2.3261  0.0545
13839TIP3   OH262931   2.505   3.062  12.041 -0.3612  0.1937 -0.4572
13839TIP3    H162932   2.482   3.111  11.962 -0.8589  2.1443  0.8394
13839TIP3    H262933   2.471   3.115  12.113 -0.6684 -1.9404  1.0653
13840TIP3   OH262934   4.506   3.158  16.643  0.4511 -0.2784 -0.1838
13840TIP3    H162935   4.593   3.134  16.673  0.2881 -1.0786 -0.3261
13840TIP3    H262936   4.520   3.233  16.585  1.1797 -1.0841 -1.0924
13841TIP3   OH262937   6.114   0.201  11.997 -0.1057 -0.3804  0.1078
13841TIP3    H162938   6.146   0.282  11.958  0.8566  1.2688  3.9145
13841TIP3    H262939   6.024   0.220  12.022  0.0045 -0.5914  0.6883
13842TIP3   OH262940   1.890   5.503   4.685 -0.1780  0.0635  0.4144
13842TIP3    H162941   1.918   5.486   4.595  1.2573 -0.6878  0.9640
13842TIP3    H262942   1.882   5.598   4.690  2.7955  0.4255  0.2764
13843TIP3   OH262943   0.399   4.621   0.926  0.6888 -0.2086  0.4886
13843TIP3    H162944   0.445   4.549   0.884  0.2781 -0.3634  0.2914
13843TIP3    H262945   0.329   4.579   0.976  1.2083 -0.0261  1.3729
13844TIP3   OH262946   5.497   5.242  14.939 -0.2808 -0.2666  0.6577
13844TIP3    H162947   5.421   5.186  14.923 -0.6139  0.0342  1.1636
13844TIP3    H262948   5.478   5.322  14.889  0.4741 -0.8216 -0.5607
13845TIP3   OH262949   5.685   2.734   1.318  0.3633  0.4486 -0.1038
13845TIP3    H162950   5.689   2.642   1.291 -0.0786  0.9078 -1.9079
13845TIP3    H262951   5.618   2.737   1.387  1.9409 -0.8890  1.5685
13846TIP3   OH262952   1.032   5.902   1.239 -0.0847 -0.3251  0.0634
13846TIP3    H162953   1.056   5.978   1.292  1.8847 -0.4689 -0.5396
13846TIP3    H262954   1.011   5.938   1.153  1.0566 -0.4379 -0.2839
13847TIP3   OH262955   2.080   4.069   5.700  0.1223  0.5132  0.8348
13847TIP3    H162956   2.175   4.065   5.704  0.1797  0.3264 -0.4130
13847TIP3    H262957   2.050   4.009   5.769  0.8988  0.1041  0.8208
13848TIP3   OH262958   6.525   1.185  11.936 -0.0419  0.4721 -0.1590
13848TIP3    H162959   6.532   1.266  11.885 -0.0087  0.8739  0.4645
13848TIP3    H262960   6.610   1.144  11.927 -0.2273  0.2433 -0.9060
13849TIP3   OH262961   5.003   2.569   0.731 -0.0230  0.6290 -0.0754
13849TIP3    H162962   5.008   2.496   0.794 -3.1996  0.1566 -0.2166
13849TIP3    H262963   5.017   2.647   0.785  0.5008  0.0760  0.6208
13850TIP3   OH262964   5.543   2.334  14.366  0.0975 -0.8211 -0.5354
13850TIP3    H162965   5.628   2.291  14.357 -0.4897 -1.9220 -0.9749
13850TIP3    H262966   5.523   2.366  14.279  0.6027  0.5244 -0.1777
13851TIP3   OH262967   4.955   2.381   4.895 -0.3486 -0.2424 -0.0341
13851TIP3    H162968   4.980   2.289   4.880  1.2996  0.0966  0.4578
13851TIP3    H262969   4.919   2.410   4.811  2.0763 -0.4414 -1.2130
13852TIP3   OH262970   0.332   0.684   2.608 -0.2161 -0.1285 -0.0244
13852TIP3    H162971   0.250   0.636   2.614  0.5852 -1.8597 -1.7061
13852TIP3    H262972   0.312   0.771   2.640 -2.5118 -0.7129  0.2790
13853TIP3   OH262973   1.211   4.869   0.898 -1.0701 -0.4182 -0.4551
13853TIP3    H162974   1.131   4.871   0.845 -0.8305  0.2721 -0.8023
13853TIP3    H262975   1.250   4.955   0.885 -0.1112 -0.8553 -0.5301
13854TIP3   OH262976   2.101   6.296  13.194 -0.4632 -0.2703  0.3600
13854TIP3    H162977   2.039   6.281  13.266  0.6790  0.9345  1.6557
13854TIP3    H262978   2.046   6.303  13.116 -1.9033  0.1109  1.3670
13855TIP3   OH262979   5.562   3.156   1.035 -0.7027  0.0468 -0.3471
13855TIP3    H162980   5.647   3.115   1.018 -0.9115 -0.0210 -1.3330
13855TIP3    H262981   5.502   3.082   1.043 -0.7683  0.1090 -0.2714
13856TIP3   OH262982   2.081   5.941  14.414 -0.8302 -0.2137  0.2082
13856TIP3    H162983   2.127   6.024  14.429 -1.6160  0.4135 -0.7344
13856TIP3    H262984   2.139   5.891  14.356  0.5591 -1.1759  2.3111
13857TIP3   OH262985   5.328   6.041   5.520  0.1371  0.5932  0.4586
13857TIP3    H162986   5.357   6.060   5.609 -0.6944  1.6929  0.5194
13857TIP3    H262987   5.235   6.066   5.519  0.3115  1.3116 -0.9057
13858TIP3   OH262988   5.922   0.147   3.543  0.1723 -0.0942 -0.1936
13858TIP3    H162989   5.887   0.059   3.533  0.0200 -0.0269 -0.2552
13858TIP3    H262990   5.966   0.146   3.628 -1.0848  0.1806  0.4926
13859TIP3   OH262991   5.805   0.898  14.251 -0.1326  0.2128  0.3502
13859TIP3    H162992   5.873   0.909  14.317  1.7320  0.5327 -1.5043
13859TIP3    H262993   5.839   0.944  14.174 -2.4076  0.2385 -0.7174
13860TIP3   OH262994   3.727   2.465  14.461 -0.5811 -0.2846  0.4719
13860TIP3    H162995   3.798   2.415  14.502 -0.4448 -0.3191  0.1943
13860TIP3    H262996   3.689   2.516  14.533  1.7327  2.1600  0.0993
13861TIP3   OH262997   4.104   0.690  15.233  0.3575  0.4003  0.6319
13861TIP3    H162998   4.030   0.714  15.178  0.1397  1.0394  1.1881
13861TIP3    H262999   4.154   0.627  15.181 -1.4012 -1.2538  0.8265
13862TIP3   OH263000   4.093   5.634   6.434  0.0439 -0.2301  0.5739
13862TIP3    H163001   4.010   5.602   6.470  0.0727 -1.4200 -0.3381
13862TIP3    H263002   4.101   5.588   6.350  0.3944  1.7482 -0.5509
13863TIP3   OH263003   1.667   2.372  13.341 -0.0739  0.1028 -0.1296
13863TIP3    H163004   1.603   2.302  13.346 -0.2489  0.3342  1.0522
13863TIP3    H263005   1.616   2.452  13.353  0.5210  0.2438  1.7809
13864TIP3   OH263006   6.475   5.309   5.010  0.0332 -0.4061 -0.0708
13864TIP3    H163007   6.569   5.298   4.998  0.4401  1.8737  0.4119
13864TIP3    H263008   6.468   5.374   5.080 -1.8069  1.2194 -1.6224
13865TIP3   OH263009   4.683   1.434  12.315  0.4370 -0.0417 -0.1995
13865TIP3    H163010   4.685   1.490  12.237  1.1431 -3.9661 -3.2983
13865TIP3    H263011   4.605   1.463  12.363  0.4292  3.1091 -1.8424
13866TIP3   OH263012   4.707   2.923  14.283  0.3368  0.2944 -0.4136
13866TIP3    H163013   4.640   2.865  14.318  0.0403 -0.7438 -2.4953
13866TIP3    H263014   4.758   2.868  14.223  0.8204  1.8668 -1.5374
13867TIP3   OH263015   1.522   1.978  13.003 -0.4539 -0.5552  0.2831
13867TIP3    H163016   1.566   2.026  12.933 -0.8734  1.0065  1.0371
13867TIP3    H263017   1.429   1.979  12.978 -0.3711 -1.7197 -0.1020
13868TIP3   OH263018   2.926   1.666  12.968 -0.7354  0.3118 -0.4071
13868TIP3    H163019   2.949   1.758  12.979 -0.4352  0.1355  0.4726
13868TIP3    H263020   2.878   1.664  12.885  1.1612  0.9161 -1.6081
13869TIP3   OH263021   4.432   2.744  14.876  0.4578  0.1363 -0.6237
13869TIP3    H163022   4.449   2.816  14.938 -1.1109 -0.6658  0.8099
13869TIP3    H263023   4.399   2.787  14.798 -0.6895  1.0139  0.3011
13870TIP3   OH263024   1.363   0.804   4.988  0.4287  0.9586 -0.8975
13870TIP3    H163025   1.313   0.877   5.024 -0.5443 -0.0733 -0.0368
13870TIP3    H263026   1.411   0.769   5.063  0.4176  0.3594 -1.1622
13871TIP3   OH263027   2.250   6.771  13.950 -0.5653 -0.6516 -0.4706
13871TIP3    H163028   2.254   6.710  14.024  0.6013 -0.4355 -0.3346
13871TIP3    H263029   2.273   6.856  13.988 -1.9560 -0.1390 -0.7025
13872TIP3   OH263030   0.509   0.911   3.605  0.1222 -0.1568  0.0347
13872TIP3    H163031   0.571   0.943   3.671 -0.7400  0.7696  0.4267
13872TIP3    H263032   0.564   0.871   3.538  1.0951 -0.0480  0.7376
13873TIP3   OH263033   2.280   5.847  17.030  0.1129 -0.9591  0.7802
13873TIP3    H163034   2.243   5.770  16.988  1.3327 -0.5723 -1.1479
13873TIP3    H263035   2.204   5.901  17.052 -0.6276 -0.3782 -2.6575
13874TIP3   OH263036   3.625   1.604  13.408  0.0286 -0.4733  0.1252
13874TIP3    H163037   3.584   1.572  13.488 -0.3318 -0.3321 -0.0015
13874TIP3    H263038   3.691   1.538  13.386  1.0912  0.1688  1.2998
13875TIP3   OH263039   2.124   6.153   0.273 -0.6332 -0.4341 -0.1933
13875TIP3    H163040   2.053   6.217   0.271  0.4064  0.7403 -0.4113
13875TIP3    H263041   2.083   6.073   0.306 -2.3527 -0.1752 -1.5806
13876TIP3   OH263042   0.115   0.945  11.300  0.3818 -0.1434  0.0856
13876TIP3    H163043   0.151   1.030  11.326 -0.6987  0.3744 -0.0604
13876TIP3    H263044   0.135   0.938  11.207 -1.5384  1.0350 -0.4657
13877TIP3   OH263045   0.083   0.604   2.580  0.2609 -0.3298  0.6233
13877TIP3    H163046   0.082   0.605   2.485  2.5093  0.0245  0.5415
13877TIP3    H263047   0.096   0.512   2.604  0.2954 -0.3407  0.5614
13878TIP3   OH263048   6.018   5.264   2.148 -0.0169  0.4994 -0.4316
13878TIP3    H163049   6.001   5.353   2.179  1.1112  0.8852 -0.8870
13878TIP3    H263050   6.034   5.214   2.228  0.7409  1.0195 -0.2431
13879TIP3   OH263051   4.436   1.438   2.460  0.2416 -0.7598  0.1367
13879TIP3    H163052   4.398   1.369   2.514 -2.0735 -1.5368 -2.3002
13879TIP3    H263053   4.401   1.519   2.497 -1.8292 -1.3105 -0.5196
13880TIP3   OH263054   3.713   5.011  16.840 -0.1557  0.7464  0.5391
13880TIP3    H163055   3.786   5.022  16.902  0.2436  3.1160 -0.2257
13880TIP3    H263056   3.742   5.056  16.761 -1.4282 -0.5635 -0.7271
13881TIP3   OH263057   4.684   0.932  14.757  0.4433 -0.7443 -0.0565
13881TIP3    H163058   4.612   0.988  14.728  0.2606 -0.4024  1.0122
13881TIP3    H263059   4.760   0.991  14.759  0.5855 -0.9109 -0.3943
13882TIP3   OH263060   4.540   4.791   4.700  0.5541  0.6213  0.0060
13882TIP3    H163061   4.499   4.710   4.669  1.1065  0.5124 -0.4695
13882TIP3    H263062   4.528   4.853   4.629  1.3875  0.5237 -0.2298
13883TIP3   OH263063   5.486   3.837   1.798 -0.2522  0.1835 -0.0158
13883TIP3    H163064   5.564   3.782   1.804  0.9266  1.7306 -0.6416
13883TIP3    H263065   5.444   3.828   1.884  0.9801 -0.1248  0.5792
13884TIP3   OH263066   3.415   4.422  15.926 -0.1473  0.6107 -0.5766
13884TIP3    H163067   3.333   4.470  15.939 -0.1755  1.1453 -2.4429
13884TIP3    H263068   3.413   4.353  15.993 -1.7030  1.1311 -0.0308
13885TIP3   OH263069   1.892   1.205   0.806 -0.3581  0.2810  0.1397
13885TIP3    H163070   1.817   1.149   0.789 -0.4322  0.6988 -0.9728
13885TIP3    H263071   1.941   1.207   0.724  1.9954 -1.5851  1.3590
13886TIP3   OH263072   5.585   2.759   4.642 -0.5214  0.4624  0.1555
13886TIP3    H163073   5.642   2.815   4.589  0.2095  0.4528  0.9171
13886TIP3    H263074   5.506   2.811   4.656 -0.3468  0.8178 -0.1657
13887TIP3   OH263075   6.736   2.572   0.671  0.0662 -1.1039 -0.0697
13887TIP3    H163076   6.761   2.630   0.599  0.9868 -1.5232 -0.0966
13887TIP3    H263077   6.763   2.619   0.750 -2.7112  0.2735  0.1923
13888TIP3   OH263078   4.159   5.383   3.465 -0.1105  0.2090 -0.1681
13888TIP3    H163079   4.206   5.300   3.472 -0.4664  0.1442  1.8256
13888TIP3    H263080   4.227   5.450   3.466  0.1057  0.0040 -0.6585
13889TIP3   OH263081   6.293   5.071   5.355  0.4344 -0.3478  0.5135
13889TIP3    H163082   6.239   5.014   5.300  0.1984  0.0608  0.3153
13889TIP3    H263083   6.244   5.078   5.437 -0.2371  0.6780  0.0462
13890TIP3   OH263084   2.162   6.326   1.896 -0.1239  0.4537 -0.0882
13890TIP3    H163085   2.141   6.333   1.803 -0.3223  1.6517  0.0376
13890TIP3    H263086   2.189   6.414   1.922  0.3820  0.0270  0.8838
13891TIP3   OH263087   2.625   2.168   3.906  0.4072 -0.3473  0.3672
13891TIP3    H163088   2.547   2.113   3.916  0.1091 -0.1056 -0.5418
13891TIP3    H263089   2.600   2.252   3.945  0.8648 -0.8215  1.7636
13892TIP3   OH263090   3.594   2.178   3.910  0.1236 -0.1194 -0.2261
13892TIP3    H163091   3.642   2.190   3.991  1.2295  1.5569 -1.0820
13892TIP3    H263092   3.502   2.172   3.937  0.6464 -2.3855  1.3410
13893TIP3   OH263093   5.144   3.782   2.562  0.2951 -0.4222 -0.1826
13893TIP3    H163094   5.166   3.838   2.487  0.0767  0.4704  0.4048
13893TIP3    H263095   5.091   3.711   2.524 -0.7340  0.5946 -0.7355
13894TIP3   OH263096   0.714   3.027   5.399 -0.1756 -0.5699  0.3508
13894TIP3    H163097   0.641   3.054   5.343  0.5133  1.4013  0.3386
13894TIP3    H263098   0.713   2.931   5.394 -0.1228 -0.5326 -3.0805
13895TIP3   OH263099   1.622   1.620  11.069  0.3672 -0.0408  0.1074
13895TIP3    H163100   1.636   1.527  11.053 -0.7683 -0.7648  2.7981
13895TIP3    H263101   1.710   1.658  11.071  0.8109 -0.9103 -1.6159
13896TIP3   OH263102   0.330   6.794  16.757  0.1170 -0.2133  0.5026
13896TIP3    H163103   0.319   6.731  16.828 -0.4305  0.1798  0.7750
13896TIP3    H263104   0.395   6.754  16.699 -0.4801 -1.1819  0.4879
13897TIP3   OH263105   6.681   2.638   0.061  1.0410 -0.4034 -1.0835
13897TIP3    H163106   6.698   2.731   0.079  1.2193 -0.1875 -2.2816
13897TIP3    H263107   6.619   2.639  -0.013 -1.2390 -1.2222  0.6928
13898TIP3   OH263108   0.536   3.978   3.200 -0.0628 -0.2178  0.0931
13898TIP3    H163109   0.510   4.035   3.128 -1.2653 -1.3551 -0.3907
13898TIP3    H263110   0.620   4.015   3.230 -0.2223  1.0816 -0.9669
13899TIP3   OH263111   6.183   3.772   3.818  0.0006  0.9171 -0.6917
13899TIP3    H163112   6.141   3.851   3.785  0.9367  0.7709 -2.3251
13899TIP3    H263113   6.130   3.700   3.784  1.1294  0.7558 -2.2083
13900TIP3   OH263114   0.053   4.979   4.334  0.6560  0.0050  0.3834
13900TIP3    H163115  -0.025   4.928   4.311 -0.3306  0.2650  2.7964
13900TIP3    H263116   0.117   4.913   4.361  1.0931 -0.1739 -1.0219
13901TIP3   OH263117   5.267   2.979  11.497 -0.2142  0.6662 -0.4807
13901TIP3    H163118   5.296   2.899  11.540 -1.2572  0.2541 -0.5142
13901TIP3    H263119   5.292   3.049  11.557 -3.7995 -0.0220  2.1517
13902TIP3   OH263120   1.600   0.163   4.710  0.3152  0.1907  0.0251
13902TIP3    H163121   1.530   0.170   4.774  1.2055  1.7197  0.8884
13902TIP3    H263122   1.680   0.156   4.762  0.8928 -0.6276 -0.9366
13903TIP3   OH263123   6.813   5.002  12.473 -0.5606 -0.0767 -0.0129
13903TIP3    H163124   6.849   5.073  12.420 -1.6942 -1.0893 -2.2771
13903TIP3    H263125   6.881   4.983  12.537  0.8817  1.2521 -1.0811
13904TIP3   OH263126   6.417   1.512  13.249 -0.5036 -1.0073  0.0638
13904TIP3    H163127   6.506   1.541  13.271 -0.4822 -1.1912  0.2213
13904TIP3    H263128   6.426   1.420  13.224 -0.6506 -1.0311  0.0947
13905TIP3   OH263129   6.354   0.676  11.737  0.0271 -0.2044 -0.2593
13905TIP3    H163130   6.424   0.740  11.745 -0.9975  0.7340  1.9348
13905TIP3    H263131   6.373   0.630  11.655  2.3808  0.9554 -0.4445
13906TIP3   OH263132   6.310   1.944  11.859  0.1157 -0.1417 -0.3671
13906TIP3    H163133   6.230   1.904  11.826 -0.4828 -0.5450  1.4710
13906TIP3    H263134   6.378   1.917  11.797 -1.0012 -0.5395 -1.4462
13907TIP3   OH263135   4.187   5.483  15.745  0.2027 -0.0807 -0.6265
13907TIP3    H163136   4.266   5.501  15.694  1.0831 -0.4509  0.5461
13907TIP3    H263137   4.220   5.445  15.827 -1.2353 -0.9673 -0.4229
13908TIP3   OH263138   2.252   3.513  12.732  0.7544 -0.3202  0.4031
13908TIP3    H163139   2.209   3.479  12.654 -1.6688  0.4890  1.2875
13908TIP3    H263140   2.258   3.608  12.716 -0.6178 -0.0078  1.5054
13909TIP3   OH263141   4.120   2.441  10.916 -0.1096  0.0159 -0.2297
13909TIP3    H163142   4.202   2.454  10.963  0.5793 -1.1216 -1.0724
13909TIP3    H263143   4.116   2.514  10.855 -0.3068  0.7076  0.5874
13910TIP3   OH263144   2.852   2.743  16.517  0.3716 -0.7805  0.0639
13910TIP3    H163145   2.874   2.650  16.514  1.5434 -0.5437  0.6103
13910TIP3    H263146   2.809   2.754  16.602 -1.0962 -1.0813 -0.6258
13911TIP3   OH263147   0.970   4.637  14.313  0.1580  0.4613 -0.0760
13911TIP3    H163148   0.931   4.663  14.396  0.2128  0.4513 -0.0471
13911TIP3    H263149   0.994   4.545  14.326 -1.7164 -0.1845 -0.7799
13912TIP3   OH263150   1.636   5.320   5.328 -0.5626 -0.6204 -0.8674
13912TIP3    H163151   1.568   5.380   5.296 -0.3902 -0.7367 -1.4691
13912TIP3    H263152   1.594   5.271   5.398 -1.0635 -0.6051 -1.1539
13913TIP3   OH263153   5.886   1.343   1.991  0.1655 -0.4846 -0.3345
13913TIP3    H163154   5.924   1.262   2.027 -1.5063 -0.4598  1.6899
13913TIP3    H263155   5.923   1.413   2.045 -0.1680 -0.1247 -0.5643
13914TIP3   OH263156   3.861   2.159   3.577 -0.1083  0.1011  0.2622
13914TIP3    H163157   3.827   2.105   3.648 -0.9541  0.5702  0.2158
13914TIP3    H263158   3.874   2.245   3.615  0.5298  0.0714  0.1359
13915TIP3   OH263159   5.672   3.379   1.522 -0.1161 -0.2351 -0.0482
13915TIP3    H163160   5.731   3.323   1.470 -0.6234 -0.8171 -0.0101
13915TIP3    H263161   5.653   3.328   1.600  0.2396  0.4324  0.4791
13916TIP3   OH263162   3.183   1.494  13.964  0.1421 -0.1226 -0.2196
13916TIP3    H163163   3.128   1.446  14.026 -2.6639  1.1174 -1.5714
13916TIP3    H263164   3.160   1.586  13.979  1.5857  0.4154 -1.1528
13917TIP3   OH263165   2.973   6.338  11.330  0.1654 -0.1078 -0.4122
13917TIP3    H163166   3.033   6.300  11.394 -0.0419  0.0535 -0.1217
13917TIP3    H263167   2.934   6.262  11.286  0.3342 -0.2184 -0.3728
13918TIP3   OH263168   4.228   0.266   2.368 -0.0661 -0.1397  0.6666
13918TIP3    H163169   4.279   0.343   2.394  1.7590 -0.9601 -0.3554
13918TIP3    H263170   4.226   0.269   2.273  1.9886 -2.4976  0.4562
13919TIP3   OH263171   2.642   5.976  14.046 -0.1725  0.2280  0.5255
13919TIP3    H163172   2.616   6.038  13.978 -0.8405 -0.4782  0.1143
13919TIP3    H263173   2.640   5.891  14.002  1.6425 -0.0034  0.8213
13920TIP3   OH263174   6.451   5.282  15.199 -0.1839 -0.0233  0.2378
13920TIP3    H163175   6.463   5.335  15.120 -2.3781 -0.1301 -0.2523
13920TIP3    H263176   6.486   5.196  15.176  0.3771  0.3077 -0.1578
13921TIP3   OH263177   6.740   3.164   4.796 -0.2746  0.3281 -0.1082
13921TIP3    H163178   6.791   3.210   4.729 -0.4883  0.8362  0.0699
13921TIP3    H263179   6.746   3.220   4.873  1.2837 -1.0188  0.8061
13922TIP3   OH263180   1.722   1.751  16.229  0.1889 -0.1457  1.0104
13922TIP3    H163181   1.630   1.766  16.206  0.1802  0.3795  1.3807
13922TIP3    H263182   1.772   1.798  16.163  0.2809 -2.8264 -0.9857
13923TIP3   OH263183   3.713   2.734  11.271 -0.2608 -0.1112  0.0526
13923TIP3    H163184   3.633   2.780  11.247 -0.4796 -0.6602 -0.3000
13923TIP3    H263185   3.691   2.688  11.353 -0.5113 -0.7623 -0.3712
13924TIP3   OH263186   3.589   2.819  15.003 -0.6664 -0.1067  0.2646
13924TIP3    H163187   3.676   2.794  14.970 -0.7312 -0.2417  0.1933
13924TIP3    H263188   3.604   2.898  15.054 -0.4643 -0.2545  0.4400
13925TIP3   OH263189   3.889   1.820  16.122 -0.0823  0.0856 -0.1232
13925TIP3    H163190   3.799   1.810  16.093 -0.7893  1.0765  1.5827
13925TIP3    H263191   3.920   1.731  16.135 -0.2705 -0.3278 -2.1687
13926TIP3   OH263192   3.706   0.090  11.617  0.6400 -0.2352  0.2112
13926TIP3    H163193   3.792   0.058  11.589  0.1884  0.5901 -2.3552
13926TIP3    H263194   3.644   0.044  11.560 -0.4290  0.9499  0.3883
13927TIP3   OH263195   3.180   1.192  10.291  0.3364  0.0577  0.3818
13927TIP3    H163196   3.135   1.277  10.298 -1.5716 -0.9887  1.9135
13927TIP3    H263197   3.112   1.128  10.309  1.6452 -1.8640 -1.1573
13928TIP3   OH263198   2.245   5.531  14.515 -0.2085 -0.0514  0.5343
13928TIP3    H163199   2.277   5.442  14.529  1.4513  0.4767  0.3278
13928TIP3    H263200   2.190   5.525  14.437  0.6242 -0.7472 -0.0155
13929TIP3   OH263201   6.028   2.621  11.800  0.4894  0.4626  0.5352
13929TIP3    H163202   6.017   2.663  11.714  0.2824 -1.4897 -0.4466
13929TIP3    H263203   5.939   2.600  11.827  0.6807 -1.1861  0.0027
13930TIP3   OH263204   4.428   1.574   4.156  0.3737  0.0342 -0.4388
13930TIP3    H163205   4.436   1.667   4.132 -0.5831  0.8122  1.9544
13930TIP3    H263206   4.508   1.555   4.205 -0.3092  0.1919  0.7673
13931TIP3   OH263207   6.555   6.410   2.094  0.4973 -0.4705 -0.1546
13931TIP3    H163208   6.584   6.323   2.122  1.1880 -0.0881  0.3402
13931TIP3    H263209   6.630   6.467   2.109  0.3352  0.0704 -1.2501
13932TIP3   OH263210   3.267   1.140  12.649  0.1809 -0.8403  0.5041
13932TIP3    H163211   3.194   1.083  12.626 -0.8887  1.1997 -1.6143
13932TIP3    H263212   3.329   1.084  12.695 -1.5213 -3.2621 -0.0043
13933TIP3   OH263213   4.412   2.010  16.844 -0.1939  0.2885 -0.3456
13933TIP3    H163214   4.368   1.976  16.766 -1.4622 -0.0316  0.4842
13933TIP3    H263215   4.402   2.105  16.837 -1.4688  0.2057  0.0553
13934TIP3   OH263216   0.242   3.840  13.074 -0.0324 -0.0839 -0.8153
13934TIP3    H163217   0.147   3.849  13.062  0.2506  0.6903 -2.8411
13934TIP3    H263218   0.271   3.927  13.101  0.1671 -0.1845 -0.7047
13935TIP3   OH263219   6.279   4.447  11.264 -0.3540  0.0024 -0.1887
13935TIP3    H163220   6.374   4.437  11.270 -0.0492  2.6252  0.4905
13935TIP3    H263221   6.247   4.421  11.350 -0.1066  0.3202  0.0013
13936TIP3   OH263222   3.115   0.116   0.447 -0.4508 -0.3000 -0.0880
13936TIP3    H163223   3.067   0.034   0.462 -0.7605 -0.2066 -0.5376
13936TIP3    H263224   3.194   0.089   0.400 -0.6664 -0.3156 -0.4433
13937TIP3   OH263225   3.397   5.925   3.919 -0.2458 -0.6622 -0.2754
13937TIP3    H163226   3.362   5.858   3.859  0.0908 -1.9079  0.8778
13937TIP3    H263227   3.456   5.977   3.865 -1.1346 -0.7624 -1.3971
13938TIP3   OH263228   0.811   4.223   4.605  0.2901  0.2229 -0.4364
13938TIP3    H163229   0.883   4.258   4.552  0.3794  2.2675  0.9273
13938TIP3    H263230   0.818   4.269   4.688 -0.2305 -2.4356  1.1768
13939TIP3   OH263231   4.917   6.603   5.271  0.1882  0.2339 -0.1458
13939TIP3    H163232   4.994   6.578   5.321  0.5399 -0.0159 -0.8092
13939TIP3    H263233   4.924   6.698   5.262  1.7835 -0.0354 -2.3886
13940TIP3   OH263234   5.229   2.114  16.029  0.0075  0.2377 -0.3487
13940TIP3    H163235   5.287   2.084  15.959 -0.9672 -3.5073  0.2589
13940TIP3    H263236   5.144   2.128  15.985 -0.2143 -0.6038 -0.2029
13941TIP3   OH263237   1.716   1.119  10.689 -0.2200  0.0078  0.2311
13941TIP3    H163238   1.703   1.201  10.641 -0.3150 -0.6951 -0.9686
13941TIP3    H263239   1.809   1.121  10.714  0.0716 -0.0484 -0.8165
13942TIP3   OH263240   3.117   2.885  12.134 -0.0493  0.4286 -0.4166
13942TIP3    H163241   3.149   2.806  12.091  0.0149 -0.0219  0.4385
13942TIP3    H263242   3.141   2.956  12.074 -0.1934 -0.2021 -1.2386
13943TIP3   OH263243   2.593   1.530   2.485  0.0841  0.4071 -0.8484
13943TIP3    H163244   2.554   1.595   2.543  0.4016  0.0099 -0.1829
13943TIP3    H263245   2.532   1.457   2.485  2.3021 -1.7472  2.9963
13944TIP3   OH263246   2.882   4.852   5.381 -0.3108  0.0033  0.3066
13944TIP3    H163247   2.955   4.804   5.343 -0.6068 -1.5579  1.5655
13944TIP3    H263248   2.818   4.859   5.310 -0.2299 -1.4776  0.0551
13945TIP3   OH263249   5.253   4.436   2.805  0.2551 -0.2862  0.4148
13945TIP3    H163250   5.216   4.515   2.766 -0.3886 -0.0500  1.4461
13945TIP3    H263251   5.195   4.365   2.778  0.3001 -0.2561  0.2418
13946TIP3   OH263252   5.536   2.912  16.990  0.3292  0.1954 -0.1665
13946TIP3    H163253   5.536   2.892  16.897 -2.9478  1.2492 -0.5336
13946TIP3    H263254   5.563   3.004  16.995  1.2443 -0.0722  0.0414
13947TIP3   OH263255   6.046   6.160  16.504 -0.2154 -0.1081 -0.3681
13947TIP3    H163256   5.989   6.146  16.580 -1.6670  1.5654 -1.0777
13947TIP3    H263257   6.122   6.206  16.539 -0.1699 -0.6793  0.2988
13948TIP3   OH263258   3.326   2.844  15.076 -0.0986  0.3352  0.3817
13948TIP3    H163259   3.414   2.841  15.039 -0.0900 -2.1234  0.4696
13948TIP3    H263260   3.310   2.756  15.108 -2.8129  0.5568 -0.0993
13949TIP3   OH263261   5.850   2.441  12.974 -0.4575  0.8264  0.7672
13949TIP3    H163262   5.761   2.422  12.944  1.3033 -4.7009 -2.3119
13949TIP3    H263263   5.893   2.481  12.899  1.2921 -3.5215 -0.8667
13950TIP3   OH263264   3.142   5.156  16.371 -0.1139 -0.5045  0.3755
13950TIP3    H163265   3.158   5.145  16.465  1.5964  1.9224  0.4764
13950TIP3    H263266   3.148   5.251  16.357 -0.0788 -0.8203 -2.2389
13951TIP3   OH263267   1.043   4.421   4.012 -0.0409 -0.5142  0.4796
13951TIP3    H163268   0.961   4.467   3.996  0.4862  0.3775  0.2565
13951TIP3    H263269   1.038   4.392   4.103 -2.1506 -3.7328 -0.4870
13952TIP3   OH263270   6.074   0.174   3.785 -0.1223  0.1178  0.7248
13952TIP3    H163271   6.145   0.134   3.735 -1.4435 -1.4198 -0.0018
13952TIP3    H263272   6.089   0.268   3.776  0.6557 -0.1437 -1.1845
13953TIP3   OH263273   5.340   2.041  15.600  0.3027  0.0680  0.3176
13953TIP3    H163274   5.390   2.032  15.519 -0.3830  0.5863 -0.1731
13953TIP3    H263275   5.394   2.098  15.655 -1.1625  3.5540 -1.5007
13954TIP3   OH263276   2.059   3.287  13.233  0.5538 -0.2852  0.0492
13954TIP3    H163277   2.074   3.370  13.277 -3.0919  0.3980  0.3056
13954TIP3    H263278   2.012   3.310  13.153 -0.1863 -2.0213 -0.0645
13955TIP3   OH263279   5.268   6.348  11.597 -0.1055 -0.5955 -0.2428
13955TIP3    H163280   5.192   6.323  11.544  0.4149 -0.1592 -1.2223
13955TIP3    H263281   5.316   6.410  11.542  0.0301  0.5057  1.0734
13956TIP3   OH263282   1.790   4.030  14.469 -0.0355 -0.1398  0.4333
13956TIP3    H163283   1.713   3.991  14.427 -0.3253 -0.5848  1.3308
13956TIP3    H263284   1.756   4.107  14.514  0.3308  0.5200 -0.3966
13957TIP3   OH263285   0.412   5.259  12.432 -0.8782  0.2289 -0.2001
13957TIP3    H163286   0.493   5.211  12.446 -1.4401 -0.7007 -0.0471
13957TIP3    H263287   0.407   5.270  12.337 -1.4159 -1.2544 -0.3716
13958TIP3   OH263288   5.402   4.864   4.614  0.1158  0.6167 -0.0767
13958TIP3    H163289   5.306   4.871   4.608  0.1112  0.4238 -0.2588
13958TIP3    H263290   5.418   4.815   4.694 -0.0049 -0.7593 -0.8621
13959TIP3   OH263291   4.496   0.331   0.265 -0.3336 -0.1877 -0.1378
13959TIP3    H163292   4.420   0.285   0.299 -1.5792  1.1900 -0.9237
13959TIP3    H263293   4.467   0.367   0.181  1.0995  0.5958 -0.3393
13960TIP3   OH263294   5.613   0.356   0.017  0.3165  0.6794 -0.6331
13960TIP3    H163295   5.606   0.421   0.087 -2.4731 -0.6111  0.4566
13960TIP3    H263296   5.535   0.370  -0.037 -0.9509 -2.2578  0.2258
13961TIP3   OH263297   3.340   2.928  10.216 -0.1966  0.1968 -0.6596
13961TIP3    H163298   3.278   3.000  10.216 -0.0246  0.3749 -2.0520
13961TIP3    H263299   3.304   2.865  10.278  0.1006  1.8138  1.2773
13962TIP3   OH263300   1.856   0.064   4.922  0.8532 -0.4899  0.4890
13962TIP3    H163301   1.846   0.038   5.014  0.0915 -0.4116  0.4359
13962TIP3    H263302   1.887   0.155   4.927 -2.0698  0.6034  0.7223
13963TIP3   OH263303   3.346   2.499  10.696  0.5419  0.1764 -0.2290
13963TIP3    H163304   3.260   2.460  10.682 -0.1163  1.7375 -0.7211
13963TIP3    H263305   3.355   2.503  10.792 -0.7852  1.7650 -0.1488
13964TIP3   OH263306   2.576   0.273   5.793 -0.0751  0.3874 -0.0942
13964TIP3    H163307   2.585   0.330   5.869 -1.8645 -1.5493  1.6784
13964TIP3    H263308   2.489   0.293   5.757  0.4297  0.7233 -1.1871
13965TIP3   OH263309   3.731   3.514   5.376 -0.3808 -0.0220  0.6903
13965TIP3    H163310   3.768   3.595   5.410  0.0245 -0.8357  2.2825
13965TIP3    H263311   3.681   3.541   5.299  0.5912  1.5806  0.5766
13966TIP3   OH263312   4.287   6.303   1.740  0.3258 -0.7489  0.1922
13966TIP3    H163313   4.200   6.275   1.766  0.5133  0.1139  1.9202
13966TIP3    H263314   4.320   6.353   1.815  1.4079  0.9109 -1.2944
13967TIP3   OH263315   4.804   2.341  16.894  0.7291 -0.0388  0.9358
13967TIP3    H163316   4.781   2.268  16.951  3.1871 -1.1582  0.6202
13967TIP3    H263317   4.779   2.312  16.806  0.0939  0.2679  1.0051
13968TIP3   OH263318   2.817   2.275  17.091 -0.0846 -0.5176  0.0101
13968TIP3    H163319   2.782   2.264  17.003 -2.1364  0.4502  0.6238
13968TIP3    H263320   2.862   2.360  17.089  0.3998 -0.7825 -0.2641
13969TIP3   OH263321   6.127   4.427   0.472 -0.2271 -0.4871  0.0689
13969TIP3    H163322   6.141   4.333   0.479  0.4670 -0.5300 -1.4216
13969TIP3    H263323   6.148   4.447   0.381  0.9553  1.3186  0.6803
13970TIP3   OH263324   2.305   1.343   2.477  0.2347 -0.1015 -0.0345
13970TIP3    H163325   2.249   1.409   2.516 -1.5187 -0.9186 -1.0523
13970TIP3    H263326   2.346   1.299   2.552 -1.6417 -0.4474  0.8506
13971TIP3   OH263327   0.419   0.583   4.172 -0.6462  0.3720 -0.9699
13971TIP3    H163328   0.423   0.665   4.221  0.5370  0.6832 -1.5448
13971TIP3    H263329   0.415   0.515   4.239 -4.2826  0.9220 -0.4507
13972TIP3   OH263330   3.558   6.664  14.878 -0.1653 -0.1176 -0.1761
13972TIP3    H163331   3.476   6.623  14.903  0.3466 -1.1298 -0.1169
13972TIP3    H263332   3.569   6.641  14.786  2.1060 -3.6967  0.8004
13973TIP3   OH263333   2.992   1.590   0.180  0.1458  0.0771  0.3383
13973TIP3    H163334   3.005   1.680   0.149  0.6686  0.0669  0.5290
13973TIP3    H263335   3.015   1.535   0.106 -0.4798  0.1008  0.1156
13974TIP3   OH263336   2.462   3.633   3.512 -0.1579  0.3241 -0.0788
13974TIP3    H163337   2.486   3.542   3.494  0.4900  0.3435  0.6251
13974TIP3    H263338   2.418   3.663   3.432 -1.2907 -0.9036  0.0418
13975TIP3   OH263339   6.349   6.096   4.896  1.3383  0.2477 -0.2978
13975TIP3    H163340   6.277   6.047   4.856  1.4052  0.5110 -0.7425
13975TIP3    H263341   6.351   6.065   4.986  0.0672  0.8855 -0.0144
13976TIP3   OH263342   6.004   2.397   5.997  0.0783 -0.4997 -0.1253
13976TIP3    H163343   6.059   2.405   6.075 -0.0516  0.5957 -0.1284
13976TIP3    H263344   5.921   2.362   6.030 -0.0541  0.1712  0.2760
13977TIP3   OH263345   2.042   2.067  15.851 -0.2268 -0.5443  0.5681
13977TIP3    H163346   2.017   1.979  15.822  0.6409 -0.8814  0.7832
13977TIP3    H263347   2.016   2.070  15.943 -1.3312 -0.1369  0.2518
13978TIP3   OH263348   1.578   2.327   3.924 -0.3423 -0.1273 -0.6424
13978TIP3    H163349   1.652   2.373   3.964 -1.0864 -0.4858  1.2757
13978TIP3    H263350   1.599   2.234   3.936 -1.0290 -0.2324 -0.1826
13979TIP3   OH263351   4.100   4.005   3.845 -1.0484 -0.2256 -0.1475
13979TIP3    H163352   4.045   4.053   3.907 -0.0342 -0.6848  1.1596
13979TIP3    H263353   4.184   4.052   3.846  0.1524 -2.2276  1.5796
13980TIP3   OH263354   5.426   0.036  13.166 -0.4451  0.0335  0.1420
13980TIP3    H163355   5.422   0.037  13.070 -0.0880 -2.5182  0.0429
13980TIP3    H263356   5.440   0.128  13.189 -2.3302  1.0183 -2.1199
13981TIP3   OH263357   1.277   0.064  10.885 -0.4033 -0.0503 -0.0907
13981TIP3    H163358   1.261   0.143  10.833 -2.5342 -0.5255 -0.2619
13981TIP3    H263359   1.323   0.005  10.826  0.3223  0.6844 -0.2791
13982TIP3   OH263360   4.175   6.674  15.769  0.3229  0.1519  0.1200
13982TIP3    H163361   4.176   6.736  15.696  1.1810  1.7476  1.4475
13982TIP3    H263362   4.250   6.616  15.752  0.2602  0.2401 -0.4768
13983TIP3   OH263363   6.256   3.369   0.169 -0.0925  0.0063 -0.4274
13983TIP3    H163364   6.347   3.379   0.197 -0.0036 -1.1221 -0.2834
13983TIP3    H263365   6.211   3.330   0.244 -0.8490  1.1144 -0.2759
13984TIP3   OH263366   1.230   4.908  15.956 -0.3339 -0.2680 -0.2969
13984TIP3    H163367   1.224   4.813  15.941  0.1070 -0.2795 -0.4198
13984TIP3    H263368   1.156   4.944  15.909 -1.4514 -0.6893  1.0829
13985TIP3   OH263369   0.318   6.428  11.673  1.3306 -0.6264  0.5033
13985TIP3    H163370   0.237   6.450  11.719  0.0648 -0.5526 -1.5895
13985TIP3    H263371   0.322   6.333  11.676 -0.8571 -0.9552 -2.3364
13986TIP3   OH263372   3.223   4.088   5.077  0.3666 -0.6457  0.2377
13986TIP3    H163373   3.151   4.060   5.134 -0.6180 -0.3659 -0.8248
13986TIP3    H263374   3.246   4.009   5.028  1.1336 -0.8571  0.9167
13987TIP3   OH263375   3.766   6.567   4.206 -0.1034  0.3942  0.1921
13987TIP3    H163376   3.806   6.480   4.196 -0.6883  0.1419  0.0219
13987TIP3    H263377   3.713   6.578   4.127 -2.2328 -0.2763  1.4446
13988TIP3   OH263378   1.818   5.748  16.161 -0.1088 -0.1056 -0.2853
13988TIP3    H163379   1.808   5.683  16.091  0.4729 -1.4966  0.8575
13988TIP3    H263380   1.738   5.740  16.213 -0.0546  0.1366 -0.1650
13989TIP3   OH263381   3.919   0.715   3.898  0.0292  0.8344 -0.1238
13989TIP3    H163382   3.866   0.682   3.825  1.7301 -0.1592 -0.9819
13989TIP3    H263383   4.002   0.742   3.857  1.5413 -0.9788  1.5271
13990TIP3   OH263384   4.109   6.563   1.561  0.2106  0.2932 -0.3861
13990TIP3    H163385   4.202   6.582   1.551  0.4740 -0.1934  0.8798
13990TIP3    H263386   4.096   6.481   1.512 -0.3101  2.0101 -3.3702
13991TIP3   OH263387   0.861   0.600   2.171 -0.2443 -0.1037  0.2764
13991TIP3    H163388   0.879   0.621   2.080  0.2906 -0.9752  0.1711
13991TIP3    H263389   0.771   0.630   2.186 -0.2948  0.1350 -0.5061
13992TIP3   OH263390   6.719   4.140   4.544 -0.8144  0.1211 -0.1499
13992TIP3    H163391   6.795   4.116   4.596 -0.3161  2.3031  0.2257
13992TIP3    H263392   6.731   4.233   4.525 -2.0032 -0.1167 -2.4443
13993TIP3   OH263393   2.999   0.396  16.350 -0.2867  0.2911  0.3491
13993TIP3    H163394   2.940   0.332  16.389  0.1841  0.1291  0.7978
13993TIP3    H263395   2.978   0.478  16.395 -0.9795  0.4931 -0.3151
13994TIP3   OH263396   2.934   0.840   5.659 -0.1326  0.3449 -0.0371
13994TIP3    H163397   2.995   0.858   5.730 -0.1096 -2.5866  0.8044
13994TIP3    H263398   2.848   0.854   5.697 -0.0836  0.2021  0.1271
13995TIP3   OH263399   0.553   3.586   0.313 -0.2076 -0.3864 -0.0786
13995TIP3    H163400   0.506   3.507   0.287 -0.4907  0.3225 -1.8382
13995TIP3    H263401   0.543   3.646   0.239  0.6988  1.0027  0.8692
13996TIP3   OH263402   0.838   5.242  14.708  0.2200  0.0342 -0.0845
13996TIP3    H163403   0.798   5.160  14.737  0.6019 -0.2840 -0.4397
13996TIP3    H263404   0.817   5.304  14.777  1.0440 -0.6856  0.8451
13997TIP3   OH263405   0.002   4.962  14.417 -0.1073  0.2357  0.0803
13997TIP3    H163406   0.013   5.003  14.331  0.3677 -1.7524 -0.8581
13997TIP3    H263407   0.061   5.011  14.475 -1.6539  2.6846 -0.2747
13998TIP3   OH263408   4.041   5.553  16.846  0.2111 -0.3121  0.3846
13998TIP3    H163409   3.951   5.525  16.827 -0.3235  0.5295  1.5259
13998TIP3    H263410   4.035   5.649  16.854  0.8059 -0.4098  2.4082
13999TIP3   OH263411   6.333   1.646   2.509 -0.0749 -0.6227  0.1868
13999TIP3    H163412   6.411   1.686   2.549 -0.8923 -0.3577  1.5678
13999TIP3    H263413   6.291   1.718   2.462  0.0723 -0.5634  0.1457
14000TIP3   OH263414   2.055   3.278  15.689  0.1719 -0.0847 -0.2232
14000TIP3    H163415   2.110   3.351  15.718  0.2494 -0.4929  0.6752
14000TIP3    H263416   2.104   3.238  15.618 -0.1363  1.0775 -1.1424
14001TIP3   OH263417   6.014   0.955  13.157 -0.2062  0.1134 -0.3012
14001TIP3    H163418   5.924   0.942  13.187 -0.0314 -0.0557  0.1625
14001TIP3    H263419   6.041   0.869  13.124 -0.6663  0.4838 -1.7192
14002TIP3   OH263420   0.400   2.426   6.190  0.3704 -0.1146  0.1704
14002TIP3    H163421   0.354   2.402   6.109  1.6807  0.4946 -0.7929
14002TIP3    H263422   0.374   2.360   6.253  0.9333 -1.8449 -1.3339
14003TIP3   OH263423   4.089   5.369  15.468  0.0392 -0.2061  0.1090
14003TIP3    H163424   4.151   5.316  15.419  1.4360 -0.1486  1.7365
14003TIP3    H263425   4.140   5.405  15.540 -1.2435  2.0640 -0.0220
14004TIP3   OH263426   3.920   3.299  13.891 -0.3662 -0.0817 -0.4794
14004TIP3    H163427   3.948   3.379  13.848 -1.0729  0.4591  0.0391
14004TIP3    H263428   3.865   3.255  13.826 -2.1171  1.1362  0.1053
14005TIP3   OH263429   5.858   5.745  10.120  0.4632 -0.0760  0.2418
14005TIP3    H163430   5.952   5.727  10.124  0.3774 -0.4467  3.5022
14005TIP3    H263431   5.817   5.664  10.151 -0.7861  0.7075  0.7246
14006TIP3   OH263432   4.544   5.920   4.705 -0.1355  0.0163 -0.4394
14006TIP3    H163433   4.491   5.900   4.782 -1.0924 -1.4080 -1.4163
14006TIP3    H263434   4.512   5.860   4.637  1.2561  0.6275 -1.7052
14007TIP3   OH263435   6.710   5.666   1.363 -0.4971 -0.4359  0.2246
14007TIP3    H163436   6.708   5.626   1.450  0.2880  0.6243  0.7432
14007TIP3    H263437   6.799   5.651   1.331  0.9144  3.5168  1.7420
14008TIP3   OH263438   5.306   6.667   0.599 -0.2339  0.1511 -0.1921
14008TIP3    H163439   5.260   6.733   0.548  0.2571 -0.4101 -1.4022
14008TIP3    H263440   5.395   6.666   0.563  0.1730 -0.1656  0.7804
14009TIP3   OH263441   2.052   2.028  13.760  0.4682 -0.3277  0.2633
14009TIP3    H163442   2.101   2.009  13.680  0.3466  0.1118  0.0777
14009TIP3    H263443   2.104   2.096  13.803  1.3039 -1.5833  1.2991
14010TIP3   OH263444   4.423   6.740  11.872  0.4991  0.6344 -0.3482
14010TIP3    H163445   4.497   6.792  11.843 -0.5922  1.9274 -0.9178
14010TIP3    H263446   4.372   6.800  11.927  0.0101 -0.3089  0.2501
14011TIP3   OH263447   6.221   0.498  15.396 -0.3020  0.3926 -0.1189
14011TIP3    H163448   6.150   0.558  15.416 -0.1280  1.0380 -1.3080
14011TIP3    H263449   6.250   0.465  15.481 -2.5219 -0.5062  0.3391
14012TIP3   OH263450   6.684   6.043  14.230 -0.1551  0.4680  0.3253
14012TIP3    H163451   6.686   6.027  14.325  0.9167  0.2516  0.2781
14012TIP3    H263452   6.745   6.115  14.216 -0.9093  1.0379 -0.1220
14013TIP3   OH263453   4.395   6.480  12.779 -0.0381 -0.0268 -0.4527
14013TIP3    H163454   4.442   6.559  12.753 -0.2491 -0.1399 -1.2097
14013TIP3    H263455   4.434   6.410  12.726  0.3649 -0.4943  0.4386
14014TIP3   OH263456   3.888   0.128   4.286 -0.3591  0.1362  0.1326
14014TIP3    H163457   3.845   0.171   4.213 -2.5638 -1.3232  0.4874
14014TIP3    H263458   3.943   0.196   4.325 -3.6087  2.6709  0.6509
14015TIP3   OH263459   0.950   3.733   1.320 -0.4043 -0.1398 -0.1072
14015TIP3    H163460   1.041   3.726   1.291  0.4141  1.0097  1.9965
14015TIP3    H263461   0.928   3.645   1.352  0.4459 -0.0906  0.6388
14016TIP3   OH263462   2.713   5.780   3.192 -0.3404  0.5800 -0.2520
14016TIP3    H163463   2.751   5.798   3.106 -1.6498  0.0463 -0.9860
14016TIP3    H263464   2.778   5.726   3.237  0.8457  1.8009 -0.4591
14017TIP3   OH263465   3.198   2.775  13.485 -0.0206  0.2887 -0.2863
14017TIP3    H163466   3.227   2.714  13.553 -0.4111 -0.4615 -0.7723
14017TIP3    H263467   3.103   2.761  13.479 -0.1982  1.3501 -0.0222
14018TIP3   OH263468   4.206   4.295   0.301 -0.3062 -0.5899 -0.2657
14018TIP3    H163469   4.239   4.384   0.314 -1.4359  0.1747 -2.1774
14018TIP3    H263470   4.284   4.240   0.301  0.4897  0.5026  0.1902
14019TIP3   OH263471   1.876   4.654  16.400  0.1042 -0.0885  0.0535
14019TIP3    H163472   1.784   4.633  16.386 -0.4812  0.4871  2.5015
14019TIP3    H263473   1.922   4.570  16.394 -0.4197 -0.2878 -1.8794
14020TIP3   OH263474   2.689   0.214  14.893 -0.5088  0.7197  0.4381
14020TIP3    H163475   2.689   0.292  14.838 -0.0929  1.7902  1.8855
14020TIP3    H263476   2.596   0.190  14.902 -0.5254 -0.0864 -1.4944
14021TIP3   OH263477   2.721   4.971   6.071 -0.2706 -0.2704 -0.4529
14021TIP3    H163478   2.760   5.041   6.019 -0.3654  0.2679  0.1824
14021TIP3    H263479   2.751   4.890   6.030  0.6547  0.1362 -0.6006
14022TIP3   OH263480   4.797   4.346  13.545 -0.0381  0.4290 -0.2334
14022TIP3    H163481   4.831   4.407  13.610  0.0815  1.5275 -1.2975
14022TIP3    H263482   4.703   4.363  13.543 -0.0404  0.3981 -0.3643
14023TIP3   OH263483   6.299   6.032  12.860  0.4247 -0.8890 -0.1305
14023TIP3    H163484   6.356   6.084  12.804  1.2990 -1.2277  0.4233
14023TIP3    H263485   6.286   5.950  12.812 -0.9909 -0.1891 -1.0253
14024TIP3   OH263486   5.639   3.478  16.701  0.4335  0.4672 -0.4869
14024TIP3    H163487   5.695   3.553  16.680 -0.1487  1.3546  0.9552
14024TIP3    H263488   5.564   3.517  16.746 -0.4083 -0.8920 -0.6677
14025TIP3   OH263489   4.993   1.841  13.260  0.2407  0.1104  0.0320
14025TIP3    H163490   4.936   1.856  13.336  2.9869 -2.7865  2.9819
14025TIP3    H263491   5.047   1.919  13.255 -1.1285  1.0937 -0.1714
14026TIP3   OH263492   0.800   1.395   1.983  0.4053  0.4781  0.0851
14026TIP3    H163493   0.863   1.408   2.055  0.0154  0.5145  0.4219
14026TIP3    H263494   0.849   1.347   1.917  0.7414  0.3568  0.4178
14027TIP3   OH263495   6.664   4.298   1.966 -0.3265 -0.4863  0.3409
14027TIP3    H163496   6.619   4.214   1.970 -0.6346 -0.3689 -0.4663
14027TIP3    H263497   6.750   4.281   2.004 -0.4232 -1.1411  0.2781
14028TIP3   OH263498   5.894   2.271  13.748 -0.1465 -1.0007 -1.1763
14028TIP3    H163499   5.833   2.198  13.751 -2.7100  1.0042 -0.0897
14028TIP3    H263500   5.917   2.287  13.840  1.7480 -1.4237 -1.5284
14029TIP3   OH263501   5.914   3.594   2.271  0.1666 -0.3286 -0.4133
14029TIP3    H163502   5.829   3.600   2.314  0.1211  1.2653 -0.6708
14029TIP3    H263503   5.904   3.645   2.190  1.4980  0.2983 -0.2156
14030TIP3   OH263504   5.881   2.778  12.907 -0.0330  0.0223  0.2489
14030TIP3    H163505   5.802   2.738  12.942 -0.5473  0.8655  0.0812
14030TIP3    H263506   5.857   2.808  12.819  1.2478 -2.1022 -0.9214
14031TIP3   OH263507   5.719   5.198   4.003 -0.0572  0.3268  0.2323
14031TIP3    H163508   5.641   5.143   4.010 -0.5667  1.2224  3.2078
14031TIP3    H263509   5.689   5.285   4.028  1.7408  0.8418  0.7366
14032TIP3   OH263510   1.166   5.834   0.886  0.2626 -0.1007 -0.5584
14032TIP3    H163511   1.084   5.852   0.933  0.4162 -1.4913  0.3206
14032TIP3    H263512   1.159   5.741   0.862  1.3565 -0.0999 -0.9357
14033TIP3   OH263513   6.149   3.713  14.318 -0.3199  0.1076 -0.2970
14033TIP3    H163514   6.168   3.805  14.334  0.4193  0.5640 -3.2873
14033TIP3    H263515   6.093   3.712  14.240 -0.2357 -1.9571 -0.4017
14034TIP3   OH263516   4.011   3.468  11.454  0.0467 -0.4283  0.3453
14034TIP3    H163517   4.089   3.456  11.508 -0.1943 -0.4661  0.6904
14034TIP3    H263518   3.990   3.561  11.462 -0.7018 -0.6675  1.3176
14035TIP3   OH263519   1.564   0.735   3.190  0.7495 -0.1127 -0.2561
14035TIP3    H163520   1.590   0.813   3.240 -0.2957 -1.1999  2.1730
14035TIP3    H263521   1.569   0.762   3.099  5.4934  1.2358  0.1219
14036TIP3   OH263522   0.536   2.785   0.451  0.3210  0.4371 -0.3851
14036TIP3    H163523   0.548   2.876   0.424 -0.4953  0.5582 -0.3465
14036TIP3    H263524   0.442   2.770   0.447  0.0717  0.5778  2.7153
14037TIP3   OH263525   5.466   4.215  14.414 -0.7713  0.0839  0.2202
14037TIP3    H163526   5.436   4.300  14.445  0.4372  0.3459  0.6973
14037TIP3    H263527   5.545   4.197  14.464 -0.4195 -0.8410 -0.6335
14038TIP3   OH263528   6.373   0.658  13.896 -0.1840  0.1149  0.4119
14038TIP3    H163529   6.452   0.698  13.860  0.3627  0.2858  1.7628
14038TIP3    H263530   6.380   0.670  13.991 -1.6826 -0.1442  0.5854
14039TIP3   OH263531   5.118   4.186  16.509  0.5880  0.3557  0.1064
14039TIP3    H163532   5.132   4.251  16.578  0.7294  0.3245  0.1091
14039TIP3    H263533   5.036   4.213  16.467  0.2767  0.1279  0.5598
14040TIP3   OH263534   0.562   6.182   0.496 -0.5105  0.2403 -0.3287
14040TIP3    H163535   0.643   6.178   0.445 -0.6657 -0.1529 -0.5434
14040TIP3    H263536   0.557   6.274   0.524  0.3880  0.1198  0.3030
14041TIP3   OH263537   5.244   3.599   2.237  0.2959  0.0611  0.1828
14041TIP3    H163538   5.177   3.574   2.300 -0.8291 -2.1545 -1.7488
14041TIP3    H263539   5.198   3.649   2.171  0.7531 -0.4697 -0.5586
14042TIP3   OH263540   2.792   3.181  13.379  0.5858 -0.1932 -0.1289
14042TIP3    H163541   2.702   3.213  13.380  1.5369  2.7573  0.7869
14042TIP3    H263542   2.817   3.178  13.471  2.4684  2.6452 -0.4115
14043TIP3   OH263543   5.452   6.313   2.749  0.4164  0.3888  0.2431
14043TIP3    H163544   5.455   6.218   2.740 -0.1642  0.4424 -0.6640
14043TIP3    H263545   5.543   6.341   2.739  0.2856  0.1346 -2.4919
14044TIP3   OH263546   1.501   3.543  14.950 -0.2342 -0.0278  0.4610
14044TIP3    H163547   1.447   3.602  15.003 -0.0712  0.8626 -0.3348
14044TIP3    H263548   1.551   3.601  14.892 -0.0378 -0.9421 -0.3213
14045TIP3   OH263549   1.889   3.531  17.003  0.1295 -0.6258 -0.2692
14045TIP3    H163550   1.815   3.488  16.960 -0.3776  0.1605 -0.2120
14045TIP3    H263551   1.953   3.544  16.933 -0.9843  1.3118 -1.0185
14046TIP3   OH263552   4.655   1.719   5.696 -0.1038 -0.5084  0.3563
14046TIP3    H163553   4.638   1.681   5.610  0.5729  2.3015 -1.1542
14046TIP3    H263554   4.580   1.777   5.712  0.3353 -0.1361  1.1356
14047TIP3   OH263555   1.285   2.697  15.823  0.2667  0.2695 -0.0751
14047TIP3    H163556   1.275   2.786  15.859  0.2696 -0.3201  1.4595
14047TIP3    H263557   1.377   2.693  15.795  0.3352  0.6715  0.0842
14048TIP3   OH263558   5.610   0.513  11.309  0.5173  0.1387  0.3739
14048TIP3    H163559   5.662   0.464  11.372  0.9453 -0.4227 -0.3967
14048TIP3    H263560   5.616   0.462  11.228  0.6735  1.2584 -0.3483
14049TIP3   OH263561   0.687   4.815   3.520  0.4223 -0.1013  0.2277
14049TIP3    H163562   0.643   4.798   3.437 -1.0911  0.3829  0.8911
14049TIP3    H263563   0.659   4.904   3.545  0.3484 -0.4626  1.5364
14050TIP3   OH263564   6.265   3.190  12.888 -0.7552  0.7684  0.0330
14050TIP3    H163565   6.229   3.199  12.800 -0.7761  0.8943  0.0549
14050TIP3    H263566   6.332   3.122  12.880 -0.5953  0.9440 -0.1304
14051TIP3   OH263567   2.945   6.512   6.604  0.0025  0.1467 -0.7502
14051TIP3    H163568   2.991   6.441   6.560 -0.1006 -1.5482  1.6385
14051TIP3    H263569   2.852   6.492   6.592 -0.0451 -1.0655  1.1269
14052TIP3   OH263570   1.119   3.875   6.089  0.3077  0.2223 -0.0377
14052TIP3    H163571   1.187   3.828   6.139  0.8403  1.4517  0.4244
14052TIP3    H263572   1.103   3.954   6.140 -0.1814  0.8081 -1.0927
14053TIP3   OH263573   4.565   4.036  14.454  0.5545 -0.0763  0.6665
14053TIP3    H163574   4.578   4.006  14.544 -1.3732 -0.4510  0.8621
14053TIP3    H263575   4.506   3.972  14.415 -0.1932  1.1162 -0.2503
14054TIP3   OH263576   1.261   5.633   6.195 -0.2607 -0.3588  1.0326
14054TIP3    H163577   1.333   5.570   6.201 -0.3584 -0.6439 -0.5267
14054TIP3    H263578   1.284   5.701   6.260  2.4092  0.5249 -0.6500
14055TIP3   OH263579   0.679   0.957   3.818 -0.0305  0.5267  0.5269
14055TIP3    H163580   0.609   0.910   3.865  0.5836 -0.8274  0.1418
14055TIP3    H263581   0.754   0.953   3.877  0.3418  0.0358  0.0324
14056TIP3   OH263582   0.605   2.138  12.399 -0.1177 -0.1808  0.0810
14056TIP3    H163583   0.627   2.048  12.424 -0.3881  0.2923  2.2049
14056TIP3    H263584   0.544   2.167  12.467  0.3878  1.7954 -0.2554
14057TIP3   OH263585   6.802   6.319  16.078  0.2910  0.1974  0.2608
14057TIP3    H163586   6.842   6.302  15.993 -1.1558  2.5201 -1.0079
14057TIP3    H263587   6.857   6.386  16.118  1.5075 -1.5503  1.6660
14058TIP3   OH263588   5.661   3.611  13.348  0.0538 -0.1168 -0.1234
14058TIP3    H163589   5.719   3.599  13.423 -0.1635 -2.3713 -0.2493
14058TIP3    H263590   5.693   3.548  13.283 -1.3331 -0.0307 -0.9280
14059TIP3   OH263591   4.227   3.977  15.874 -0.7596  0.9390  0.3820
14059TIP3    H163592   4.213   3.949  15.783  1.1161 -1.4767  0.7135
14059TIP3    H263593   4.321   3.991  15.880 -0.6645 -0.1196  2.1943
14060TIP3   OH263594   3.700   2.413   2.528  0.2087 -0.0360  0.4327
14060TIP3    H163595   3.641   2.415   2.604 -1.1232 -2.4295 -0.4284
14060TIP3    H263596   3.641   2.403   2.453  1.6674 -1.6186 -0.5600
14061TIP3   OH263597   4.134   2.869  14.857 -0.5503 -0.2584 -0.0013
14061TIP3    H163598   4.183   2.861  14.775 -1.2226  0.9474 -0.5444
14061TIP3    H263599   4.083   2.948  14.846 -1.0578 -0.3777  1.3890
14062TIP3   OH263600   2.576   5.251   1.398 -0.3878 -0.1331 -0.2551
14062TIP3    H163601   2.527   5.329   1.373  0.4322  0.3711 -0.3300
14062TIP3    H263602   2.665   5.283   1.411 -0.3302 -0.7970  1.1025
14063TIP3   OH263603   2.724   5.604   3.973 -0.4979  0.1543  0.3190
14063TIP3    H163604   2.748   5.605   3.880 -2.1130 -0.8878 -0.1577
14063TIP3    H263605   2.800   5.642   4.018 -0.0875  1.6364 -1.5020
14064TIP3   OH263606   3.628   5.402  15.517  0.1473 -0.4880  0.2434
14064TIP3    H163607   3.548   5.351  15.501 -1.3915  1.8037  0.1897
14064TIP3    H263608   3.658   5.428  15.430  0.6251 -0.8330  0.2989
14065TIP3   OH263609   0.405   6.281   0.819 -0.3839  0.6500  0.0914
14065TIP3    H163610   0.450   6.319   0.894 -0.5752  0.7233  0.1704
14065TIP3    H263611   0.335   6.344   0.798 -0.2209  0.7196 -0.2591
14066TIP3   OH263612   5.946   3.720   5.534 -0.3146 -0.6196 -0.0921
14066TIP3    H163613   5.916   3.653   5.596  1.1408 -1.1661  0.0560
14066TIP3    H263614   5.865   3.752   5.493 -1.2593 -0.6919  1.6065
14067TIP3   OH263615   1.276   3.849   4.958  0.7066  0.1019  0.0496
14067TIP3    H163616   1.228   3.922   4.921  1.6420  0.6390 -0.1398
14067TIP3    H263617   1.260   3.854   5.052  0.0650  0.0234 -0.0555
14068TIP3   OH263618   3.818   6.547   1.274  0.0738  0.3493 -0.0745
14068TIP3    H163619   3.871   6.468   1.264 -0.1459  0.2845 -0.7122
14068TIP3    H263620   3.832   6.597   1.194 -0.2627  0.6727  0.0618
14069TIP3   OH263621   2.919   3.076  10.706  0.5337 -0.5127 -0.0341
14069TIP3    H163622   2.974   3.035  10.639 -0.7722 -1.0888 -0.7991
14069TIP3    H263623   2.849   3.012  10.722  0.2230  0.0883  1.0844
14070TIP3   OH263624   4.543   1.912  16.302  0.5892 -0.2550  0.2074
14070TIP3    H163625   4.546   1.911  16.206  1.4875 -0.7184  0.2321
14070TIP3    H263626   4.533   2.004  16.325  1.4621 -0.0197 -0.3129
14071TIP3   OH263627   2.374   3.610   4.625  0.1559 -0.0354  0.1515
14071TIP3    H163628   2.423   3.617   4.543  0.8560 -0.1219  0.5526
14071TIP3    H263629   2.282   3.615   4.599  0.3582 -0.4464 -0.6741
14072TIP3   OH263630   5.604   3.442   4.280 -0.2258 -0.7566  0.0404
14072TIP3    H163631   5.546   3.366   4.283 -0.3912 -0.6147  1.9932
14072TIP3    H263632   5.545   3.517   4.283 -0.0306 -0.5665 -0.8389
14073TIP3   OH263633   3.368   2.828  12.977 -0.0178  0.9145  0.1822
14073TIP3    H163634   3.454   2.808  13.014 -0.9113 -3.4107  0.4990
14073TIP3    H263635   3.314   2.852  13.052  0.6998  3.1051  0.0509
14074TIP3   OH263636   6.288   3.253  16.781  0.5835 -0.1225  0.0207
14074TIP3    H163637   6.197   3.225  16.776  0.1829  0.8388  1.4609
14074TIP3    H263638   6.337   3.182  16.739 -0.7284 -1.1101  0.1013
14075TIP3   OH263639   3.729   3.022  15.658 -0.1486 -0.5816 -0.1453
14075TIP3    H163640   3.692   3.066  15.581  2.0770 -3.1528 -2.9570
14075TIP3    H263641   3.808   3.072  15.678 -1.8104  1.3902  2.0699
14076TIP3   OH263642   4.981   3.692  15.633  0.6134 -0.0369  0.1862
14076TIP3    H163643   5.025   3.669  15.551  1.9620  0.8783  0.6143
14076TIP3    H263644   4.903   3.740  15.606  0.5190 -0.6121 -0.5758
14077TIP3   OH263645   2.178   2.837  15.593  0.2772 -0.5796 -0.2496
14077TIP3    H163646   2.152   2.766  15.651 -0.4897  0.8692  1.2856
14077TIP3    H263647   2.105   2.847  15.533 -0.1877 -0.3064  0.3414
14078TIP3   OH263648   2.301   4.119   1.483 -0.5694  0.0636  0.1855
14078TIP3    H163649   2.372   4.080   1.534 -0.9499 -1.5532 -0.4629
14078TIP3    H263650   2.265   4.187   1.540 -1.3661 -2.0370  2.3505
14079TIP3   OH263651   5.786   3.158   1.455  0.6025 -0.3183  0.2259
14079TIP3    H163652   5.759   3.067   1.444  3.2275 -1.1283 -0.1247
14079TIP3    H263653   5.873   3.153   1.496  1.9990  1.8950 -2.1366
14080TIP3   OH263654   1.930   3.930   5.466 -0.5558 -0.4692 -0.9208
14080TIP3    H163655   1.999   3.990   5.438  0.1069 -1.0456 -0.5728
14080TIP3    H263656   1.918   3.948   5.559  0.3946 -1.5622 -0.5576
14081TIP3   OH263657   6.767   2.020   4.130 -0.2053 -0.3630 -0.1477
14081TIP3    H163658   6.722   2.083   4.073 -0.2603  2.1985  2.4371
14081TIP3    H263659   6.723   2.030   4.215  1.8949 -1.5603  1.1750
14082TIP3   OH263660   3.345   3.757   1.994 -0.3193 -0.1763 -0.0931
14082TIP3    H163661   3.379   3.847   2.002 -0.8028  0.0349 -0.3970
14082TIP3    H263662   3.351   3.738   1.901  0.8425 -0.8826  0.1071
14083TIP3   OH263663   0.613   0.086  16.688 -0.2670 -0.2622 -0.3064
14083TIP3    H163664   0.708   0.093  16.682 -0.3237  0.6197 -0.3317
14083TIP3    H263665   0.583   0.080  16.597 -0.1570 -2.0439 -0.2643
14084TIP3   OH263666   4.702   3.869   2.219  0.3361  0.3108  1.0826
14084TIP3    H163667   4.737   3.787   2.253 -0.2768 -0.6329 -0.4545
14084TIP3    H263668   4.774   3.932   2.228  1.7871 -1.0798 -0.1735
14085TIP3   OH263669   6.234   4.232   0.895  0.0232 -0.0962 -0.4402
14085TIP3    H163670   6.304   4.208   0.836 -1.7311  0.0292 -2.7123
14085TIP3    H263671   6.215   4.324   0.874 -1.2956 -0.3388 -0.4282
14086TIP3   OH263672   5.072   4.522  13.930  0.1223 -0.5559  0.3912
14086TIP3    H163673   5.106   4.577  13.999  1.7923 -0.1294 -0.7160
14086TIP3    H263674   5.051   4.583  13.858  1.9293 -1.2844 -0.8228
14087TIP3   OH263675   0.245   0.281  12.024 -0.1418 -0.1715 -0.1364
14087TIP3    H163676   0.198   0.200  12.006  1.9114 -1.2570 -0.9952
14087TIP3    H263677   0.336   0.254  12.038  0.6403  1.9718 -0.5257
14088TIP3   OH263678   1.182   2.271   0.838  0.1735  0.1147  0.1596
14088TIP3    H163679   1.229   2.339   0.886 -0.5801  0.7583  0.0046
14088TIP3    H263680   1.249   2.206   0.818  0.9182  0.8193  0.2868
14089TIP3   OH263681   1.061   4.912  13.083  0.1121 -0.1374  0.4369
14089TIP3    H163682   1.040   4.954  13.166 -0.2485 -0.4482  0.5026
14089TIP3    H263683   1.140   4.957  13.053 -1.8320  2.6311 -0.9397
14090TIP3   OH263684   4.000   1.587  10.827 -0.4364 -0.3036 -0.0341
14090TIP3    H163685   4.019   1.579  10.733  1.2005 -0.7395  0.2926
14090TIP3    H263686   3.931   1.522  10.843 -1.2486  0.2805 -1.0490
14091TIP3   OH263687   5.607   3.861   1.166  0.3045 -0.4871 -0.0211
14091TIP3    H163688   5.542   3.794   1.187  0.1665 -0.2332  0.3686
14091TIP3    H263689   5.673   3.815   1.115 -0.2147 -0.7364 -0.4882
14092TIP3   OH263690   6.418   2.150   0.816  0.3231  0.0213 -0.0613
14092TIP3    H163691   6.386   2.072   0.861 -0.3541 -0.4427 -1.3187
14092TIP3    H263692   6.411   2.129   0.723  0.7867  1.3257 -0.4072
14093TIP3   OH263693   3.546   3.005  12.232 -0.2622 -0.1589 -0.4678
14093TIP3    H163694   3.627   3.055  12.243 -0.8347  0.9197 -0.9764
14093TIP3    H263695   3.518   2.985  12.321  1.2446 -1.7250 -0.2974
14094TIP3   OH263696   6.071   0.752   0.745 -0.0747 -0.1751 -0.3461
14094TIP3    H163697   5.990   0.713   0.712 -0.0050 -1.6741  1.0991
14094TIP3    H263698   6.134   0.738   0.675 -0.3170 -1.8708 -0.2835
14095TIP3   OH263699   2.709   3.578  14.529  0.2693 -0.4444  0.0416
14095TIP3    H163700   2.754   3.580  14.445 -0.6660  0.8109 -0.4650
14095TIP3    H263701   2.616   3.589  14.507 -0.1174 -1.2911  1.1619
14096TIP3   OH263702   4.854   4.680  15.658  0.8405 -0.0863  0.4788
14096TIP3    H163703   4.822   4.592  15.637  0.0785  0.0857  0.8682
14096TIP3    H263704   4.782   4.738  15.631  1.7956  0.5292 -0.8802
14097TIP3   OH263705   1.348   0.532   3.183 -0.4385 -0.2840  0.1913
14097TIP3    H163706   1.297   0.497   3.256 -0.5980  0.3305  0.3824
14097TIP3    H263707   1.393   0.608   3.219  1.2796 -1.2845  0.2410
14098TIP3   OH263708   0.864   5.867  12.575 -0.1837  0.0307  0.1285
14098TIP3    H163709   0.881   5.959  12.552 -1.1271  0.2227  0.1803
14098TIP3    H263710   0.906   5.817  12.505 -2.5498  0.5889 -1.8345
14099TIP3   OH263711   6.184   5.183  15.210 -0.0855 -0.1979  0.0645
14099TIP3    H163712   6.177   5.090  15.189  3.0083 -0.0319 -2.2932
14099TIP3    H263713   6.276   5.204  15.197 -0.4273  2.9722  1.7987
14100TIP3   OH263714   1.465   6.621   3.595  0.0974 -0.1898  0.1050
14100TIP3    H163715   1.497   6.696   3.545 -3.1835  1.4359  0.1595
14100TIP3    H263716   1.474   6.649   3.687  2.0865 -1.3995  0.3432
14101TIP3   OH263717   0.052   1.716  12.845  0.6223 -0.9466  0.0638
14101TIP3    H163718   0.037   1.757  12.759  0.3257  1.2438  1.0791
14101TIP3    H263719   0.146   1.703  12.849  0.6907 -0.6546 -0.4302
14102TIP3   OH263720   1.988   1.170   3.671  0.3225  0.1818  0.5722
14102TIP3    H163721   2.075   1.209   3.681  0.3118 -0.2594  3.0055
14102TIP3    H263722   1.986   1.100   3.736 -0.8479 -1.7658 -1.4148
14103TIP3   OH263723   3.274   2.053  12.886 -0.3987  0.5610  0.6372
14103TIP3    H163724   3.308   1.972  12.923  1.7322  1.6763  1.2565
14103TIP3    H263725   3.206   2.025  12.825  1.2846 -1.7955 -0.2927
14104TIP3   OH263726   1.316   0.020  10.368  0.5455 -0.0150 -0.4384
14104TIP3    H163727   1.275   0.026  10.282 -0.0535 -1.3846 -0.2867
14104TIP3    H263728   1.399   0.065  10.358  0.5056 -0.1807 -1.7588
14105TIP3   OH263729   4.647   4.877  17.007  0.0250  0.3204 -0.6636
14105TIP3    H163730   4.634   4.961  16.962  1.9740 -0.0498 -2.0831
14105TIP3    H263731   4.739   4.878  17.033  0.1333 -1.4161 -0.8397
14106TIP3   OH263732   5.781   0.815  16.731 -0.1913 -0.0336 -0.3146
14106TIP3    H163733   5.847   0.875  16.765  0.4432 -1.5184  1.2317
14106TIP3    H263734   5.830   0.737  16.705 -1.0285 -0.0582 -1.9191
14107TIP3   OH263735   1.177   6.466   5.649 -0.4972  0.1433  0.2986
14107TIP3    H163736   1.196   6.558   5.632 -0.4641  0.1460  0.3485
14107TIP3    H263737   1.262   6.422   5.638  0.0549  0.4641  2.7276
14108TIP3   OH263738   6.628   5.552  16.080  0.5679 -0.0429  0.2406
14108TIP3    H163739   6.548   5.603  16.064  0.2734  0.0322  1.8537
14108TIP3    H263740   6.695   5.618  16.096  1.0184 -0.1031 -1.2208
14109TIP3   OH263741   1.000   0.762   5.162 -0.4043  0.3022 -0.1409
14109TIP3    H163742   1.014   0.679   5.116 -0.4004  0.8720 -1.2185
14109TIP3    H263743   0.906   0.778   5.156 -0.6382 -0.3621  1.4222
14110TIP3   OH263744   0.338   3.482  11.517 -0.5087 -0.2665  0.1069
14110TIP3    H163745   0.288   3.450  11.442  0.7104  0.8944 -1.2659
14110TIP3    H263746   0.279   3.545  11.560 -1.1071 -0.7241 -0.0262
14111TIP3   OH263747   6.744   3.882  16.533 -0.5136 -0.8518  0.0587
14111TIP3    H163748   6.791   3.963  16.512 -0.9255 -0.4645  0.6040
14111TIP3    H263749   6.679   3.873  16.464 -2.1900  0.6777  1.3598
14112TIP3   OH263750   0.877   6.198   2.141  0.3959  0.3097  0.1541
14112TIP3    H163751   0.922   6.115   2.130 -0.8004 -0.5525  1.4342
14112TIP3    H263752   0.842   6.219   2.054  1.1503 -0.2504 -0.2864
14113TIP3   OH263753   3.590   2.674  11.505  0.3804  0.1361  0.2917
14113TIP3    H163754   3.659   2.676  11.571 -0.0221  1.3659  0.6955
14113TIP3    H263755   3.514   2.637  11.550  0.6615 -0.9045 -0.0605
14114TIP3   OH263756   0.643   0.060  13.078  0.3488  0.1108  0.0977
14114TIP3    H163757   0.602  -0.024  13.060  2.1354 -0.2045 -3.4022
14114TIP3    H263758   0.593   0.123  13.026  2.2179  0.2082 -1.7227
14115TIP3   OH263759   0.432   5.108  10.835 -0.6031  0.2893 -0.2868
14115TIP3    H163760   0.476   5.190  10.812 -0.7985  0.6626  0.6222
14115TIP3    H263761   0.495   5.039  10.812  0.3308  0.7960  0.6562
14116TIP3   OH263762   0.907   0.738   4.583 -0.9520 -0.1894  0.0268
14116TIP3    H163763   0.873   0.802   4.521 -0.2055 -1.4243 -1.7378
14116TIP3    H263764   0.850   0.662   4.572 -0.1047 -0.8278  0.0143
14117TIP3   OH263765   5.492   6.785  12.180 -0.3994 -0.6787  0.2341
14117TIP3    H163766   5.563   6.801  12.117  1.3031 -0.0643  2.2069
14117TIP3    H263767   5.430   6.857  12.164  0.7879  0.3970  0.3049
14118TIP3   OH263768   3.216   3.726  11.047 -0.2820 -0.2101  0.1199
14118TIP3    H163769   3.141   3.783  11.061  0.5913  0.9793  0.0821
14118TIP3    H263770   3.217   3.668  11.124  0.4203  1.6705  1.6100
14119TIP3   OH263771   6.145   1.376  16.446 -0.6163 -0.3670 -0.3908
14119TIP3    H163772   6.167   1.467  16.424 -1.0595  0.0448  0.7661
14119TIP3    H263773   6.081   1.350  16.380  0.3477 -0.2319 -1.4096
14120TIP3   OH263774   1.279   0.130  16.168 -0.2901 -0.0726  0.2047
14120TIP3    H163775   1.310   0.220  16.179 -0.6513  0.2011 -0.8737
14120TIP3    H263776   1.347   0.088  16.115  0.0873 -0.5705  1.0605
14121TIP3   OH263777   2.575   2.921   1.120  0.2376  0.0162 -0.0156
14121TIP3    H163778   2.659   2.923   1.074 -0.3409  1.5687 -1.0783
14121TIP3    H263779   2.574   3.002   1.171 -0.7556  0.1668 -0.2660
14122TIP3   OH263780   5.245   5.213   5.436  0.4189 -0.3960 -0.0163
14122TIP3    H163781   5.252   5.307   5.451  0.2108 -0.3800 -0.0244
14122TIP3    H263782   5.158   5.200   5.397 -0.9021 -0.9576  2.8607
14123TIP3   OH263783   5.117   3.732  14.046 -0.2922 -0.7190 -0.1259
14123TIP3    H163784   5.147   3.816  14.011 -0.6688 -0.8955 -0.8938
14123TIP3    H263785   5.115   3.745  14.141 -1.9318  0.7021 -0.3022
14124TIP3   OH263786   4.221   4.454   3.876  0.2091  0.2542  0.1349
14124TIP3    H163787   4.223   4.510   3.799  2.1185  0.1030  0.0369
14124TIP3    H263788   4.234   4.365   3.843  0.9213  0.1736  0.5999
14125TIP3   OH263789   6.472   1.328   3.909  0.1513  0.5591  0.7741
14125TIP3    H163790   6.563   1.329   3.939 -0.5283  1.8726  2.9565
14125TIP3    H263791   6.453   1.418   3.883 -0.1827  0.0394 -0.9384
14126TIP3   OH263792   6.736   2.430  15.025 -0.4358  0.0479 -0.2432
14126TIP3    H163793   6.666   2.396  14.969  0.4716 -2.2122 -0.1341
14126TIP3    H263794   6.793   2.477  14.965 -0.7943 -0.1880 -0.7808
14127TIP3   OH263795   4.647   6.452  11.263 -0.5690  0.8591  0.3659
14127TIP3    H163796   4.595   6.419  11.189  0.6979  1.0794 -0.6594
14127TIP3    H263797   4.715   6.505  11.222 -0.4786  1.8832  1.7791
14128TIP3   OH263798   5.089   1.557   3.315  0.2935 -0.7925  0.0797
14128TIP3    H163799   5.056   1.616   3.247 -0.8109  0.6070  1.7717
14128TIP3    H263800   5.154   1.504   3.269 -1.1427 -0.6498 -2.3311
14129TIP3   OH263801   3.967   3.554  13.474 -0.2493  0.0146 -0.3925
14129TIP3    H163802   4.005   3.635  13.441 -0.2712  0.4313  0.5855
14129TIP3    H263803   3.874   3.560  13.449 -0.4131  0.6519  0.3512
14130TIP3   OH263804   0.167   3.131   4.479  0.2272 -0.2129 -0.4001
14130TIP3    H163805   0.125   3.196   4.535  1.1192  0.4943 -0.5144
14130TIP3    H263806   0.176   3.054   4.535 -1.9408 -0.6992 -0.6281
14131TIP3   OH263807   0.539   4.312  13.475  0.2209  0.2380 -0.1628
14131TIP3    H163808   0.592   4.281  13.402 -1.0899 -1.9512 -0.2473
14131TIP3    H263809   0.451   4.323  13.439 -0.2782 -0.1324  0.8876
14132TIP3   OH263810   0.980   4.765  11.562  0.1256  0.1071 -0.2115
14132TIP3    H163811   1.035   4.815  11.622 -0.4013  0.1881  0.2099
14132TIP3    H263812   0.914   4.723  11.618  1.6701 -2.6554 -0.2647
14133TIP3   OH263813   1.666   5.861  16.390  0.1519 -0.2102 -0.0669
14133TIP3    H163814   1.738   5.863  16.454  0.1017  0.6457 -0.0222
14133TIP3    H263815   1.632   5.772  16.395  1.1851 -0.6205 -0.0623
14134TIP3   OH263816   5.585   0.300   1.521 -0.2675 -0.0092  0.4146
14134TIP3    H163817   5.646   0.367   1.553 -0.7798  0.2080  0.9670
14134TIP3    H263818   5.633   0.253   1.454  0.0721  0.9876 -0.0574
14135TIP3   OH263819   3.609   3.118  12.786 -0.0337 -0.5770  1.1481
14135TIP3    H163820   3.600   3.024  12.772  2.5480 -1.0583  2.0899
14135TIP3    H263821   3.662   3.148  12.711 -1.7532  0.4006  0.2502
14136TIP3   OH263822   0.450   6.595  12.869  0.0728 -0.2573 -0.5420
14136TIP3    H163823   0.406   6.624  12.790 -0.0100  0.8775 -0.1001
14136TIP3    H263824   0.432   6.664  12.933 -1.1969 -1.8872  0.9476
14137TIP3   OH263825   3.003   0.428   3.517 -0.0955 -0.7205  0.2206
14137TIP3    H163826   3.077   0.489   3.529  0.4239 -0.4156 -3.3357
14137TIP3    H263827   3.042   0.350   3.477 -1.5576 -0.6792 -1.4537
14138TIP3   OH263828   0.065   4.943   0.252 -0.1736 -0.0197 -0.2066
14138TIP3    H163829   0.076   4.984   0.166 -0.6740 -1.4137 -0.9764
14138TIP3    H263830   0.152   4.912   0.275  0.2290  1.5445  0.4368
14139TIP3   OH263831   5.709   5.354   0.448  0.1225 -0.1960  0.0325
14139TIP3    H163832   5.678   5.263   0.450 -1.0510  0.1833  0.0999
14139TIP3    H263833   5.661   5.394   0.376  1.8502 -0.0201 -1.0712
14140TIP3   OH263834   2.759   3.300   4.116  0.1946 -0.1103  0.0903
14140TIP3    H163835   2.783   3.392   4.099 -1.2473  0.2051 -0.3319
14140TIP3    H263836   2.671   3.291   4.079 -0.3327 -1.2355  1.5562
14141TIP3   OH263837   3.470   1.811   5.329  0.8053  0.4156  0.3727
14141TIP3    H163838   3.513   1.896   5.329  1.5839  0.0737 -1.1722
14141TIP3    H263839   3.530   1.754   5.379  0.5505  0.6446  0.9449
14142TIP3   OH263840   0.612   5.826   3.934  0.2429 -0.5500 -0.1410
14142TIP3    H163841   0.572   5.849   4.018 -0.3033 -1.0899 -0.2478
14142TIP3    H263842   0.554   5.864   3.868  0.5259 -0.3580 -0.2819
14143TIP3   OH263843   1.849   3.577   5.963  0.1279 -0.2908 -0.2252
14143TIP3    H163844   1.829   3.662   6.004 -1.9271 -0.0864 -1.5006
14143TIP3    H263845   1.939   3.587   5.930 -0.5464  2.0028 -1.6762
14144TIP3   OH263846   4.408   2.898  16.412 -0.1309 -0.4002 -0.0628
14144TIP3    H163847   4.404   2.960  16.485 -1.2596  0.6328 -0.9768
14144TIP3    H263848   4.479   2.930  16.357  0.0590 -0.6031  0.0628
14145TIP3   OH263849   1.599   1.148   2.468 -0.6939  0.2704  0.4463
14145TIP3    H163850   1.642   1.114   2.390  0.0913 -0.0977  1.0371
14145TIP3    H263851   1.534   1.210   2.434 -0.3252  0.1513 -0.4956
14146TIP3   OH263852   5.321   5.850   2.513 -0.1637  0.2148 -0.2296
14146TIP3    H163853   5.301   5.839   2.420  0.7684  0.9832 -0.5486
14146TIP3    H263854   5.339   5.761   2.544  1.0124  0.0844 -1.1734
14147TIP3   OH263855   2.807   4.651  11.495 -0.6124  0.3742 -0.5694
14147TIP3    H163856   2.804   4.597  11.416  0.9559  0.7977 -0.9499
14147TIP3    H263857   2.900   4.662  11.513 -0.9395  0.3724  1.3051
14148TIP3   OH263858   5.791   2.629   5.266 -0.5275  0.1932  0.4269
14148TIP3    H163859   5.699   2.609   5.245  0.0577  0.1417 -2.5372
14148TIP3    H263860   5.795   2.624   5.362 -3.7377  0.7915  0.7296
14149TIP3   OH263861   0.241   6.277  12.745 -0.1784 -0.5944 -0.3791
14149TIP3    H163862   0.279   6.191  12.728 -0.0431 -0.4808 -0.6574
14149TIP3    H263863   0.249   6.324  12.662  0.6287  0.0229  0.0199
14150TIP3   OH263864   0.479   1.509   3.510 -0.3028  0.0584 -0.9737
14150TIP3    H163865   0.407   1.448   3.525  1.2478 -1.6335  0.0467
14150TIP3    H263866   0.480   1.565   3.587 -0.3251 -0.1677 -0.8058
14151TIP3   OH263867   3.432   3.820  14.554  0.5093 -0.8236  0.0184
14151TIP3    H163868   3.474   3.780  14.630 -0.1381 -2.0553 -0.2458
14151TIP3    H263869   3.418   3.911  14.579  2.1618 -0.6910  0.5861
14152TIP3   OH263870   6.779   5.250  15.593  0.4294 -0.5729  0.1897
14152TIP3    H163871   6.749   5.324  15.540 -1.1874 -0.3536  1.3204
14152TIP3    H263872   6.854   5.215  15.545 -1.2440 -0.7540 -2.5707
14153TIP3   OH263873   6.668   2.288   1.185  0.4569  0.4165  0.1433
14153TIP3    H163874   6.589   2.341   1.178  0.5447  0.3560 -1.9857
14153TIP3    H263875   6.705   2.311   1.270 -1.0995  1.4886  0.5736
14154TIP3   OH263876   1.320   6.257   2.309 -0.3896  0.3259  0.6355
14154TIP3    H163877   1.253   6.202   2.350 -0.1905 -0.4387 -0.0343
14154TIP3    H263878   1.315   6.235   2.216  1.2080 -0.2152  0.6481
14155TIP3   OH263879   3.645   1.180   1.762  0.3685  0.2634 -0.2426
14155TIP3    H163880   3.600   1.259   1.733  0.9109  0.5814 -0.2184
14155TIP3    H263881   3.737   1.204   1.764  0.7637 -0.9249 -2.0649
14156TIP3   OH263882   0.083   4.138  10.621 -0.4974  0.2335 -0.2634
14156TIP3    H163883   0.104   4.136  10.528 -1.0117 -1.1045 -0.3825
14156TIP3    H263884   0.101   4.228  10.649  0.0909  0.5317 -1.5448
14157TIP3   OH263885   2.273   5.798   5.170  0.1302  0.0547  0.1603
14157TIP3    H163886   2.364   5.772   5.154  1.6368  2.0413  4.0543
14157TIP3    H263887   2.232   5.798   5.083  4.0036 -0.2747 -1.8952
14158TIP3   OH263888   2.021   5.354  16.601  0.1302  0.7540  0.0529
14158TIP3    H163889   2.112   5.325  16.604 -0.5009 -1.3469  1.6196
14158TIP3    H263890   1.992   5.330  16.513  0.6315 -0.2168  0.1348
14159TIP3   OH263891   0.018   1.860  11.158  0.0085  0.0831 -0.1165
14159TIP3    H163892  -0.028   1.812  11.227  0.4725 -2.0808 -1.2315
14159TIP3    H263893  -0.037   1.936  11.141 -1.5848 -0.8476  0.6596
14160TIP3   OH263894   5.874   5.821   1.091  0.2355 -0.2572  0.7615
14160TIP3    H163895   5.863   5.783   1.178  0.3849 -0.4549  0.6937
14160TIP3    H263896   5.870   5.916   1.106 -0.8467 -0.3049  0.8312
14161TIP3   OH263897   3.196   2.376   3.551 -0.3451  0.1366  0.7870
14161TIP3    H163898   3.159   2.446   3.497 -0.4857 -0.0942  0.5792
14161TIP3    H263899   3.208   2.303   3.491 -1.8862 -0.6193  1.3464
14162TIP3   OH263900   5.700   6.445   2.669  0.1751 -0.6028  0.1193
14162TIP3    H163901   5.677   6.462   2.578  0.8065 -1.8791 -0.2985
14162TIP3    H263902   5.680   6.527   2.714 -1.6715 -0.4510 -0.8562
14163TIP3   OH263903   5.994   5.786   5.909 -0.2395 -0.0925  0.1048
14163TIP3    H163904   6.022   5.814   5.822 -0.2551 -1.2672 -0.2978
14163TIP3    H263905   6.050   5.711   5.929 -0.1780  0.2158  1.1473
14164TIP3   OH263906   4.818   1.705  11.990  0.5101 -0.4743  0.1470
14164TIP3    H163907   4.732   1.662  11.992  0.5047 -0.5227 -0.6197
14164TIP3    H263908   4.807   1.783  12.044 -0.0383 -0.4553  0.0137
14165TIP3   OH263909   0.077   5.221   4.729  0.1375  0.0760  0.1257
14165TIP3    H163910   0.145   5.182   4.784  0.0899  2.6918  2.2267
14165TIP3    H263911  -0.001   5.222   4.785 -0.2583  1.6463 -0.4060
14166TIP3   OH263912   4.526   5.354  11.622  0.3460  0.5978 -0.4944
14166TIP3    H163913   4.578   5.354  11.542 -0.3697  1.6673 -0.9760
14166TIP3    H263914   4.452   5.411  11.603  0.5792  1.5336  1.2081
14167TIP3   OH263915   4.628   0.660  13.504  0.5625 -0.2440  0.0886
14167TIP3    H163916   4.709   0.636  13.550  0.8044 -2.5758 -1.3841
14167TIP3    H263917   4.572   0.582  13.512 -0.8403  0.6832 -0.4028
14168TIP3   OH263918   1.682   2.228  10.826  0.1366  0.3290  0.2563
14168TIP3    H163919   1.680   2.136  10.853 -1.5783 -0.0945 -1.1870
14168TIP3    H263920   1.685   2.225  10.730  0.0632  1.7896  0.1897
14169TIP3   OH263921   0.534   4.187   1.113  0.0371 -0.6877  0.2575
14169TIP3    H163922   0.452   4.207   1.159 -0.6318  1.9143 -1.7960
14169TIP3    H263923   0.506   4.147   1.030  0.7937  0.4105 -0.5528
14170TIP3   OH263924   5.114   0.821   4.791 -0.0046 -0.3122  0.2442
14170TIP3    H163925   5.075   0.908   4.785  2.3769  0.8806  0.7117
14170TIP3    H263926   5.143   0.801   4.702  1.2603  0.3438  0.4753
14171TIP3   OH263927   3.339   0.104  14.588 -0.0331 -0.4674  0.3940
14171TIP3    H163928   3.400   0.163  14.633 -0.9337  0.2167  0.7508
14171TIP3    H263929   3.331   0.029  14.647 -0.9834  0.2974  1.2619
14172TIP3   OH263930   1.277   0.523   2.494  0.0982 -0.1400  0.1854
14172TIP3    H163931   1.358   0.562   2.461  1.2479 -1.5406  1.1616
14172TIP3    H263932   1.298   0.429   2.502 -1.5101 -0.4804  0.7917
14173TIP3   OH263933   4.006   1.216  11.249 -0.4553  0.1369 -0.2689
14173TIP3    H163934   3.939   1.148  11.243  0.0274 -0.5259  1.5040
14173TIP3    H263935   3.959   1.297  11.229 -1.0294 -0.6538 -2.4416
14174TIP3   OH263936   6.543   5.705  10.973 -0.0778  0.3087  0.1913
14174TIP3    H163937   6.565   5.712  11.066  0.0221 -0.4126  0.2266
14174TIP3    H263938   6.568   5.616  10.949 -0.0175  0.5215 -0.5524
14175TIP3   OH263939   2.396   3.988  15.205 -1.0834  0.3182  0.8680
14175TIP3    H163940   2.405   3.928  15.130 -0.2873 -1.4316  2.2865
14175TIP3    H263941   2.424   4.072  15.171  2.4198 -1.0519 -0.0438
14176TIP3   OH263942   1.232   4.131   1.982 -0.2237  0.3364  0.2231
14176TIP3    H163943   1.302   4.121   1.918  0.2450 -0.0149  0.7745
14176TIP3    H263944   1.222   4.043   2.020  0.2738  0.7530  1.3904
14177TIP3   OH263945   5.139   3.062  13.059 -0.3302  0.6901  0.9577
14177TIP3    H163946   5.086   2.983  13.050 -0.7588  0.8693  1.8122
14177TIP3    H263947   5.164   3.084  12.970  0.7520 -1.0523  0.7793
14178TIP3   OH263948   2.175   3.789   4.116  0.0520 -0.1392  0.3150
14178TIP3    H163949   2.254   3.838   4.093 -0.6706 -0.0614 -2.2709
14178TIP3    H263950   2.182   3.776   4.211  0.9805  3.6914  0.9400
14179TIP3   OH263951   5.518   4.297   4.118  0.4102 -0.1493 -0.0177
14179TIP3    H163952   5.458   4.295   4.193  0.5043  1.5386  0.1532
14179TIP3    H263953   5.588   4.356   4.145  1.3868 -0.9510 -0.7688
14180TIP3   OH263954   2.335   5.594  10.545  0.3736 -0.0626  0.8315
14180TIP3    H163955   2.428   5.588  10.523  0.2392  2.3080 -0.7118
14180TIP3    H263956   2.331   5.657  10.617  0.0524 -1.4705  2.1017
14181TIP3   OH263957   1.060   3.854   4.429  0.4453 -0.5995  0.2375
14181TIP3    H163958   1.154   3.842   4.438  0.4562 -0.0520  0.9316
14181TIP3    H263959   1.050   3.943   4.394  0.2416 -1.2756 -1.5447
14182TIP3   OH263960   6.768   2.626   1.136  0.5742 -0.3753 -0.1962
14182TIP3    H163961   6.780   2.548   1.083 -2.1449  0.9389 -3.1005
14182TIP3    H263962   6.820   2.694   1.093  0.6538  0.0682  0.5752
14183TIP3   OH263963   6.240   0.530   5.592  0.2905 -0.2656 -0.3262
14183TIP3    H163964   6.323   0.572   5.611  1.4217 -2.3423 -0.4222
14183TIP3    H263965   6.196   0.590   5.531  1.9863  0.5721 -0.7733
14184TIP3   OH263966   3.214   6.609  14.413 -0.0715 -0.0133 -0.1512
14184TIP3    H163967   3.136   6.583  14.461 -0.6245 -0.9751 -1.4964
14184TIP3    H263968   3.212   6.557  14.333  1.2852  0.8604 -0.8107
14185TIP3   OH263969   4.101   2.156  16.879  0.1751  0.1262 -0.2690
14185TIP3    H163970   4.090   2.156  16.784 -0.8097 -0.3216 -0.1659
14185TIP3    H263971   4.115   2.248  16.902  0.1431  0.2681 -0.8072
14186TIP3   OH263972   1.622   0.345  12.999  0.2543  0.4576  0.1464
14186TIP3    H163973   1.633   0.416  12.936  1.5731  0.1441  0.0010
14186TIP3    H263974   1.535   0.359  13.036 -0.0373  1.3629 -0.8449
14187TIP3   OH263975   6.017   1.920   2.753  0.3052  0.5347 -0.0036
14187TIP3    H163976   6.042   1.886   2.839 -2.1761 -2.1348 -0.1935
14187TIP3    H263977   6.100   1.950   2.714  1.8718 -0.4419  2.3577
14188TIP3   OH263978   2.940   5.999  11.483  0.1724 -0.0828  0.7064
14188TIP3    H163979   2.945   6.067  11.551  2.2610  0.3149  0.2348
14188TIP3    H263980   2.902   6.043  11.408 -1.0555 -0.2070  1.2372
14189TIP3   OH263981   4.475   3.533  15.384 -0.6312 -0.3022 -0.3418
14189TIP3    H163982   4.396   3.561  15.431 -1.0142 -0.5506 -0.8307
14189TIP3    H263983   4.487   3.600  15.316 -0.2523 -0.1086 -0.0888
14190TIP3   OH263984   1.078   5.269   2.815 -0.0402  0.2961  0.0380
14190TIP3    H163985   1.085   5.233   2.726 -3.1723  0.3799 -0.3280
14190TIP3    H263986   1.045   5.196   2.867 -0.9185  1.0418  0.5291
14191TIP3   OH263987   2.473   3.484   1.647  0.0789  0.2502  0.4561
14191TIP3    H163988   2.398   3.450   1.695  0.5185 -1.4507 -0.0262
14191TIP3    H263989   2.549   3.448   1.691  0.5838  0.8232  0.0819
14192TIP3   OH263990   4.161   0.938  12.340 -0.2346 -0.1889  0.3636
14192TIP3    H163991   4.102   0.975  12.275 -0.4276 -1.0208  0.0510
14192TIP3    H263992   4.243   0.923  12.293  0.8276  2.4543  1.1688
14193TIP3   OH263993   2.910   5.414   2.311  0.7770  0.4361  0.0814
14193TIP3    H163994   2.915   5.329   2.355  1.7568  1.5515  2.2867
14193TIP3    H263995   2.899   5.477   2.382 -1.9812  2.0550 -1.5882
14194TIP3   OH263996   2.665   3.235  15.550  0.1402  0.0611  0.3689
14194TIP3    H163997   2.731   3.234  15.481 -0.3845 -0.2619 -0.1432
14194TIP3    H263998   2.650   3.143  15.571 -0.1560  0.1280  0.4652
14195TIP3   OH263999   6.094   4.231   5.344 -0.0596 -0.3506 -0.3159
14195TIP3    H164000   6.158   4.174   5.302 -1.4411 -3.1453  1.0346
14195TIP3    H264001   6.015   4.221   5.291 -0.9345 -1.5183  1.1232
14196TIP3   OH264002   5.047   1.970   6.152  0.0372  0.2037  0.0657
14196TIP3    H164003   5.056   2.018   6.234 -1.2117  0.7430 -0.0740
14196TIP3    H264004   5.136   1.954   6.122  0.4902  1.1225  0.8898
14197TIP3   OH264005   2.919   0.177  14.562 -0.3669  0.3523  0.0361
14197TIP3    H164006   2.853   0.121  14.520 -1.0133  1.1766 -0.0821
14197TIP3    H264007   2.984   0.191  14.493 -0.3688  0.0095 -0.0374
14198TIP3   OH264008   5.884   3.878  16.243 -0.3482  0.5429 -0.3301
14198TIP3    H164009   5.824   3.807  16.220 -0.9440  1.1057 -0.5580
14198TIP3    H264010   5.942   3.886  16.167 -2.0504  2.1229 -1.5788
14199TIP3   OH264011   3.622   1.413  15.577  0.3141  1.0448  0.5848
14199TIP3    H164012   3.549   1.359  15.546  0.7374  0.4731  0.5907
14199TIP3    H264013   3.596   1.441  15.665 -0.2704  1.5348  0.2654
14200TIP3   OH264014   5.171   0.221   2.275  0.5660  0.1345  0.5041
14200TIP3    H164015   5.165   0.152   2.341  0.1876 -0.9670 -0.6453
14200TIP3    H264016   5.255   0.264   2.292  1.1291 -1.0550  0.8158
14201TIP3   OH264017   3.875   6.594   3.497 -0.4241 -0.2661 -0.1316
14201TIP3    H164018   3.832   6.659   3.442  1.3598  0.7803 -0.3544
14201TIP3    H264019   3.905   6.644   3.574 -0.9108 -1.2639  0.7348
14202TIP3   OH264020   5.057   2.611  10.720  0.5115  0.2824 -0.0744
14202TIP3    H164021   5.123   2.617  10.651  1.7875  0.7328  1.1281
14202TIP3    H264022   5.073   2.689  10.775 -0.0906 -0.3413  1.0205
14203TIP3   OH264023   0.845   3.491  13.355  0.6494 -0.5153  0.5239
14203TIP3    H164024   0.801   3.494  13.270  1.1839 -0.2636  0.2527
14203TIP3    H264025   0.843   3.581  13.386 -0.2822 -0.7471  1.1671
14204TIP3   OH264026   6.806   4.123  16.407 -0.3501 -0.0080 -0.2527
14204TIP3    H164027   6.750   4.195  16.437  0.0078 -0.8615  2.7185
14204TIP3    H264028   6.869   4.165  16.348 -0.9267  1.9043  0.4139
14205TIP3   OH264029   2.694   5.853   2.568 -0.5874 -0.3272 -0.0191
14205TIP3    H164030   2.688   5.780   2.629 -2.1150 -0.9574 -0.8726
14205TIP3    H264031   2.787   5.875   2.567 -0.4563 -0.5236  2.2230
14206TIP3   OH264032   4.102   0.330  11.363  0.2284 -0.0316 -0.0308
14206TIP3    H164033   4.013   0.365  11.359  0.3469  0.6046  1.9061
14206TIP3    H264034   4.157   0.406  11.381  1.0329 -0.5737 -0.1400
14207TIP3   OH264035   1.568   1.856   1.755 -0.1330 -0.0371  0.7360
14207TIP3    H164036   1.661   1.834   1.746 -0.6117 -1.9897  0.1442
14207TIP3    H264037   1.554   1.928   1.694  1.1537  0.9185  1.4981
14208TIP3   OH264038   3.279   3.557   5.717  0.2925 -0.3498  0.8283
14208TIP3    H164039   3.219   3.557   5.642  1.0213  1.8469  0.1755
14208TIP3    H264040   3.224   3.534   5.792 -1.5653  2.0383  0.3248
14209TIP3   OH264041   4.090   1.124   1.837  0.0418 -0.4894 -0.1066
14209TIP3    H164042   4.182   1.114   1.859  0.0762 -0.5554 -0.2754
14209TIP3    H264043   4.047   1.145   1.920  0.4152  0.9784 -0.2598
14210TIP3   OH264044   4.114   0.690   4.194  0.4384 -0.0942 -0.0710
14210TIP3    H164045   4.178   0.635   4.241  0.3992  0.2186  0.3541
14210TIP3    H264046   4.072   0.741   4.263  0.5835  0.5831 -0.4844
14211TIP3   OH264047   3.074   0.160   3.292 -0.2096  0.1350 -0.8376
14211TIP3    H164048   3.130   0.095   3.334  0.5745  1.0812 -0.3760
14211TIP3    H264049   3.120   0.183   3.211 -0.6223 -0.0872 -1.1366
14212TIP3   OH264050   3.006   4.536   5.019  0.4306  0.2621  0.5281
14212TIP3    H164051   3.062   4.502   5.088  1.9160 -0.5998 -1.0425
14212TIP3    H264052   3.066   4.562   4.949 -0.9942  1.4787 -0.3060
14213TIP3   OH264053   6.035   0.550  17.062 -0.6917  0.0979  0.1146
14213TIP3    H164054   6.075   0.621  17.012 -0.4735 -0.0985  0.0062
14213TIP3    H264055   5.963   0.519  17.007 -0.6913  0.1372  0.0912
14214TIP3   OH264056   1.283   2.512   6.053  0.8328 -0.5220  0.1978
14214TIP3    H164057   1.298   2.591   6.105 -0.1416 -0.1934  0.0181
14214TIP3    H264058   1.199   2.478   6.085 -0.7431  0.7024 -2.3114
14215TIP3   OH264059   1.678   3.712  16.010 -0.1711 -0.0740  0.1937
14215TIP3    H164060   1.773   3.721  16.001  0.0288  0.6293  2.5586
14215TIP3    H264061   1.648   3.796  16.043 -1.6211 -0.3460 -0.3476
14216TIP3   OH264062   3.177   3.206  13.879 -0.6808 -0.6632 -0.4486
14216TIP3    H164063   3.134   3.288  13.856 -3.0147 -1.4013  0.9972
14216TIP3    H264064   3.269   3.219  13.854 -1.0074  2.3162 -0.3787
14217TIP3   OH264065   2.572   3.851  12.597 -0.1193 -0.3124 -0.0448
14217TIP3    H164066   2.666   3.847  12.579  0.1071  0.1926  0.9457
14217TIP3    H264067   2.566   3.888  12.685 -1.2462 -0.4560 -0.0458
14218TIP3   OH264068   0.513   3.695  11.701  0.3265  0.2215  0.1911
14218TIP3    H164069   0.472   3.620  11.744  0.6713 -0.0153  0.1129
14218TIP3    H264070   0.510   3.764  11.767 -1.1962  0.5601 -0.1859
14219TIP3   OH264071   0.211   6.701   0.816 -0.2589  0.2602 -0.0482
14219TIP3    H164072   0.208   6.704   0.720 -1.9180  0.3580 -0.0292
14219TIP3    H264073   0.201   6.609   0.838  1.8171  0.0224  0.0337
14220TIP3   OH264074   5.599   1.008   5.657 -0.2330  0.4368  0.1901
14220TIP3    H164075   5.663   0.949   5.696  0.0520  1.3132  1.1007
14220TIP3    H264076   5.624   1.013   5.565  1.0683  0.7956  0.5342
14221TIP3   OH264077   2.991   3.742   3.017 -0.5527  0.6131  0.2454
14221TIP3    H164078   2.952   3.695   3.092 -1.0061 -0.7268 -0.7950
14221TIP3    H264079   2.945   3.708   2.941  0.6124  1.2194 -0.7597
14222TIP3   OH264080   3.035   6.241  12.445  0.2754 -0.2517 -0.0241
14222TIP3    H164081   2.981   6.184  12.391 -0.7649  1.1443 -0.5200
14222TIP3    H264082   2.991   6.242  12.530 -0.2911  0.5777 -0.3131
14223TIP3   OH264083   4.631   0.045   3.435 -0.6812  0.3324  0.5860
14223TIP3    H164084   4.554   0.074   3.483 -1.7429 -0.9150 -0.2986
14223TIP3    H264085   4.597  -0.002   3.359  0.9304  2.7163 -1.8007
14224TIP3   OH264086   2.056   5.324   5.533 -0.1942 -0.0555  0.5886
14224TIP3    H164087   2.115   5.252   5.557  3.1291  1.8099 -1.2439
14224TIP3    H264088   2.009   5.291   5.455  0.5400 -0.5924  0.3624
14225TIP3   OH264089   3.091   2.169   1.255 -0.1865 -0.1975  0.2492
14225TIP3    H164090   3.049   2.083   1.256  0.5393 -0.5517  0.5195
14225TIP3    H264091   3.115   2.186   1.346  1.4080 -0.5866 -0.0634
14226TIP3   OH264092   5.999   2.687   2.735  0.7581  0.2931 -0.0500
14226TIP3    H164093   5.955   2.771   2.720 -0.1945 -0.2222 -0.2232
14226TIP3    H264094   6.089   2.702   2.706  1.4551  2.1441  2.7135
14227TIP3   OH264095   2.693   6.301  12.718  1.1730 -0.4080  0.0658
14227TIP3    H164096   2.672   6.284  12.810  0.9681  1.1492  0.3404
14227TIP3    H264097   2.609   6.298  12.673  0.9660  0.9074  0.3160
14228TIP3   OH264098   6.017   6.202   3.805 -0.5706  0.3487  0.1475
14228TIP3    H164099   5.994   6.124   3.856 -1.8742 -0.2914 -1.3495
14228TIP3    H264100   5.935   6.229   3.764 -0.0102  2.1788  0.1471
14229TIP3   OH264101   0.435   0.633  15.267  0.3378  0.2250  0.1053
14229TIP3    H164102   0.501   0.651  15.335  0.9701 -0.1978 -0.3877
14229TIP3    H264103   0.485   0.601  15.193 -0.5313 -1.1297  0.0760
14230TIP3   OH264104   2.328   2.871  13.875 -0.6085  0.1691  0.4553
14230TIP3    H164105   2.329   2.778  13.899 -2.3935  0.6633  2.9058
14230TIP3    H264106   2.380   2.876  13.795 -1.0652 -3.0436 -0.1896
14231TIP3   OH264107   4.541   6.201   1.701  0.0440 -0.9491  0.2035
14231TIP3    H164108   4.530   6.109   1.679 -0.0391 -0.9426  0.2165
14231TIP3    H264109   4.452   6.232   1.721  0.1695 -1.0482  0.9275
14232TIP3   OH264110   0.454   4.049   5.153 -0.0541 -0.1145 -0.0872
14232TIP3    H164111   0.496   4.008   5.077  2.9706  1.4944  0.5334
14232TIP3    H264112   0.484   3.997   5.228  0.2306  0.6120  0.3134
14233TIP3   OH264113   0.272   5.698   3.679  0.2727 -0.3423  0.1388
14233TIP3    H164114   0.359   5.701   3.640 -0.0149 -1.2677 -0.6096
14233TIP3    H264115   0.267   5.610   3.718 -0.9910 -1.0169 -1.4481
14234TIP3   OH264116   5.600   0.040   3.591 -0.1060  0.8937 -0.0102
14234TIP3    H164117   5.520   0.064   3.637  0.5883  0.6357  1.3961
14234TIP3    H264118   5.662   0.110   3.613  0.8875 -0.3247  1.2661
14235TIP3   OH264119   4.422   5.328  12.437 -0.1183  0.4544  0.8464
14235TIP3    H164120   4.472   5.311  12.517  1.3793  3.3788  0.6936
14235TIP3    H264121   4.448   5.417  12.412 -0.8987 -0.1530 -2.6438
14236TIP3   OH264122   0.129   5.274   3.173  0.3397 -0.2441  0.1255
14236TIP3    H164123   0.196   5.336   3.199  0.8701 -1.4672  1.8623
14236TIP3    H264124   0.171   5.221   3.105 -0.3460  1.6298 -1.8764
14237TIP3   OH264125   3.966   4.961  15.100 -0.6137 -0.4507 -0.1943
14237TIP3    H164126   4.052   4.920  15.104 -0.7520 -0.6490  1.3411
14237TIP3    H264127   3.927   4.929  15.018  0.6901 -0.4698 -0.8302
14238TIP3   OH264128   3.210   1.663   2.927 -0.0474 -0.0566  0.0316
14238TIP3    H164129   3.263   1.619   2.994  0.1705  0.3770  0.1506
14238TIP3    H264130   3.274   1.696   2.864 -0.2510 -0.4268 -0.3661
14239TIP3   OH264131   5.492   4.517  10.825  0.0170  0.3154 -0.1741
14239TIP3    H164132   5.582   4.520  10.858 -0.7612 -1.1284  2.3811
14239TIP3    H264133   5.482   4.428  10.791 -1.0719 -0.3529  1.7589
14240TIP3   OH264134   3.169   4.836   0.608  0.2119 -0.2815 -0.2744
14240TIP3    H164135   3.125   4.807   0.528  0.0970  2.9782 -1.5340
14240TIP3    H264136   3.234   4.768   0.626 -0.9175 -1.9617 -2.0857
14241TIP3   OH264137   0.760   2.561  16.205  0.2798  0.0358  0.1573
14241TIP3    H164138   0.719   2.498  16.265  1.0904 -0.7050 -0.0450
14241TIP3    H264139   0.687   2.614  16.173 -0.3218 -0.3116  0.9105
14242TIP3   OH264140   5.637   1.069  11.260 -0.2528 -0.2868 -0.1396
14242TIP3    H164141   5.638   1.110  11.347  0.4713  1.5343 -0.9366
14242TIP3    H264142   5.712   1.010  11.260  0.6229  0.7824  0.0390
14243TIP3   OH264143   2.319   0.699  16.175  0.0461  0.9208  0.2282
14243TIP3    H164144   2.402   0.676  16.133 -0.4009  1.3886 -0.9698
14243TIP3    H264145   2.283   0.768  16.119 -1.1742  0.6895  0.7018
14244TIP3   OH264146   1.857   5.561  11.037  0.5106  0.1862 -0.4914
14244TIP3    H164147   1.939   5.534  11.077 -0.1937 -1.4921 -0.1228
14244TIP3    H264148   1.883   5.608  10.958  1.8009 -1.0881 -0.8529
14245TIP3   OH264149   4.114   6.750  13.101 -0.0972 -0.6904 -0.0753
14245TIP3    H164150   4.201   6.788  13.108 -1.3474  2.1985  1.4623
14245TIP3    H264151   4.105   6.697  13.180 -0.2261  0.1924  0.5120
14246TIP3   OH264152   4.477   6.213   6.180 -0.4057  0.3681  0.0568
14246TIP3    H164153   4.555   6.185   6.227 -0.8183  0.9559  1.1128
14246TIP3    H264154   4.404   6.194   6.240 -0.9548  0.9846 -0.4025
14247TIP3   OH264155   5.753   6.584   4.539  0.4884 -0.0313  0.4173
14247TIP3    H164156   5.842   6.614   4.525  0.3783  0.0704 -0.0891
14247TIP3    H264157   5.719   6.566   4.452 -0.1096  0.2881  0.5743
14248TIP3   OH264158   6.509   5.242   4.298 -0.3616 -0.2290 -0.4896
14248TIP3    H164159   6.551   5.196   4.371 -0.8873 -1.6267 -1.0329
14248TIP3    H264160   6.425   5.198   4.287  0.1939 -0.8776 -2.6960
14249TIP3   OH264161   5.503   2.098   3.322 -0.4174  0.1086  0.0352
14249TIP3    H164162   5.446   2.171   3.348 -1.0418 -0.2165 -0.4012
14249TIP3    H264163   5.591   2.135   3.327 -0.7293  0.9420 -0.3043
14250TIP3   OH264164   0.712   6.701   2.418 -0.3976  0.1749  0.0102
14250TIP3    H164165   0.768   6.691   2.340  0.0565 -0.4513  0.4069
14250TIP3    H264166   0.672   6.615   2.430 -2.5033  0.9417 -1.0263
14251TIP3   OH264167   6.171   1.054  12.012 -0.3657 -0.4892  0.1352
14251TIP3    H164168   6.168   1.116  11.939 -0.5563 -1.6952 -0.9129
14251TIP3    H264169   6.086   1.064  12.054 -1.3765 -1.7118 -1.4936
14252TIP3   OH264170   6.483   1.776   5.224  0.0175  0.0784  0.0534
14252TIP3    H164171   6.510   1.868   5.234 -0.4440  0.0243  2.7236
14252TIP3    H264172   6.556   1.734   5.180  1.7650  1.1019  1.7957
14253TIP3   OH264173   1.599   5.910  16.014  0.2205  0.0301 -0.0391
14253TIP3    H164174   1.538   5.851  16.059  1.1227 -0.2467  0.8674
14253TIP3    H264175   1.554   5.995  16.015 -0.5487 -0.3625 -0.2392
14254TIP3   OH264176   4.120   6.652   0.576 -0.1908 -0.1844  0.8166
14254TIP3    H164177   4.113   6.743   0.606  0.8619  0.3392 -0.4445
14254TIP3    H264178   4.068   6.650   0.496  1.8153  0.0057 -0.5657
14255TIP3   OH264179   4.761   0.290   0.208  0.2173 -0.1959 -0.1653
14255TIP3    H164180   4.757   0.194   0.203 -0.1408 -0.1862 -0.0651
14255TIP3    H264181   4.678   0.315   0.249  0.1793  0.1769 -0.4704
14256TIP3   OH264182   0.056   5.090  16.016  0.4047  0.0615  0.2307
14256TIP3    H164183   0.145   5.115  15.990  0.2934  0.3439  0.1143
14256TIP3    H264184   0.050   5.114  16.108  1.4556 -2.7231  1.1332
14257TIP3   OH264185   4.489   3.308  15.074  0.2796 -0.0680 -0.1289
14257TIP3    H164186   4.404   3.350  15.065  0.6453  0.5861 -0.6103
14257TIP3    H264187   4.548   3.377  15.104  1.1676  0.1271 -2.1324
14258TIP3   OH264188   4.953   0.398   0.920  0.0920 -0.0667 -0.2874
14258TIP3    H164189   4.958   0.368   1.011 -0.8063 -0.0899 -0.2359
14258TIP3    H264190   4.861   0.389   0.897  0.4651 -0.9580 -1.5171
14259TIP3   OH264191   1.264   6.379  13.466  0.0932  0.0095  0.0563
14259TIP3    H164192   1.305   6.301  13.430  0.5662  0.3219 -0.0940
14259TIP3    H264193   1.323   6.451  13.442  0.6928  0.1744  1.8369
14260TIP3   OH264194   4.971   5.279   5.357 -0.2226  1.0265  0.2631
14260TIP3    H164195   4.899   5.269   5.418  0.5282 -1.2762  0.8568
14260TIP3    H264196   4.952   5.360   5.310 -2.0627  1.5802  1.8599
14261TIP3   OH264197   3.213   6.673  11.766 -0.2405  0.6172  0.2563
14261TIP3    H164198   3.293   6.724  11.752  0.5540 -0.5184  0.5635
14261TIP3    H264199   3.173   6.667  11.679 -0.4647  1.9103  0.2427
14262TIP3   OH264200   2.343   6.663   5.621  0.0716 -0.3509 -0.3757
14262TIP3    H164201   2.360   6.653   5.527  2.2890 -1.0854  0.0530
14262TIP3    H264202   2.301   6.581   5.646  2.3562 -1.5392 -0.1885
14263TIP3   OH264203   2.164   1.224  16.735 -0.0874  0.3818 -0.5486
14263TIP3    H164204   2.195   1.293  16.794  0.0300  0.3513 -0.5753
14263TIP3    H264205   2.068   1.227  16.743 -0.0329 -1.4965  1.8274
14264TIP3   OH264206   0.924   2.102  16.777 -0.3190  0.4990  0.2001
14264TIP3    H164207   0.839   2.146  16.781 -0.3470  0.3669  1.2554
14264TIP3    H264208   0.913   2.024  16.832  0.5826  0.6644  0.6249
14265TIP3   OH264209   6.101   2.128  14.478  0.6070 -0.2471  0.4812
14265TIP3    H164210   6.051   2.065  14.426 -0.1680  0.7905 -0.0672
14265TIP3    H264211   6.192   2.113  14.453  0.2510  0.2981 -1.2876
14266TIP3   OH264212   4.124   4.191   6.141 -0.2200 -0.2743  0.0961
14266TIP3    H164213   4.112   4.247   6.064  1.7084 -0.6569 -0.5485
14266TIP3    H264214   4.127   4.252   6.215  1.8093  0.5587 -0.5876
14267TIP3   OH264215   5.057   0.786  15.898 -0.1813  0.5230 -0.0943
14267TIP3    H164216   5.132   0.831  15.937  0.2558  1.7677 -2.2194
14267TIP3    H264217   5.083   0.694  15.895  0.4102  0.6348  1.0111
14268TIP3   OH264218   2.351   1.686   4.416 -0.9327  0.4788 -0.4203
14268TIP3    H164219   2.350   1.591   4.430  0.9097  0.5633  0.6718
14268TIP3    H264220   2.396   1.696   4.332 -0.4128  0.3991 -0.1559
14269TIP3   OH264221   3.106   1.801   3.187 -0.0388  0.2995 -0.2602
14269TIP3    H164222   3.047   1.876   3.190 -0.7504 -0.2807  0.7072
14269TIP3    H264223   3.049   1.725   3.181  0.6660 -0.1998 -0.9895
14270TIP3   OH264224   6.516   1.129  14.783 -0.2955 -0.2871  0.2667
14270TIP3    H164225   6.534   1.046  14.827  0.7430 -0.6462 -0.7893
14270TIP3    H264226   6.478   1.103  14.698 -1.4323  0.3643  0.5516
14271TIP3   OH264227   1.935   2.774  15.815 -0.5689  0.0229 -0.1600
14271TIP3    H164228   1.960   2.841  15.752 -2.0832  1.0494  0.2639
14271TIP3    H264229   1.847   2.748  15.788  0.0898 -2.0520 -0.4921
14272TIP3   OH264230   4.024   3.831   2.577 -0.0897  0.3806  0.1575
14272TIP3    H164231   4.050   3.844   2.485 -0.4293  2.0579  0.2607
14272TIP3    H264232   4.088   3.769   2.611 -1.0035 -1.7190 -1.6631
14273TIP3   OH264233   5.015   1.996   2.498 -0.2994 -0.5574  0.4317
14273TIP3    H164234   5.058   2.078   2.522  0.9605 -1.6045  1.9919
14273TIP3    H264235   5.041   1.935   2.567 -1.2468 -2.2613 -0.6566
14274TIP3   OH264236   4.880   6.069   4.933  0.4130 -0.6208  0.0655
14274TIP3    H164237   4.919   6.149   4.968 -1.4488 -0.1668  1.2327
14274TIP3    H264238   4.806   6.050   4.992 -0.3780 -2.0986 -1.3218
14275TIP3   OH264239   5.730   1.640  16.891 -0.2943  0.8034  0.3759
14275TIP3    H164240   5.670   1.570  16.865  1.8591 -1.0480  0.1628
14275TIP3    H264241   5.692   1.675  16.971 -0.0092 -2.5810  2.1674
14276TIP3   OH264242   0.250   2.969  15.555 -0.5264  0.7401 -0.4442
14276TIP3    H164243   0.159   2.992  15.577 -0.3372  0.3761  0.8014
14276TIP3    H264244   0.242   2.913  15.478 -1.5206 -0.6632  0.6253
14277TIP3   OH264245   5.018   1.268  15.922  0.0537 -0.3272  0.2414
14277TIP3    H164246   4.937   1.315  15.906 -0.5431 -0.5774  2.2501
14277TIP3    H264247   4.998   1.209  15.995  1.4302 -1.9874 -0.6419
14278TIP3   OH264248   0.115   3.114  14.177  0.1459  0.0370 -0.3992
14278TIP3    H164249   0.181   3.073  14.233 -0.1061  0.5830  0.3191
14278TIP3    H264250   0.141   3.091  14.088 -0.4686 -2.4376 -0.0235
14279TIP3   OH264251   3.242   3.987  13.719 -0.0698  0.1279 -0.0058
14279TIP3    H164252   3.263   4.015  13.630 -1.4215  0.4845 -0.2508
14279TIP3    H264253   3.194   4.062  13.755 -0.8845 -0.6137  0.4717
14280TIP3   OH264254   0.788   1.404   3.320  0.3198 -0.3750  0.0459
14280TIP3    H164255   0.752   1.351   3.392  1.2422 -0.0990  0.7359
14280TIP3    H264256   0.862   1.451   3.360 -0.1291  1.0090 -0.6885
14281TIP3   OH264257   6.360   1.609   4.385  0.1987 -0.0476 -0.0504
14281TIP3    H164258   6.455   1.620   4.385 -0.0948  3.5744 -0.1472
14281TIP3    H264259   6.334   1.624   4.294 -0.4307 -2.4868 -0.3388
14282TIP3   OH264260   1.711   2.420   1.054  0.2230 -0.0895 -0.2825
14282TIP3    H164261   1.656   2.497   1.045 -1.4447 -1.2945 -0.9952
14282TIP3    H264262   1.736   2.397   0.965 -0.6029 -1.2233 -0.2578
14283TIP3   OH264263   6.605   5.114  14.097 -0.5380 -0.3176 -0.6497
14283TIP3    H164264   6.568   5.162  14.023 -1.5491  1.6921  1.0499
14283TIP3    H264265   6.572   5.025  14.087 -0.3048 -0.2171 -2.7904
14284TIP3   OH264266   2.360   0.295  16.638 -0.0564 -0.4057 -0.2853
14284TIP3    H164267   2.352   0.356  16.564 -0.2103 -0.4924 -0.3429
14284TIP3    H264268   2.412   0.222  16.603 -0.4824 -0.6431 -0.4411
14285TIP3   OH264269   0.296   5.627  16.022  0.1270  0.0281 -0.4202
14285TIP3    H164270   0.345   5.710  16.024  0.8500 -0.3965  0.4467
14285TIP3    H264271   0.274   5.611  16.114 -1.0604 -0.1502 -0.7172
14286TIP3   OH264272   0.737   4.504  16.314 -0.5342 -0.1356  0.6959
14286TIP3    H164273   0.818   4.473  16.275 -0.6893 -0.8915  0.9405
14286TIP3    H264274   0.760   4.586  16.358  0.7495 -1.6466  3.0697
14287TIP3   OH264275   4.558   2.091  15.272  0.1664 -0.7115 -0.1020
14287TIP3    H164276   4.544   2.015  15.217 -0.6479 -0.8234  0.2423
14287TIP3    H264277   4.531   2.062  15.360  0.4738 -0.2287  0.1565
14288TIP3   OH264278   1.973   3.931  14.181 -0.9501 -0.0362  0.1449
14288TIP3    H164279   1.948   4.023  14.173 -0.1317  0.2630  0.9105
14288TIP3    H264280   1.893   3.887  14.210 -1.2742  0.4757  0.0426
14289TIP3   OH264281   6.634   1.660  12.320  0.2461 -0.1245 -0.1094
14289TIP3    H164282   6.647   1.685  12.229  0.2889 -2.7194 -0.8923
14289TIP3    H264283   6.540   1.648  12.328  0.1999  0.4843  0.3196
14290TIP3   OH264284   4.511   2.572   4.383  0.6713 -0.3226  0.4564
14290TIP3    H164285   4.479   2.622   4.308  0.9350  1.9000  1.7596
14290TIP3    H264286   4.464   2.488   4.377 -1.0359  0.6601 -0.8981
14291TIP3   OH264287   2.960   2.408   3.066  0.2435 -0.2769 -0.0254
14291TIP3    H164288   2.897   2.455   3.012  0.0915 -0.2938  0.1378
14291TIP3    H264289   2.907   2.361   3.130  0.3921 -0.6623 -0.1790
14292TIP3   OH264290   1.772   4.031  15.807 -0.0382  0.1551 -0.3604
14292TIP3    H164291   1.828   4.020  15.884 -0.2981 -0.4059 -0.2458
14292TIP3    H264292   1.794   4.118  15.774  0.2144  0.3277  0.2381
14293TIP3   OH264293   2.584   0.666   1.548  0.6464  0.0907 -0.0348
14293TIP3    H164294   2.531   0.728   1.497 -0.9054 -0.9013  0.3120
14293TIP3    H264295   2.672   0.704   1.548  0.3189  0.9844 -2.0047
14294TIP3   OH264296   4.700   2.396   3.211 -0.3554 -0.4649 -0.5785
14294TIP3    H164297   4.725   2.486   3.229  0.4861 -0.8931  0.5198
14294TIP3    H264298   4.744   2.345   3.279 -0.0752 -1.8017 -1.7171
14295TIP3   OH264299   2.525   3.339  14.348 -0.4225 -0.1348  0.3426
14295TIP3    H164300   2.539   3.431  14.371  0.3040 -0.2052  0.2222
14295TIP3    H264301   2.496   3.297  14.429  1.6792 -0.2964  1.0933
14296TIP3   OH264302   5.100   2.438   1.250  0.3507 -0.5533  0.2323
14296TIP3    H164303   5.065   2.350   1.238 -0.3611 -0.1253 -1.1043
14296TIP3    H264304   5.069   2.465   1.337  0.5382 -1.5888  0.6260
14297TIP3   OH264305   1.559   6.248   1.795 -0.2667  0.3053 -0.0362
14297TIP3    H164306   1.481   6.226   1.744 -0.3823 -1.0289  0.6530
14297TIP3    H264307   1.629   6.255   1.730 -1.2977  3.8294 -0.9512
14298TIP3   OH264308   2.467   2.465  12.255 -0.2669 -0.3356 -0.3690
14298TIP3    H164309   2.558   2.443  12.272 -0.2912  0.1864  0.4806
14298TIP3    H264310   2.472   2.544  12.201 -0.1953  1.1059  1.6391
14299TIP3   OH264311   3.799   1.387   4.686  0.1299 -0.2134 -0.5743
14299TIP3    H164312   3.846   1.470   4.685 -1.4837  0.7437 -0.9477
14299TIP3    H264313   3.864   1.321   4.662  1.8975  0.6629  1.5152
14300TIP3   OH264314   4.274   1.676  14.213 -0.2895 -0.3454  0.0279
14300TIP3    H164315   4.299   1.613  14.145 -2.3164 -0.3850 -0.7556
14300TIP3    H264316   4.260   1.758  14.166 -0.7422 -0.1215  0.5435
14301TIP3   OH264317   2.206   3.140   5.339  0.6297 -0.8348 -0.4305
14301TIP3    H164318   2.260   3.205   5.293  0.2744 -1.6288 -2.0624
14301TIP3    H264319   2.163   3.092   5.269 -0.1731 -1.9420  0.7819
14302TIP3   OH264320   2.311   3.423  13.584 -0.6704  0.2000 -0.8525
14302TIP3    H164321   2.320   3.480  13.660  0.3546 -0.7437 -0.2382
14302TIP3    H264322   2.241   3.463  13.532  1.2762  3.1043 -1.4677
14303TIP3   OH264323   1.613   6.663  14.842  0.3995 -0.2466 -0.7239
14303TIP3    H164324   1.536   6.716  14.862  0.6225 -0.3987  0.6396
14303TIP3    H264325   1.618   6.600  14.913  0.4232 -1.8131 -2.0662
14304TIP3   OH264326   3.462   1.248   0.560 -0.0060 -0.0759  0.4500
14304TIP3    H164327   3.437   1.201   0.640 -0.1613  0.6478  0.8385
14304TIP3    H264328   3.473   1.180   0.494 -1.6918 -0.5393  0.6151
14305TIP3   OH264329   5.070   2.995  12.064  0.5186  0.3531 -0.1986
14305TIP3    H164330   5.085   3.040  12.146  1.6322  1.0475 -0.7722
14305TIP3    H264331   5.009   2.924  12.087 -1.0521  1.9210  0.7712
14306TIP3   OH264332   1.341   0.926   4.492  0.0520 -0.0853 -0.3242
14306TIP3    H164333   1.349   0.997   4.556 -1.4174  0.3312 -0.5750
14306TIP3    H264334   1.314   0.969   4.411  1.2596 -0.6888 -1.0820
14307TIP3   OH264335   5.399   1.115   2.322 -0.2817 -0.3396 -0.6273
14307TIP3    H164336   5.314   1.125   2.280 -0.5067  0.1723 -0.0543
14307TIP3    H264337   5.422   1.023   2.308 -2.3489 -1.3414  1.8542
14308TIP3   OH264338   0.763   1.057  14.710  0.3597 -0.5050 -0.1952
14308TIP3    H164339   0.843   1.111  14.709 -0.1327  0.2504  0.0752
14308TIP3    H264340   0.697   1.113  14.670  0.0439 -1.2645 -0.7439
14309TIP3   OH264341   3.727   1.951   0.956 -0.1235 -0.3137  0.2154
14309TIP3    H164342   3.672   2.030   0.948 -1.8714 -1.1604  2.4716
14309TIP3    H264343   3.778   1.966   1.036  2.1932 -0.0418 -1.2429
14310TIP3   OH264344   0.852   4.797   4.156 -0.2551 -0.2403 -0.0135
14310TIP3    H164345   0.804   4.815   4.237 -0.5833  1.3685 -0.5408
14310TIP3    H264346   0.941   4.780   4.185  0.2441  2.8491  0.5661
14311TIP3   OH264347   6.692   4.075   5.476 -0.1159 -0.0315  0.4560
14311TIP3    H164348   6.723   4.017   5.406 -0.2385  0.1175  0.2816
14311TIP3    H264349   6.697   4.020   5.555  0.4032 -0.0736  0.3992
14312TIP3   OH264350   1.710   0.154   3.272 -0.2895  0.2543 -0.0106
14312TIP3    H164351   1.802   0.157   3.297 -0.7029  1.7290  1.4634
14312TIP3    H264352   1.704   0.212   3.196  0.5036 -2.3122 -2.2156
14313TIP3   OH264353   5.239   4.605   4.505 -0.6107 -0.0589 -0.3466
14313TIP3    H164354   5.219   4.614   4.412  0.5192 -1.0940 -0.7083
14313TIP3    H264355   5.187   4.674   4.547  0.0066  1.4280 -1.8986
14314TIP3   OH264356   3.721   5.676  13.641  0.0497 -0.0021 -0.5383
14314TIP3    H164357   3.683   5.645  13.724 -2.4240 -0.6623 -1.8023
14314TIP3    H264358   3.746   5.595  13.595 -0.6847  0.1776 -1.3000
14315TIP3   OH264359   1.009   6.683  14.091 -0.5553  0.3863 -0.4861
14315TIP3    H164360   0.935   6.687  14.030 -0.6302  1.1076 -0.3514
14315TIP3    H264361   1.074   6.744  14.054 -0.7799  1.1810  0.3858
14316TIP3   OH264362   4.995   2.153   4.250 -0.2608 -0.4793  0.1210
14316TIP3    H164363   4.991   2.059   4.232  2.1973 -0.6558  0.0666
14316TIP3    H264364   5.088   2.174   4.243 -0.6757  1.8523  0.7745
14317TIP3   OH264365   4.315   4.505   3.474  0.2561 -0.0435  0.1984
14317TIP3    H164366   4.385   4.490   3.410 -0.1384  0.1381 -0.2743
14317TIP3    H264367   4.338   4.588   3.515 -0.0298  0.3425 -0.4158
14318TIP3   OH264368   0.456   5.882   1.824 -0.1418  0.3407 -0.0843
14318TIP3    H164369   0.371   5.883   1.868 -0.7515 -1.3516 -1.1620
14318TIP3    H264370   0.440   5.919   1.738  0.3296  0.4698 -0.1220
14319TIP3   OH264371   0.489   1.216  16.645 -0.3566  0.2177  0.3262
14319TIP3    H164372   0.525   1.185  16.561  0.2082 -0.0882  0.6784
14319TIP3    H264373   0.443   1.140  16.680  1.9013 -0.6118  1.6847
14320TIP3   OH264374   3.072   4.314  16.808 -0.0530 -0.3264 -0.0155
14320TIP3    H164375   3.053   4.404  16.837 -0.5780  0.0289 -1.3810
14320TIP3    H264376   3.142   4.324  16.743 -0.7985 -0.7829 -0.9123
14321TIP3   OH264377   6.206   0.395   4.940  0.0240  0.4154 -0.1526
14321TIP3    H164378   6.216   0.478   4.893 -0.3914 -0.5165 -1.9816
14321TIP3    H264379   6.275   0.397   5.006 -0.6138  2.6362  0.5503
14322TIP3   OH264380   5.581   2.108  12.190  0.2238  0.2675  0.0703
14322TIP3    H164381   5.561   2.126  12.098  0.6545  1.0758  0.1181
14322TIP3    H264382   5.507   2.057  12.222 -1.4975  2.5811  0.0852
14323TIP3   OH264383   0.237   2.104  15.800  0.1647 -0.1727 -0.3734
14323TIP3    H164384   0.329   2.130  15.792  0.6124 -1.8070 -1.0180
14323TIP3    H264385   0.211   2.130  15.888  1.0673  0.8201 -0.3881
14324TIP3   OH264386   3.308   4.564  11.459 -0.4310 -0.3120  0.4627
14324TIP3    H164387   3.389   4.534  11.500 -0.3943  0.4112  0.9290
14324TIP3    H264388   3.317   4.539  11.367  0.5943  0.3118  0.3792
14325TIP3   OH264389   6.797   2.044  15.312 -0.3251 -0.4530 -0.0706
14325TIP3    H164390   6.865   2.097  15.270 -1.9031  0.3535 -1.7311
14325TIP3    H264391   6.781   2.088  15.396 -0.2741  0.5939 -0.5917
14326TIP3   OH264392   6.306   2.299   3.418 -0.3666 -0.0104  0.4403
14326TIP3    H164393   6.367   2.254   3.477 -0.7192  0.8395  1.4907
14326TIP3    H264394   6.265   2.229   3.368  1.7295 -0.5940 -0.5727
14327TIP3   OH264395   3.239   0.965   3.305 -0.2471  0.0792 -0.1081
14327TIP3    H164396   3.322   0.969   3.352  0.3763 -0.9937 -1.0712
14327TIP3    H264397   3.217   1.057   3.288  0.6932  0.3761  0.2373
14328TIP3   OH264398   2.711   5.800  16.712 -0.1925  0.0555 -0.0070
14328TIP3    H164399   2.742   5.711  16.693  3.6789  1.1339  0.2553
14328TIP3    H264400   2.618   5.790  16.730  0.0498 -3.9101 -0.0308
14329TIP3   OH264401   1.449   5.801   4.503  0.3226 -0.3047  0.2588
14329TIP3    H164402   1.493   5.882   4.478 -1.6026  0.1929 -1.8727
14329TIP3    H264403   1.423   5.815   4.594  0.3661  1.3375  0.0439
14330TIP3   OH264404   2.358   5.402   0.884 -0.5825  0.0153 -0.7283
14330TIP3    H164405   2.355   5.373   0.975 -0.4681 -1.7608 -1.2520
14330TIP3    H264406   2.422   5.474   0.883 -0.0578 -0.4131  0.4631
14331TIP3   OH264407   5.413   6.430   5.023  0.1113  0.1249 -0.3668
14331TIP3    H164408   5.465   6.352   5.045  0.2749  0.6920  1.3933
14331TIP3    H264409   5.431   6.492   5.093 -1.7719  0.9188 -0.5145
14332TIP3   OH264410   4.126   2.092   1.961 -0.2906  0.7455 -0.5183
14332TIP3    H164411   4.064   2.126   2.026 -0.6544  0.1641 -0.5564
14332TIP3    H264412   4.130   1.998   1.977  1.4646  0.9100  0.2212
14333TIP3   OH264413   2.608   4.869   4.189  0.1335  0.1293  0.4114
14333TIP3    H164414   2.652   4.856   4.273 -0.6404 -0.8759  0.6809
14333TIP3    H264415   2.515   4.870   4.210 -0.0407  1.2055 -0.2834
14334TIP3   OH264416   1.995   0.650   0.107  0.2325 -0.0174 -0.2583
14334TIP3    H164417   1.948   0.725   0.071 -2.5296 -1.7200 -0.4808
14334TIP3    H264418   2.007   0.591   0.033 -0.3619 -1.0656  0.4426
14335TIP3   OH264419   2.833   2.479  11.061 -0.4277 -0.2001 -0.5261
14335TIP3    H164420   2.850   2.514  11.148 -0.2615 -0.7499 -0.3309
14335TIP3    H264421   2.913   2.496  11.012  0.5222 -2.2001  0.2018
14336TIP3   OH264422   6.452   3.800  14.065 -0.8083 -0.1235 -0.4644
14336TIP3    H164423   6.536   3.816  14.023 -0.8671  0.9904 -0.2023
14336TIP3    H264424   6.396   3.765  13.995 -0.4687  0.2610 -0.9366
14337TIP3   OH264425   4.658   0.346   0.889 -0.2933 -0.1786 -0.3981
14337TIP3    H164426   4.605   0.361   0.811 -0.1318 -0.6207 -0.5968
14337TIP3    H264427   4.653   0.251   0.904 -1.1402  0.0252  0.7116
14338TIP3   OH264428   1.282   6.176   4.820  0.3268 -0.7205  0.1338
14338TIP3    H164429   1.268   6.231   4.898  1.8974 -0.9531  0.6077
14338TIP3    H264430   1.227   6.216   4.753 -3.0378 -1.9050  1.9197
14339TIP3   OH264431   2.148   5.665   6.703 -0.2734 -0.0785  0.0271
14339TIP3    H164432   2.098   5.608   6.761 -0.3612 -1.3494 -1.2469
14339TIP3    H264433   2.116   5.753   6.723 -0.3990 -0.4957  1.7634
14340TIP3   OH264434   0.290   6.674  12.670 -0.0044  0.7152  0.7761
14340TIP3    H164435   0.289   6.766  12.643 -1.0187  0.3188 -0.6907
14340TIP3    H264436   0.198   6.655  12.691 -0.1950 -0.4459 -0.8877
14341TIP3   OH264437   1.276   0.554  15.008  0.0546  0.5769  0.0468
14341TIP3    H164438   1.285   0.481  14.946  0.1298 -1.7202  2.5780
14341TIP3    H264439   1.183   0.575  15.008 -0.3900 -1.2067  0.9829
14342TIP3   OH264440   3.996   3.440   4.772  0.4122  0.3919  0.5174
14342TIP3    H164441   4.085   3.403   4.777  0.8437  1.5784  2.7500
14342TIP3    H264442   3.941   3.365   4.751  1.6907 -0.8352  1.3070
14343TIP3   OH264443   5.795   6.299  16.125  0.4090  0.5177 -0.0960
14343TIP3    H164444   5.786   6.204  16.134 -2.7464  0.7764  0.7458
14343TIP3    H264445   5.841   6.327  16.204  0.6069 -0.2173  0.0525
14344TIP3   OH264446   1.099   0.259   5.541 -0.3199 -0.3856  0.3742
14344TIP3    H164447   1.073   0.171   5.514  0.8510 -0.3072 -1.1774
14344TIP3    H264448   1.192   0.250   5.562 -0.4324  0.2838  1.1798
14345TIP3   OH264449   6.065   0.656   1.920  0.4787 -0.4952 -0.0538
14345TIP3    H164450   6.160   0.668   1.927  0.3541  0.5483  0.1282
14345TIP3    H264451   6.054   0.569   1.883  1.4990 -0.8243  0.3732
14346TIP3   OH264452   5.033   3.266  16.967  0.5959 -0.1505 -0.5405
14346TIP3    H164453   5.081   3.217  16.900  0.7034 -0.5824 -0.1479
14346TIP3    H264454   4.992   3.199  17.021 -1.5445  0.1775 -1.6333
14347TIP3   OH264455   3.761   0.622   2.039 -0.0843  0.3917 -0.6133
14347TIP3    H164456   3.668   0.601   2.041 -0.3484  1.4861 -0.8234
14347TIP3    H264457   3.767   0.703   1.987  0.8345  1.0421  0.4402
14348TIP3   OH264458   6.470   4.464  10.445 -0.0254 -0.7336 -0.1875
14348TIP3    H164459   6.384   4.500  10.426 -0.5428 -1.1637  1.2269
14348TIP3    H264460   6.504   4.518  10.516  0.8327 -0.6576 -0.6281
14349TIP3   OH264461   5.587   0.491   4.720  0.3362  0.2105 -0.6508
14349TIP3    H164462   5.583   0.406   4.677 -2.4546 -1.2622  2.1401
14349TIP3    H264463   5.496   0.517   4.732  0.9617  1.5401  2.2472
14350TIP3   OH264464   4.212   0.699   0.529 -0.4791  0.0976 -0.1073
14350TIP3    H164465   4.220   0.654   0.445  1.0879 -0.3779  0.2610
14350TIP3    H264466   4.226   0.791   0.509 -0.6738  0.0570 -0.4394
14351TIP3   OH264467   4.124   4.496   4.829  0.2189  0.2638  0.0885
14351TIP3    H164468   4.126   4.547   4.748 -0.8647 -0.3678 -0.3567
14351TIP3    H264469   4.040   4.516   4.869  0.1047 -0.5641  0.2923
14352TIP3   OH264470   3.480   0.385  16.175 -0.2089  0.5958  0.5223
14352TIP3    H164471   3.452   0.377  16.267 -0.7148 -0.7144  0.2800
14352TIP3    H264472   3.405   0.352  16.125  0.2646  0.8100 -0.3414
14353TIP3   OH264473   5.986   3.937  13.727 -0.5229  0.4778  0.1608
14353TIP3    H164474   5.984   3.841  13.733  1.4289  0.4707  1.5305
14353TIP3    H264475   5.924   3.967  13.793 -1.9377  0.1897 -0.9936
14354TIP3   OH264476   3.149   2.182   3.105  0.0256 -0.3173  0.0738
14354TIP3    H164477   3.089   2.256   3.096  0.1292  0.0917  2.1917
14354TIP3    H264478   3.108   2.125   3.170  0.9123 -1.1113 -0.0396
14355TIP3   OH264479   1.619   3.840   0.868  0.1690 -0.6040 -0.0783
14355TIP3    H164480   1.693   3.801   0.915 -0.5216 -1.3902  0.3689
14355TIP3    H264481   1.661   3.895   0.801  1.1811 -2.1907 -0.8177
14356TIP3   OH264482   0.383   3.091   5.540 -0.4460  0.2885 -0.3794
14356TIP3    H164483   0.315   3.025   5.549 -0.6396  0.3765 -1.0816
14356TIP3    H264484   0.433   3.087   5.622 -0.3766 -0.8054 -0.4587
14357TIP3   OH264485   2.673   2.510   2.905  0.1417 -0.0591 -0.4198
14357TIP3    H164486   2.668   2.430   2.852 -0.3921  0.3214 -0.9499
14357TIP3    H264487   2.597   2.561   2.879 -1.2955 -0.7245  2.1758
14358TIP3   OH264488   4.427   0.782  11.475  0.2269 -0.2073  0.3998
14358TIP3    H164489   4.475   0.759  11.554  0.3320 -1.7224 -0.0651
14358TIP3    H264490   4.442   0.876  11.464 -0.9267  0.3503  2.9042
14359TIP3   OH264491   6.412   2.853   3.725  0.3052  0.1105 -0.3798
14359TIP3    H164492   6.332   2.848   3.674 -0.2871 -1.2578  0.6257
14359TIP3    H264493   6.409   2.940   3.766 -2.3797 -1.0486  2.2575
14360TIP3   OH264494   0.234   3.387   5.299 -0.0517  0.2567 -0.2846
14360TIP3    H164495   0.158   3.339   5.267 -1.6922  1.4347  1.6133
14360TIP3    H264496   0.288   3.401   5.221 -1.9938 -0.2215 -1.7929
14361TIP3   OH264497   5.940   2.851   0.759  0.6291 -0.0407  0.3621
14361TIP3    H164498   5.889   2.787   0.709 -0.0839  1.0200 -0.3256
14361TIP3    H264499   5.896   2.935   0.741  0.2185  0.3753  2.9538
14362TIP3   OH264500   2.924   4.656   3.065  0.2426 -0.2457  0.1097
14362TIP3    H164501   2.899   4.739   3.106 -0.4025  0.1478 -1.0482
14362TIP3    H264502   2.985   4.681   2.995 -1.2988 -0.5386 -1.3921
14363TIP3   OH264503   2.294   1.708  12.892  0.2395  0.0241  0.1626
14363TIP3    H164504   2.248   1.715  12.976  1.8468 -0.8879  1.1751
14363TIP3    H264505   2.326   1.617  12.889  0.1686  0.0219 -1.4693
14364TIP3   OH264506   6.087   0.078  12.785 -0.4153 -0.5166  0.0263
14364TIP3    H164507   6.063   0.050  12.873 -1.4190 -0.6665 -0.2896
14364TIP3    H264508   6.068   0.172  12.783  0.9208 -0.2093  0.3945
14365TIP3   OH264509   3.545   3.245  16.192 -1.1535 -0.4377  0.9476
14365TIP3    H164510   3.593   3.182  16.246  0.3365  0.1623  0.3684
14365TIP3    H264511   3.597   3.325  16.197 -1.7499  0.0455 -0.2513
14366TIP3   OH264512   0.359   6.313  13.247 -0.0814  1.0896 -0.1087
14366TIP3    H164513   0.364   6.225  13.283  3.4309  1.0115 -0.4457
14366TIP3    H264514   0.386   6.304  13.155  0.3408  2.4851 -0.1551
14367TIP3   OH264515   2.714   4.825  12.665  0.1062  0.3409  0.3447
14367TIP3    H164516   2.733   4.914  12.694 -2.3111  0.2610  2.6099
14367TIP3    H264517   2.760   4.769  12.728  2.7730 -0.1745 -1.8761
14368TIP3   OH264518   5.906   1.351   3.486  0.7162 -0.2569 -0.1830
14368TIP3    H164519   5.951   1.426   3.448 -0.6705  1.4691  1.3752
14368TIP3    H264520   5.963   1.322   3.557  0.6992  0.1216 -0.0111
14369TIP3   OH264521   2.865   1.242  16.494 -0.2940  0.3757 -0.1382
14369TIP3    H164522   2.899   1.189  16.566  0.7614 -0.8802 -1.4990
14369TIP3    H264523   2.942   1.288  16.459 -0.4885 -0.2029 -1.3880
14370TIP3   OH264524   0.779   5.365   3.504 -0.1643  0.4212 -0.0151
14370TIP3    H164525   0.738   5.428   3.563 -4.2390 -1.4354 -0.5357
14370TIP3    H264526   0.779   5.282   3.552  0.6158 -0.2254 -1.0592
14371TIP3   OH264527   1.083   0.260   3.864 -0.5324 -0.0424  0.2528
14371TIP3    H164528   1.083   0.298   3.951 -0.3235  0.3505  0.0831
14371TIP3    H264529   1.174   0.265   3.835 -0.7794  0.8396 -0.4200
14372TIP3   OH264530   4.453   1.915   2.852  0.4640 -0.2821  0.1115
14372TIP3    H164531   4.489   1.857   2.920  0.6353 -0.7903 -0.4049
14372TIP3    H264532   4.482   2.003   2.878 -3.9806  0.4954  3.8088
14373TIP3   OH264533   2.014   0.411   0.968  0.4818 -0.2835  0.1879
14373TIP3    H164534   2.043   0.323   0.990 -1.5363 -0.9236  0.4326
14373TIP3    H264535   1.939   0.427   1.025  0.3713  1.3198 -0.3587
14374TIP3   OH264536   6.642   3.944   4.881 -0.2626  0.0346  0.6689
14374TIP3    H164537   6.719   3.976   4.834 -0.4615  0.3649  0.5647
14374TIP3    H264538   6.651   3.849   4.880 -0.6334 -0.0112 -0.6973
14375TIP3   OH264539   1.511   6.441  12.694 -0.0175  0.2158 -0.0030
14375TIP3    H164540   1.441   6.405  12.749 -0.2480  0.0663 -0.3957
14375TIP3    H264541   1.512   6.385  12.616 -0.5500  1.1984 -0.7380
14376TIP3   OH264542   6.182   1.803  13.086  0.7516  0.4960 -0.0676
14376TIP3    H164543   6.105   1.832  13.136 -0.6073 -2.0403 -0.5143
14376TIP3    H264544   6.197   1.873  13.022 -1.9362  0.6073 -0.7102
14377TIP3   OH264545   0.260   1.186  14.912  0.2611  0.3052 -0.8145
14377TIP3    H164546   0.330   1.136  14.869  0.6647  0.6027 -0.5156
14377TIP3    H264547   0.199   1.207  14.841  0.0042 -0.7268 -0.9155
14378TIP3   OH264548   6.409   2.590  16.751  0.7172 -0.8572 -0.3431
14378TIP3    H164549   6.330   2.562  16.798 -1.6422  1.3961 -2.5630
14378TIP3    H264550   6.413   2.532  16.675  0.3204 -0.1233 -0.9436
14379TIP3   OH264551   5.724   0.607  11.816  0.0374  0.3447  0.0367
14379TIP3    H164552   5.730   0.647  11.903  0.6878 -1.8364  1.0769
14379TIP3    H264553   5.736   0.680  11.755  1.4873  1.6637  1.7839
14380TIP3   OH264554   5.183   0.037   0.428 -0.9030  0.2161 -0.3182
14380TIP3    H164555   5.098   0.071   0.456  0.0179  1.8114  0.6575
14380TIP3    H264556   5.240   0.114   0.425  0.7315 -0.9426 -0.1464
14381TIP3   OH264557   5.136   6.306   1.029  0.1238 -0.2375 -0.9672
14381TIP3    H164558   5.189   6.231   1.057  0.1915  0.6139  1.3945
14381TIP3    H264559   5.189   6.350   0.964  1.9948  0.0801  0.6853
14382TIP3   OH264560   0.638   4.237   0.582  0.3182  0.2659  0.8372
14382TIP3    H164561   0.695   4.171   0.543 -0.8751 -0.9882  1.1270
14382TIP3    H264562   0.566   4.247   0.520 -0.2702  0.1764  1.4937
14383TIP3   OH264563   1.592   2.088   1.570 -0.3759  0.4895 -1.3785
14383TIP3    H164564   1.606   2.129   1.655 -1.0339  0.4418 -1.2403
14383TIP3    H264565   1.625   2.151   1.506  1.0462  0.1044 -1.0514
14384TIP3   OH264566   6.552   2.744   1.249 -0.2375  0.4340  0.4795
14384TIP3    H164567   6.631   2.690   1.243 -1.3251 -1.1515 -0.1047
14384TIP3    H264568   6.559   2.806   1.176 -0.1178 -0.5054 -0.3122
14385TIP3   OH264569   5.114   3.668   4.607  0.2955 -0.3797  1.0060
14385TIP3    H164570   5.074   3.591   4.568 -0.2874  0.9370 -1.1199
14385TIP3    H264571   5.047   3.701   4.668 -0.9146  0.3630 -0.6476
14386TIP3   OH264572   5.388   2.676  15.453 -0.4306 -0.0261  0.0549
14386TIP3    H164573   5.381   2.772  15.450  1.6106  0.1879  0.7088
14386TIP3    H264574   5.463   2.655  15.398 -0.8044 -1.2521 -0.0144
14387TIP3   OH264575   4.110   0.081   0.729  0.5932  0.2822  0.5515
14387TIP3    H164576   4.100   0.063   0.823  0.3806  0.0885  0.4911
14387TIP3    H264577   4.021   0.080   0.695  0.4308  2.5499  0.7360
14388TIP3   OH264578   2.273   4.416   0.944  0.4832  0.2984  0.0004
14388TIP3    H164579   2.351   4.360   0.950  0.0817 -0.1971  0.9030
14388TIP3    H264580   2.303   4.495   0.899  1.2291 -0.3582 -0.6893
14389TIP3   OH264581   5.987   3.784   5.232  0.5247  0.0380 -1.1224
14389TIP3    H164582   6.057   3.800   5.169  0.1396 -1.9977 -2.1747
14389TIP3    H264583   5.973   3.868   5.274  1.3504  1.3178 -3.2164
14390TIP3   OH264584   6.674   5.968   3.441 -0.5963 -0.4014  0.0318
14390TIP3    H164585   6.603   5.977   3.377 -0.6883 -1.6933 -0.0821
14390TIP3    H264586   6.748   5.936   3.389 -0.1270  0.2845  0.2706
14391TIP3   OH264587   5.308   4.178   3.531  0.0652 -0.5655 -0.5356
14391TIP3    H164588   5.293   4.092   3.493 -0.0576  0.5142 -3.1261
14391TIP3    H264589   5.266   4.174   3.617 -1.9602 -2.3628 -1.5094
14392TIP3   OH264590   2.571   6.021  15.364 -0.0958  0.1854  0.1460
14392TIP3    H164591   2.562   6.116  15.354 -0.0103  0.1729 -0.0549
14392TIP3    H264592   2.484   5.991  15.391 -0.4909  0.1504 -1.1203
14393TIP3   OH264593   5.031   2.109   6.427 -0.2466  0.3353 -0.3844
14393TIP3    H164594   5.029   2.192   6.477  0.2327  0.8592 -1.2139
14393TIP3    H264595   5.094   2.055   6.474 -1.3297  0.0166  0.7788
14394TIP3   OH264596   3.795   1.318  13.999  0.2034  0.1974 -0.0067
14394TIP3    H164597   3.738   1.241  13.997  1.7031 -1.0150  1.4102
14394TIP3    H264598   3.839   1.317  13.914  1.3783 -1.4693  0.5845
14395TIP3   OH264599   1.025   4.663  10.841  0.6406  0.0112  0.2420
14395TIP3    H164600   1.103   4.673  10.786  0.8273 -1.7844  0.1236
14395TIP3    H264601   0.976   4.591  10.801 -0.2835  0.0730  1.2179
14396TIP3   OH264602   5.714   6.605   5.138 -0.6669 -0.6599 -0.5139
14396TIP3    H164603   5.760   6.615   5.054 -2.3827  0.9206 -1.3530
14396TIP3    H264604   5.634   6.658   5.127 -1.2893 -1.0152  1.8706
14397TIP3   OH264605   2.520   5.593   2.010 -0.0788 -0.7615 -0.1924
14397TIP3    H164606   2.582   5.589   2.083  1.1575 -3.0951 -1.2779
14397TIP3    H264607   2.495   5.685   2.005  2.3278  0.0307  1.0816
14398TIP3   OH264608   2.709   4.154  15.701 -0.0029 -0.4614  0.1190
14398TIP3    H164609   2.660   4.208  15.639  1.4302  0.1377 -0.5319
14398TIP3    H264610   2.679   4.183  15.787 -0.6688 -0.0047 -0.2587
14399TIP3   OH264611   2.540   6.790   4.622 -0.6685  0.7339  0.0016
14399TIP3    H164612   2.558   6.717   4.563  1.2036  0.8045  0.4066
14399TIP3    H264613   2.562   6.868   4.570  0.9026  0.7994  0.6977
14400TIP3   OH264614   1.856   5.214   0.628  0.8351 -0.6126  0.4220
14400TIP3    H164615   1.870   5.231   0.721 -0.3392 -0.6508  0.6144
14400TIP3    H264616   1.785   5.149   0.626  0.4506 -0.1764 -0.5132
14401TIP3   OH264617   0.961   2.238  14.751  0.3279  0.4005 -0.4366
14401TIP3    H164618   0.916   2.246  14.835  0.3759 -1.0834 -0.2533
14401TIP3    H264619   1.026   2.168  14.764 -0.8697 -1.1366 -2.1953
14402TIP3   OH264620   6.022   4.972   4.961  0.4633  0.3612 -0.0417
14402TIP3    H164621   5.995   5.021   5.038 -0.9284 -0.7885  0.2460
14402TIP3    H264622   6.026   4.881   4.990 -0.6190 -0.1680 -1.4262
14403TIP3   OH264623   2.943   4.173  14.520 -0.6934 -0.1411 -0.2821
14403TIP3    H164624   2.974   4.084  14.502 -1.9278 -0.4812 -0.8576
14403TIP3    H264625   2.848   4.168  14.508 -0.6919  1.4980 -1.3821
14404TIP3   OH264626   2.400   2.148  14.552  0.6761 -0.4440 -0.0764
14404TIP3    H164627   2.360   2.064  14.531  0.8204 -0.4671 -0.2683
14404TIP3    H264628   2.494   2.133  14.541  0.7199 -0.3273  0.1360
14405TIP3   OH264629   2.379   6.205  16.310 -0.6464 -0.4308 -0.6220
14405TIP3    H164630   2.423   6.125  16.336 -0.6717 -0.2168  0.1050
14405TIP3    H264631   2.286   6.181  16.307 -0.7486 -0.2266  0.4416
14406TIP3   OH264632   3.946   0.729   1.024 -0.3648  0.4908 -0.5041
14406TIP3    H164633   3.913   0.698   0.940 -0.1157  2.4716 -1.4097
14406TIP3    H264634   4.038   0.703   1.024 -0.4111  0.3230 -0.7866
14407TIP3   OH264635   0.279   4.186   2.904  0.1800 -0.2727 -0.2106
14407TIP3    H164636   0.291   4.187   2.999  0.0037 -0.3124 -0.1878
14407TIP3    H264637   0.367   4.198   2.869  0.3235 -0.7979 -0.0417
14408TIP3   OH264638   2.188   2.225  13.904 -0.0373 -0.5835  0.1415
14408TIP3    H164639   2.117   2.202  13.965 -0.0858 -1.6757 -0.3093
14408TIP3    H264640   2.253   2.269  13.959 -0.1170 -1.4840  0.9903
14409TIP3   OH264641   2.440   6.664  12.028  0.3626  0.3077 -0.1981
14409TIP3    H164642   2.399   6.578  12.023 -0.0471  0.5522 -3.4616
14409TIP3    H264643   2.532   6.649  12.007 -0.0815  0.7835 -2.7816
14410TIP3   OH264644   3.983   1.278  13.754  0.0846 -0.1727  0.2378
14410TIP3    H164645   3.922   1.277  13.679 -1.7830 -3.0409  1.6418
14410TIP3    H264646   4.045   1.208  13.735  0.1388 -0.3236  0.9702
14411TIP3   OH264647   4.061   2.837  13.024  0.2481  0.2828  0.9398
14411TIP3    H164648   4.145   2.819  12.982  0.1554 -1.4551  1.4299
14411TIP3    H264649   4.034   2.753  13.060 -2.0677  0.6385  0.1624
14412TIP3   OH264650   6.681   4.966  13.592  0.4051  0.2846 -0.6455
14412TIP3    H164651   6.640   4.919  13.519 -0.5017  0.7312 -0.4300
14412TIP3    H264652   6.623   4.951  13.666  0.5916  0.9819 -0.3509
14413TIP3   OH264653   3.109   2.390   4.022 -0.0402  0.3204  0.2582
14413TIP3    H164654   3.176   2.438   4.070  1.8987 -0.6216 -1.4030
14413TIP3    H264655   3.044   2.456   4.000  0.4436  1.3159  1.6444
14414TIP3   OH264656   4.078   5.567   6.039  0.0669  0.1498 -0.2014
14414TIP3    H164657   3.984   5.585   6.030  0.4004  1.5216 -1.3493
14414TIP3    H264658   4.085   5.514   6.118 -1.3999  2.3634  1.5336
14415TIP3   OH264659   4.073   6.791   1.412 -0.4466  0.0813 -0.5325
14415TIP3    H164660   4.126   6.763   1.338 -0.5698  0.5047 -0.7828
14415TIP3    H264661   4.061   6.711   1.464  0.7151  0.0365 -0.2932
14416TIP3   OH264662   2.927   2.947  15.057  0.0250 -0.1736 -0.3681
14416TIP3    H164663   2.962   2.996  14.983  0.6146 -0.0158  0.0127
14416TIP3    H264664   2.873   3.010  15.105  0.5669  0.0400 -0.0285
14417TIP3   OH264665   2.002   5.696   6.031  0.1655  0.1044 -0.3645
14417TIP3    H164666   1.970   5.705   6.121 -1.7377 -0.4908 -0.9200
14417TIP3    H264667   2.028   5.604   6.024 -3.5388 -1.0441 -1.4516
14418TIP3   OH264668   6.315   2.252  12.165  0.2505 -0.0458 -0.3307
14418TIP3    H164669   6.385   2.257  12.229  0.2035  2.8739 -0.3648
14418TIP3    H264670   6.358   2.265  12.080 -0.1776  0.8543 -0.4291
14419TIP3   OH264671   0.809   3.266  12.365 -0.0557 -0.2337 -0.1601
14419TIP3    H164672   0.881   3.216  12.403  0.5193  0.9510  0.3674
14419TIP3    H264673   0.820   3.354  12.400 -0.8235  0.3600 -1.3369
14420TIP3   OH264674   6.811   5.712   4.907  0.6580 -0.1249 -0.1913
14420TIP3    H164675   6.901   5.701   4.877  0.6223 -0.8362 -0.0537
14420TIP3    H264676   6.789   5.629   4.949 -0.7188 -0.6955 -1.9207
14421TIP3   OH264677   3.670   4.570   1.863 -0.1342 -0.3790  0.1752
14421TIP3    H164678   3.637   4.660   1.864  0.1518 -0.2755  0.7261
14421TIP3    H264679   3.603   4.521   1.814  0.3411  0.3495 -1.2477
14422TIP3   OH264680   3.245   5.865   5.726  0.6829 -0.2672  0.2434
14422TIP3    H164681   3.162   5.914   5.729 -0.8702 -2.7595  0.7628
14422TIP3    H264682   3.254   5.839   5.635  0.9950  0.1667  0.1503
14423TIP3   OH264683   1.559   1.826   3.386  0.4829  0.0215  0.1983
14423TIP3    H164684   1.582   1.918   3.400 -1.1241  0.3670  0.7947
14423TIP3    H264685   1.463   1.824   3.393  0.4088 -1.5398 -0.7716
14424TIP3   OH264686   2.128   3.443  16.880  0.3603  0.1631  0.3489
14424TIP3    H164687   2.064   3.450  16.809  1.1837  0.0589 -0.4224
14424TIP3    H264688   2.078   3.408  16.954 -0.8607  1.6818  0.3045
14425TIP3   OH264689   5.969   4.863  11.972 -0.2711  0.2194  0.1073
14425TIP3    H164690   5.906   4.896  11.909 -0.0026 -1.0611 -0.8778
14425TIP3    H264691   6.022   4.939  11.996 -1.1972  0.9750 -0.2213
14426TIP3   OH264692   2.045   4.209  11.662 -0.3931  0.2210  0.5020
14426TIP3    H164693   2.083   4.282  11.711  0.3366 -0.2548  0.6651
14426TIP3    H264694   2.036   4.139  11.727 -1.1548  0.1853  0.3643
14427TIP3   OH264695   5.684   6.188   4.087 -0.3249  0.4259 -0.2460
14427TIP3    H164696   5.767   6.214   4.126 -0.8839  0.9598  0.6191
14427TIP3    H264697   5.687   6.092   4.086  0.1621  0.4369  0.0663
14428TIP3   OH264698   6.567   5.694  13.456  0.5365 -0.2425  0.0266
14428TIP3    H164699   6.581   5.706  13.362  1.3172  0.0010  0.1643
14428TIP3    H264700   6.628   5.755  13.498  2.4771 -2.4818  0.7207
14429TIP3   OH264701   1.504   6.150   2.036 -0.2620  0.5650 -0.0066
14429TIP3    H164702   1.541   6.206   1.968  0.7563  0.4771  0.4599
14429TIP3    H264703   1.412   6.177   2.042 -0.2141  0.9834 -0.9861
14430TIP3   OH264704   3.068   6.495  13.703  0.2136  0.0921  0.6896
14430TIP3    H164705   3.108   6.427  13.648 -1.1571  0.3599 -0.6993
14430TIP3    H264706   3.109   6.576  13.673 -0.8132  0.2858 -0.2690
14431TIP3   OH264707   4.336   4.200   3.809 -0.2217  0.6261 -0.1043
14431TIP3    H164708   4.368   4.223   3.896 -0.6581  0.7321  0.0304
14431TIP3    H264709   4.413   4.205   3.753  0.2037 -0.1179  0.3998
14432TIP3   OH264710   6.653   1.985  16.495  0.0483 -0.2529 -0.0628
14432TIP3    H164711   6.559   2.002  16.494 -0.0421 -0.6035  0.9228
14432TIP3    H264712   6.689   2.041  16.426 -0.8377  0.1275 -0.2260
14433TIP3   OH264713   4.034   5.027  13.672 -0.4428  0.3214 -0.3357
14433TIP3    H164714   4.065   5.000  13.586 -1.8177 -2.4464 -0.0813
14433TIP3    H264715   4.094   4.985  13.734 -0.5441  0.7580  0.0622
14434TIP3   OH264716   5.705   6.702  16.313 -0.5480 -0.4749 -0.3126
14434TIP3    H164717   5.643   6.663  16.375 -2.1317  0.2310 -1.3854
14434TIP3    H264718   5.782   6.646  16.319 -1.5728 -1.8949  0.4907
14435TIP3   OH264719   3.542   0.150   3.693  0.2366  0.1028  0.1468
14435TIP3    H164720   3.587   0.150   3.777  0.8030 -3.7490  0.0166
14435TIP3    H264721   3.458   0.107   3.711  0.4918 -1.0603 -1.2811
14436TIP3   OH264722   4.461   2.295   3.162 -0.0327 -0.0261  0.1050
14436TIP3    H164723   4.401   2.302   3.237 -0.6846  0.1505 -0.4238
14436TIP3    H264724   4.543   2.332   3.194 -0.1367 -0.4781  0.9110
14437TIP3   OH264725   3.763   4.048  16.783 -0.1290  0.5851 -0.4063
14437TIP3    H164726   3.766   3.994  16.863 -0.5808 -0.0026 -0.7755
14437TIP3    H264727   3.720   4.129  16.810  0.4617  0.7272  0.1321
14438TIP3   OH264728   5.948   2.340   2.058 -0.1857 -0.1916 -0.2524
14438TIP3    H164729   5.852   2.340   2.051 -0.5319  1.6552  2.8182
14438TIP3    H264730   5.971   2.248   2.064 -1.9120 -0.6484  0.1165
14439TIP3   OH264731   1.984   5.415  13.992 -0.2319  0.9744  0.3319
14439TIP3    H164732   1.927   5.429  13.916 -0.1489 -0.4137 -0.0151
14439TIP3    H264733   2.002   5.503  14.025  0.7104  1.7259 -1.9798
14440TIP3   OH264734   4.167   2.384  14.054  0.3787  0.2473 -0.2886
14440TIP3    H164735   4.196   2.433  14.131 -0.1065  0.5711 -0.3122
14440TIP3    H264736   4.072   2.396  14.051  0.1485 -1.3209  0.1286
14441TIP3   OH264737   5.028   1.468   4.884 -0.7090  0.5966  0.0516
14441TIP3    H164738   5.071   1.542   4.926  1.9279 -0.8047  0.0021
14441TIP3    H264739   5.003   1.500   4.798  0.9350  1.2663 -0.1969
14442TIP3   OH264740   6.242   3.998  13.618  0.3009 -0.3575  0.3140
14442TIP3    H164741   6.253   3.932  13.549 -0.8090 -0.0956 -0.1359
14442TIP3    H264742   6.160   3.974  13.661  0.0241  0.5677  0.3214
14443TIP3   OH264743   2.324   2.466   4.759 -0.0138 -0.6566 -0.3378
14443TIP3    H164744   2.359   2.494   4.674 -0.9155  2.6542  0.2261
14443TIP3    H264745   2.230   2.454   4.743 -0.4726  1.4690  0.3933
14444TIP3   OH264746   2.826   5.450   2.047  0.2958 -0.1917  0.0797
14444TIP3    H164747   2.891   5.477   2.112  0.4860 -0.6893  0.1009
14444TIP3    H264748   2.742   5.464   2.091  0.2005  2.8795 -0.8226
14445TIP3   OH264749   2.914   2.690  15.477  0.1893 -0.3350 -0.5463
14445TIP3    H164750   2.910   2.784  15.495  1.6572 -0.4098  0.4083
14445TIP3    H264751   2.953   2.684  15.390 -1.1537 -0.0483 -1.1763
14446TIP3   OH264752   3.498   0.072   0.562  0.0741  0.2120  0.0574
14446TIP3    H164753   3.588   0.094   0.539 -0.2415  1.6259  0.0847
14446TIP3    H264754   3.463   0.030   0.484  0.3389  0.9512 -0.4684
14447TIP3   OH264755   0.620   1.958   0.017  0.4956 -0.6194 -0.4181
14447TIP3    H164756   0.688   1.910   0.063  1.8802  1.6143  0.0163
14447TIP3    H264757   0.667   2.027  -0.031 -1.5157  2.9813  2.2616
14448TIP3   OH264758   6.807   5.572  11.757  0.9165  0.7481 -0.4766
14448TIP3    H164759   6.884   5.548  11.809 -0.0815 -1.5302  0.0864
14448TIP3    H264760   6.814   5.517  11.679 -0.4954 -0.0402 -0.0725
14449TIP3   OH264761   4.079   3.593   0.905  0.2746  0.4344  0.3792
14449TIP3    H164762   4.169   3.590   0.938 -0.2055 -1.7916  1.6903
14449TIP3    H264763   4.087   3.563   0.814  0.9068  0.8879  0.2736
14450TIP3   OH264764   1.259   4.442  15.920 -0.2897 -0.3526  0.3411
14450TIP3    H164765   1.170   4.461  15.949 -0.8609 -0.5826 -1.2026
14450TIP3    H264766   1.310   4.440  16.001 -1.6236  0.0572  1.2263
14451TIP3   OH264767   6.110   4.954  12.575  0.5483 -0.3076  0.3782
14451TIP3    H164768   6.105   5.006  12.655  1.0367  0.4352 -0.0614
14451TIP3    H264769   6.173   4.885  12.595  1.0201  0.1499  0.4905
14452TIP3   OH264770   1.813   0.880   2.635  0.0367  0.1147  0.2156
14452TIP3    H164771   1.878   0.834   2.688 -0.8604 -0.2894  0.9924
14452TIP3    H264772   1.828   0.973   2.653  1.2017  0.1011 -0.5820
14453TIP3   OH264773   5.336   2.854   6.646  0.6348  0.0434  0.6684
14453TIP3    H164774   5.253   2.810   6.667  1.1411 -1.6743 -0.6224
14453TIP3    H264775   5.356   2.907   6.723 -1.1618 -0.2643  1.3998
14454TIP3   OH264776   3.776   1.955   2.673 -0.4805  0.3336  0.3518
14454TIP3    H164777   3.828   1.923   2.600 -1.0506 -1.4942  0.7080
14454TIP3    H264778   3.837   1.961   2.746 -0.6539 -1.5863  0.7091
14455TIP3   OH264779   6.597   4.163  10.967 -0.3946  0.2852  0.5133
14455TIP3    H164780   6.623   4.162  10.875  1.4122 -0.9630  0.9698
14455TIP3    H264781   6.509   4.124  10.968  0.3088 -1.4397 -0.5422
14456TIP3   OH264782   5.001   0.874  13.443 -0.3886  0.2835 -0.7451
14456TIP3    H164783   5.018   0.923  13.363  2.9436  0.1354 -0.2560
14456TIP3    H264784   4.938   0.928  13.492 -0.4523  1.6620 -2.2880
14457TIP3   OH264785   3.651   1.468   0.739 -0.0548  0.2215  0.1513
14457TIP3    H164786   3.567   1.467   0.693 -1.2229 -0.4718  2.1505
14457TIP3    H264787   3.635   1.521   0.818  0.8264 -1.3569  1.4611
14458TIP3   OH264788   5.839   2.085  15.864 -0.3453 -0.3206  0.6780
14458TIP3    H164789   5.889   2.124  15.936  0.4997 -2.0507  1.0699
14458TIP3    H264790   5.859   2.140  15.788 -0.1991  0.7421  1.4711
14459TIP3   OH264791   6.792   2.725   0.454  0.2321  0.2799  0.4609
14459TIP3    H164792   6.727   2.739   0.385  2.4237 -0.3964 -1.9078
14459TIP3    H264793   6.829   2.812   0.471  0.6401  0.2546 -0.2650
14460TIP3   OH264794   3.822   2.705  12.570  0.1303 -0.5815  0.6530
14460TIP3    H164795   3.777   2.663  12.643 -2.9044  0.5035 -0.4378
14460TIP3    H264796   3.787   2.662  12.492  2.3497 -0.8375 -0.2895
14461TIP3   OH264797   2.425   4.448   2.953 -0.2238  0.5731  0.2376
14461TIP3    H164798   2.490   4.502   2.909  1.9905  0.6811  3.3187
14461TIP3    H264799   2.354   4.509   2.974 -0.4912  0.8938 -1.4204
14462TIP3   OH264800   2.445   0.814  15.921  0.3646 -0.4299  0.2662
14462TIP3    H164801   2.469   0.880  15.857  0.4543 -0.1907  0.5467
14462TIP3    H264802   2.414   0.740  15.868  0.7711 -0.3693 -0.0656
14463TIP3   OH264803   6.310   1.324   5.209 -0.1505  0.5230  1.1642
14463TIP3    H164804   6.403   1.342   5.191 -0.2899 -0.5383 -0.8950
14463TIP3    H264805   6.266   1.405   5.184 -0.2269 -0.5607 -2.9980
14464TIP3   OH264806   0.516   2.237   1.819  0.3216  0.6772 -0.4071
14464TIP3    H164807   0.571   2.163   1.793  0.8673  1.1799 -0.7015
14464TIP3    H264808   0.521   2.239   1.914  0.1579  0.2246 -0.3877
14465TIP3   OH264809   6.092   3.517  17.088  0.0584 -0.1418  0.4793
14465TIP3    H164810   6.037   3.559  17.154  0.1274  1.1573 -0.2644
14465TIP3    H264811   6.163   3.478  17.138  0.6523  1.6718  1.1218
14466TIP3   OH264812   0.232   4.420  16.821 -0.4160  0.2152  0.5473
14466TIP3    H164813   0.250   4.394  16.912 -1.4835 -0.9203  0.4676
14466TIP3    H264814   0.152   4.473  16.827 -1.2417 -0.9444  0.1662
14467TIP3   OH264815   3.433   3.829  10.907  0.2340 -0.0355 -0.8064
14467TIP3    H164816   3.370   3.780  10.960  0.9713 -2.7238 -2.2224
14467TIP3    H264817   3.514   3.779  10.914  1.4121  1.7141 -1.3799
14468TIP3   OH264818   1.189   4.056  12.811  0.1695  0.4368  0.3696
14468TIP3    H164819   1.219   4.014  12.730 -1.7645 -2.5128  1.0365
14468TIP3    H264820   1.260   4.117  12.833  1.4333  0.3111 -2.7173
14469TIP3   OH264821   5.457   0.933  14.741  0.4317  0.7658 -0.4391
14469TIP3    H164822   5.431   0.842  14.728  0.7468  0.8292 -1.6576
14469TIP3    H264823   5.551   0.928  14.760  0.5953  0.8623 -1.1736
14470TIP3   OH264824   6.474   2.358   4.817  0.0160  0.3236  0.4152
14470TIP3    H164825   6.416   2.348   4.742 -2.9467 -2.0339  2.7373
14470TIP3    H264826   6.453   2.445   4.851 -2.2439 -0.4284  1.1253
14471TIP3   OH264827   4.481   4.561   4.026 -0.1165  0.3573  0.6222
14471TIP3    H164828   4.571   4.552   3.992  0.2886 -0.9434  1.9665
14471TIP3    H264829   4.428   4.574   3.947  1.1748  0.6948 -0.2417
14472TIP3   OH264830   0.671   1.650   6.229  0.0530 -0.1664 -0.4306
14472TIP3    H164831   0.751   1.673   6.276 -0.7612 -0.5562  1.2113
14472TIP3    H264832   0.675   1.555   6.220 -0.6126 -0.2954  0.4586
14473TIP3   OH264833   4.008   4.083   1.535  0.2157 -0.0387  0.1831
14473TIP3    H164834   4.080   4.131   1.576  2.3505 -2.6321 -0.2710
14473TIP3    H264835   4.011   3.997   1.576  0.2350 -1.6360 -2.9376
14474TIP3   OH264836   1.656   5.711  12.207  0.6542 -0.1016  0.2962
14474TIP3    H164837   1.659   5.631  12.259  0.9578 -0.2786  0.0091
14474TIP3    H264838   1.743   5.750  12.218  0.9592 -0.5029 -0.6408
14475TIP3   OH264839   4.271   0.212  15.038  0.2952  0.3617  0.3218
14475TIP3    H164840   4.264   0.142  14.973  0.7554  0.2965  0.3416
14475TIP3    H264841   4.250   0.169  15.121 -1.5038  0.7059  0.0816
14476TIP3   OH264842   1.787   5.433  13.787 -0.2836 -0.1845  0.7344
14476TIP3    H164843   1.826   5.496  13.726  0.3008 -0.5201  0.7462
14476TIP3    H264844   1.722   5.483  13.836 -0.4020  0.2084  0.1846
14477TIP3   OH264845   6.118   0.350   6.433 -0.0161  0.5318 -0.1570
14477TIP3    H164846   6.107   0.255   6.428  1.2188  0.1643  2.4484
14477TIP3    H264847   6.049   0.385   6.375 -0.7024 -1.8993 -0.9474
14478TIP3   OH264848   0.797   2.683   0.706  0.3426 -0.2407 -0.3343
14478TIP3    H164849   0.717   2.631   0.710 -0.3832  0.9331  1.2990
14478TIP3    H264850   0.770   2.772   0.729  2.4421 -0.2676  2.8657
14479TIP3   OH264851   5.561   3.586   4.855  0.0613 -0.1322  0.2908
14479TIP3    H164852   5.645   3.622   4.883 -0.3240  0.3556  0.8562
14479TIP3    H264853   5.516   3.565   4.937 -0.5326  0.0078  0.0047
14480TIP3   OH264854   5.755   4.256   2.867  0.1230 -0.3034 -0.2272
14480TIP3    H164855   5.660   4.253   2.861  0.2158 -0.6769 -2.1220
14480TIP3    H264856   5.777   4.190   2.932 -0.9508  0.6291  1.1271
14481TIP3   OH264857   3.837   4.022  10.885  0.7913 -0.6929  0.0439
14481TIP3    H164858   3.777   4.041  10.956  1.5681  0.5862  0.4146
14481TIP3    H264859   3.923   4.050  10.918  1.4480 -1.6703 -0.7685
14482TIP3   OH264860   5.427   0.391   4.009 -0.1593 -0.4795  0.1655
14482TIP3    H164861   5.345   0.424   3.974 -1.2938 -1.4950  1.7319
14482TIP3    H264862   5.482   0.468   4.019 -0.5704  0.1048 -1.7167
14483TIP3   OH264863   0.952   5.325   2.084 -0.2980 -0.0868  0.2888
14483TIP3    H164864   0.882   5.261   2.097 -0.9391  0.3051 -1.0262
14483TIP3    H264865   1.033   5.274   2.092 -0.7792 -0.8637  0.2756
14484TIP3   OH264866   0.648   4.311  16.494 -0.1590 -0.0190  0.1965
14484TIP3    H164867   0.683   4.366  16.423  0.9442 -0.5289  0.3287
14484TIP3    H264868   0.655   4.366  16.572  0.7882 -0.2714  0.2979
14485TIP3   OH264869   2.685   3.875  16.776 -0.0877 -0.1656 -0.1258
14485TIP3    H164870   2.607   3.838  16.818 -1.1238  1.5154 -0.4738
14485TIP3    H264871   2.670   3.865  16.683 -0.2374  0.7889 -0.2164
14486TIP3   OH264872   2.851   3.990  14.174  0.0860  0.5319 -0.6064
14486TIP3    H164873   2.785   3.923  14.192  0.4737  0.4886  0.7840
14486TIP3    H264874   2.915   3.980  14.245  1.6449  0.5124 -1.9627
14487TIP3   OH264875   4.474   2.969  12.693 -0.0981  0.1860  0.0134
14487TIP3    H164876   4.493   3.055  12.657 -0.4126 -0.7164 -2.4706
14487TIP3    H264877   4.527   2.909  12.641 -1.7334 -1.3324  0.0119
14488TIP3   OH264878   4.946   6.013   1.171  0.3003 -0.7643  0.1266
14488TIP3    H164879   4.982   6.091   1.213  3.2930 -0.9324 -1.8223
14488TIP3    H264880   4.958   5.943   1.234 -0.5256 -0.0643  1.0971
14489TIP3   OH264881   2.944   4.404   4.631 -0.1273 -0.2797  0.1296
14489TIP3    H164882   2.924   4.472   4.566 -0.2827  0.0722  0.5443
14489TIP3    H264883   2.870   4.406   4.692  0.5016  0.0900  0.8970
14490TIP3   OH264884   2.492   5.711  15.980  0.3345  0.0185 -0.2321
14490TIP3    H164885   2.573   5.762  15.974 -0.6691  1.7367  0.1330
14490TIP3    H264886   2.424   5.777  15.995 -0.9493 -1.5071  0.8920
14491TIP3   OH264887   5.689   0.225   5.446 -0.0470 -0.0081 -0.0747
14491TIP3    H164888   5.675   0.146   5.498  2.8657 -1.5009 -1.3029
14491TIP3    H264889   5.749   0.278   5.498 -0.3382  0.4230 -0.1728
14492TIP3   OH264890   3.828   1.084  13.301 -0.4422  0.1617  0.6022
14492TIP3    H164891   3.851   1.073  13.208 -1.7974  2.9268 -0.1566
14492TIP3    H264892   3.905   1.127  13.340 -0.2026 -0.2524  0.5990
14493TIP3   OH264893   3.082   3.290   1.438  0.0075 -0.9496 -0.4946
14493TIP3    H164894   3.074   3.315   1.346  0.7502 -0.0370 -0.3275
14493TIP3    H264895   2.994   3.297   1.473 -0.1019 -0.2791 -0.8961
14494TIP3   OH264896   4.228   2.817   4.345 -0.5741 -0.6548  0.0145
14494TIP3    H164897   4.180   2.806   4.427 -0.1876 -0.1441  0.3131
14494TIP3    H264898   4.283   2.894   4.359 -0.2256 -0.7858 -0.5925
14495TIP3   OH264899   2.330   0.417   2.076 -0.0903  0.6575 -0.1908
14495TIP3    H164900   2.328   0.372   2.160  0.9334 -1.4525 -1.2228
14495TIP3    H264901   2.362   0.504   2.096 -1.5081  0.7894  1.8074
14496TIP3   OH264902   2.366   5.892   5.434  0.6876 -0.1856 -0.0422
14496TIP3    H164903   2.345   5.921   5.345  0.4453  1.0473  0.3986
14496TIP3    H264904   2.304   5.821   5.451  1.6549 -1.3776 -1.3508
14497TIP3   OH264905   0.815   5.147   1.618  0.1610 -0.0496  0.7755
14497TIP3    H164906   0.802   5.205   1.543  1.0161 -0.5925  0.1898
14497TIP3    H264907   0.856   5.069   1.581  0.6511 -0.2984  1.8114
14498TIP3   OH264908   1.325   6.052   0.772  0.5472  0.0226 -0.1623
14498TIP3    H164909   1.354   5.993   0.702  0.9480 -0.1124  0.1131
14498TIP3    H264910   1.253   6.004   0.815 -0.0221  0.3142 -0.7826
14499TIP3   OH264911   5.310   5.557   0.555  0.5058  0.4294  0.5439
14499TIP3    H164912   5.337   5.556   0.647  0.0225 -0.5578  0.6909
14499TIP3    H264913   5.349   5.637   0.519  1.0086  0.6329  1.5120
14500TIP3   OH264914   2.290   2.715  16.112 -0.3485  0.4497  0.1734
14500TIP3    H164915   2.248   2.794  16.080 -0.5953 -0.3321 -1.5745
14500TIP3    H264916   2.383   2.736  16.117 -0.4044  0.8220 -0.3684
14501TIP3   OH264917   6.555   0.855  14.295  0.1606  0.2345  0.0334
14501TIP3    H164918   6.571   0.905  14.214 -0.7538  0.9924  0.3094
14501TIP3    H264919   6.605   0.902  14.362  0.2731  0.0669  0.0686
14502TIP3   OH264920   2.792   4.831   1.778  0.4970 -0.6155 -0.3649
14502TIP3    H164921   2.884   4.806   1.774  0.5022 -0.7649  0.6155
14502TIP3    H264922   2.750   4.781   1.708  1.5582  1.2894 -2.5226
14503TIP3   OH264923   2.966   5.617   6.374 -0.8751  0.1279  0.0610
14503TIP3    H164924   3.004   5.676   6.440 -1.8521  0.0696  0.6902
14503TIP3    H264925   3.011   5.534   6.388 -0.0942  0.4836 -0.2704
14504TIP3   OH264926   6.483   2.602  15.674 -0.1911  0.3873 -0.2259
14504TIP3    H164927   6.553   2.556  15.629 -0.9995 -1.2491  0.1288
14504TIP3    H264928   6.508   2.599  15.767  0.0307  1.1778 -0.2544
14505TIP3   OH264929   2.094   3.193   1.973  0.3844  0.3049 -0.1961
14505TIP3    H164930   2.121   3.156   2.057 -0.3040  0.0979 -0.0600
14505TIP3    H264931   2.124   3.284   1.975  2.1761 -0.2530 -0.5713
14506TIP3   OH264932   5.884   0.379   4.657 -0.1476 -0.1259  0.2529
14506TIP3    H164933   5.898   0.292   4.620 -0.0630 -0.6856  1.5376
14506TIP3    H264934   5.886   0.365   4.752  0.9479  1.4456  0.5055
14507TIP3   OH264935   1.968   2.297  16.945  0.4485  0.2350  0.5024
14507TIP3    H164936   1.911   2.371  16.923  0.0630  0.7489  2.9496
14507TIP3    H264937   1.918   2.220  16.920  0.0505  0.7548 -0.3318
14508TIP3   OH264938   1.832   4.229  10.325 -0.2715  0.2429  0.1987
14508TIP3    H164939   1.885   4.202  10.401 -1.6844  1.2186  1.5984
14508TIP3    H264940   1.764   4.162  10.318 -0.6641  0.6209  0.3617
14509TIP3   OH264941   2.922   0.240   5.269  0.3020  0.0413  0.1560
14509TIP3    H164942   2.994   0.179   5.250 -1.0519 -1.7971  0.6391
14509TIP3    H264943   2.917   0.296   5.192  2.5138  0.5485  0.2995
14510TIP3   OH264944   4.531   4.898  12.712  0.0949  0.6267  0.1617
14510TIP3    H164945   4.569   4.813  12.733  1.1848  1.3872  1.4225
14510TIP3    H264946   4.439   4.880  12.694  0.7502 -1.1200 -1.8687
14511TIP3   OH264947   1.221   6.014   3.679  0.1177 -0.1535  0.3126
14511TIP3    H164948   1.205   5.965   3.759 -0.2239  0.1962  0.4621
14511TIP3    H264949   1.210   5.951   3.609  2.2480 -0.9458  0.5961
14512TIP3   OH264950   2.736   6.702  16.834 -0.0658  0.3366  0.3237
14512TIP3    H164951   2.751   6.608  16.825 -1.9471  0.0344 -0.1402
14512TIP3    H264952   2.641   6.710  16.843 -0.4576  2.4245 -3.5982
14513TIP3   OH264953   5.209   6.277  16.298 -0.0385  0.2717 -0.3898
14513TIP3    H164954   5.210   6.187  16.331 -0.7588  0.6817  0.8071
14513TIP3    H264955   5.235   6.331  16.373 -2.0180  1.2559 -0.3407
14514TIP3   OH264956   0.133   5.874  16.419 -0.2435 -0.4013 -0.3842
14514TIP3    H164957   0.135   5.781  16.441  1.6057  0.2311  2.8179
14514TIP3    H264958   0.214   5.909  16.455 -0.6005  2.4041 -1.9909
14515TIP3   OH264959   4.514   1.027   3.378 -0.0886 -0.0164  0.0091
14515TIP3    H164960   4.571   0.992   3.309 -0.9568 -0.7077 -0.3860
14515TIP3    H264961   4.557   1.002   3.459 -0.2352 -1.2843 -0.2750
14516TIP3   OH264962   1.026   6.466  13.301 -0.6107  0.7142 -0.9351
14516TIP3    H164963   1.089   6.393  13.305 -1.3089  0.0242 -2.0715
14516TIP3    H264964   0.962   6.446  13.368  0.0727  1.1484 -0.1286
14517TIP3   OH264965   3.666   2.626  12.808  0.1861  0.3935  0.2260
14517TIP3    H164966   3.613   2.548  12.792 -0.2737  0.5964  0.7320
14517TIP3    H264967   3.673   2.632  12.903 -0.6624  1.5361  0.2369
14518TIP3   OH264968   4.862   0.986  15.293  0.1330  0.3768 -0.3758
14518TIP3    H164969   4.778   1.033  15.294 -0.0711  0.1230 -2.2227
14518TIP3    H264970   4.879   0.969  15.201  1.1808 -1.4767  0.1059
14519TIP3   OH264971   4.789   2.121  13.182 -0.6631 -0.3659  0.0848
14519TIP3    H164972   4.782   2.057  13.253 -0.4732  0.8160  1.2061
14519TIP3    H264973   4.805   2.204  13.226 -1.4347  0.5632 -1.3098
14520TIP3   OH264974   0.062   5.268   3.715 -0.1684 -0.0126  0.5194
14520TIP3    H164975   0.018   5.184   3.708  1.9898 -1.7802  4.6607
14520TIP3    H264976   0.016   5.314   3.785 -0.5172  1.7893 -0.8137
14521TIP3   OH264977   6.488   3.263  12.161  0.1284  0.3623 -0.8061
14521TIP3    H164978   6.553   3.228  12.222 -2.0358  0.3285  1.6953
14521TIP3    H264979   6.487   3.201  12.088  0.9848 -1.1505  0.4140
14522TIP3   OH264980   3.274   1.477   2.697  0.3131  0.2461 -0.0053
14522TIP3    H164981   3.238   1.481   2.608  1.0792 -0.4367 -0.3621
14522TIP3    H264982   3.322   1.560   2.706 -0.7170  0.8350  0.2120
14523TIP3   OH264983   6.190   4.133   0.510  0.5637 -0.3381  0.1978
14523TIP3    H164984   6.267   4.159   0.561  1.0030  1.3810 -1.2240
14523TIP3    H264985   6.224   4.117   0.422 -0.2812 -2.5526  0.2081
14524TIP3   OH264986   1.544   2.337  14.828 -0.6429 -0.1771  1.0219
14524TIP3    H164987   1.508   2.369  14.745  3.5850  0.0837 -0.9595
14524TIP3    H264988   1.591   2.412  14.864  0.1426 -1.1265  2.0422
14525TIP3   OH264989   1.194   1.176  13.643  0.0433  0.0418 -0.0648
14525TIP3    H164990   1.174   1.253  13.591 -3.7421 -0.3443  0.5015
14525TIP3    H264991   1.219   1.210  13.729 -2.3221  0.7938  0.4173
14526TIP3   OH264992   4.624   2.920   4.236  0.6129 -0.3946  0.4311
14526TIP3    H164993   4.552   2.863   4.210  0.8995 -1.5861  2.1154
14526TIP3    H264994   4.582   2.994   4.280  0.3798 -1.1405  1.5085
14527TIP3   OH264995   2.809   1.200  15.150 -0.2513 -0.4024  0.0523
14527TIP3    H164996   2.800   1.126  15.089  1.7966  0.0829 -0.9336
14527TIP3    H264997   2.874   1.256  15.109 -0.2597  0.9442  1.7894
14528TIP3   OH264998   4.834   1.248   2.367 -0.1691 -0.0755  0.2522
14528TIP3    H164999   4.924   1.270   2.388 -0.2616  1.6885 -0.9807
14528TIP3    H265000   4.837   1.157   2.339  0.8734 -0.6453  2.0527
14529TIP3   OH265001   4.097   1.450  12.004 -0.9150  0.4361  0.1286
14529TIP3    H165002   4.126   1.364  12.034 -0.8299  0.8082  1.1635
14529TIP3    H265003   4.037   1.432  11.932  1.1070 -0.4118 -1.4604
14530TIP3   OH265004   6.697   3.277   1.063 -0.1495 -0.0004 -0.3717
14530TIP3    H165005   6.633   3.275   1.135  1.1415  0.1005  0.8134
14530TIP3    H265006   6.688   3.364   1.026 -1.4093 -0.3297 -0.9073
14531TIP3   OH265007   0.504   1.270  12.859  0.0363 -0.1272 -0.3872
14531TIP3    H165008   0.557   1.328  12.805  1.2666 -0.4701  0.3903
14531TIP3    H265009   0.563   1.197  12.880 -0.4172 -0.0562  1.3038
14532TIP3   OH265010   5.027   2.052  15.396 -0.6064  0.0531  0.3537
14532TIP3    H165011   5.042   2.030  15.488 -0.9183  0.7543  0.5797
14532TIP3    H265012   5.002   1.969  15.355  2.1854 -0.8802  0.3043
14533TIP3   OH265013   5.609   6.718  14.384 -0.5238  0.1609  0.5232
14533TIP3    H165014   5.620   6.778  14.309  0.1769 -0.2360  0.3057
14533TIP3    H265015   5.534   6.663  14.359 -0.3161  0.0531  0.1230
14534TIP3   OH265016   2.467   1.418   5.613 -0.5125  0.7184 -0.1523
14534TIP3    H165017   2.423   1.333   5.610 -0.8619  0.8881  0.0485
14534TIP3    H265018   2.504   1.424   5.701  0.8234  0.1355 -0.6437
14535TIP3   OH265019   2.691   6.571  14.576  0.5105 -0.0804  0.2833
14535TIP3    H165020   2.665   6.537  14.662  1.9026  0.3834  0.9317
14535TIP3    H265021   2.730   6.496  14.531 -2.0921 -0.8661 -0.8305
14536TIP3   OH265022   0.089   3.690   5.689  0.1369  0.7222 -0.1198
14536TIP3    H165023   0.045   3.609   5.664  0.7439  0.4031 -0.1892
14536TIP3    H265024   0.130   3.670   5.774  0.5187  0.8606 -0.2667
14537TIP3   OH265025   6.809   5.028   1.321  0.1145  0.2930  0.2709
14537TIP3    H165026   6.902   5.017   1.344  0.2185  1.7563  0.6117
14537TIP3    H265027   6.774   5.083   1.390 -1.2638 -0.9884  0.6485
14538TIP3   OH265028   5.710   1.523   3.397  0.3110  0.3029 -0.9347
14538TIP3    H165029   5.719   1.586   3.468  2.2019  1.6683 -2.2591
14538TIP3    H265030   5.731   1.438   3.436 -1.0762  0.6311  0.6192
14539TIP3   OH265031   4.080   6.388   0.205 -0.3121 -0.2812 -0.0473
14539TIP3    H165032   4.054   6.386   0.113 -0.9302 -1.0694  0.1350
14539TIP3    H265033   4.134   6.310   0.216  1.6576  0.9815 -0.2586
14540TIP3   OH265034   3.148   0.199  10.353  0.0225 -0.5643  0.2468
14540TIP3    H165035   3.188   0.249  10.282 -1.0560 -0.6098 -0.4032
14540TIP3    H265036   3.178   0.242  10.433 -1.6670  1.7585 -0.2988
14541TIP3   OH265037   6.315   5.634   5.070 -0.2212  0.0078  0.1104
14541TIP3    H165038   6.392   5.592   5.110  0.3633  1.0247  0.0810
14541TIP3    H265039   6.278   5.566   5.014  1.5574 -0.0492 -1.0725
14542TIP3   OH265040   2.997   0.492   5.959 -0.1885  0.0193 -0.3366
14542TIP3    H165041   3.038   0.413   5.995  3.0506  0.1921 -3.1572
14542TIP3    H265042   2.968   0.466   5.872  0.9104  1.8697 -1.3133
14543TIP3   OH265043   5.564   0.552   5.514 -0.7180  0.2589 -0.1835
14543TIP3    H165044   5.652   0.517   5.529 -0.7687  0.6751  1.2283
14543TIP3    H265045   5.505   0.480   5.536 -0.7445 -0.3045 -1.9592
14544TIP3   OH265046   4.282   2.496   4.104 -0.2888  0.0053 -0.5307
14544TIP3    H165047   4.322   2.480   4.019 -0.2725  0.0153 -0.5249
14544TIP3    H265048   4.240   2.413   4.126 -0.2274 -0.0204 -0.5130
14545TIP3   OH265049   3.474   3.808  13.884 -0.0091 -0.1939  0.0842
14545TIP3    H165050   3.527   3.882  13.854 -0.9656  0.3610 -0.2872
14545TIP3    H265051   3.401   3.848  13.932  1.2104 -1.0358  2.8338
14546TIP3   OH265052   5.171   0.256  11.816 -0.4891 -0.1225  0.1162
14546TIP3    H165053   5.094   0.205  11.843  0.1471 -0.5649  1.1336
14546TIP3    H265054   5.136   0.344  11.799 -1.3058 -0.4495  0.0400
14547TIP3   OH265055   2.308   5.715   0.190 -0.0755 -0.4020 -0.1958
14547TIP3    H165056   2.369   5.787   0.208  1.5962 -1.5467 -0.9904
14547TIP3    H265057   2.269   5.736   0.105 -0.5828  0.1920  0.1797
14548TIP3   OH265058   0.714   6.345   3.557 -0.2165  0.2239  0.1114
14548TIP3    H165059   0.765   6.375   3.632 -0.9601 -1.2521  1.2509
14548TIP3    H265060   0.771   6.283   3.512 -0.7510 -0.9440  1.0216
14549TIP3   OH265061   2.355   0.124  14.228  0.3250 -0.3117 -0.1313
14549TIP3    H165062   2.327   0.033  14.239 -1.1062  0.0383 -0.5793
14549TIP3    H265063   2.273   0.174  14.229  1.0703  0.9463 -0.1377
14550TIP3   OH265064   4.425   2.115   1.973  0.0438 -0.1657  0.2592
14550TIP3    H165065   4.445   2.111   1.880 -0.6632  1.1279  0.0278
14550TIP3    H265066   4.344   2.065   1.982  0.3484 -0.6610  0.2553
14551TIP3   OH265067   4.653   5.139  10.625  0.0185 -0.2294 -0.2782
14551TIP3    H165068   4.602   5.096  10.694 -1.9144  0.7806 -1.0084
14551TIP3    H265069   4.637   5.086  10.547 -0.8535  0.7375 -0.7640
14552TIP3   OH265070   2.100   1.648  13.129  0.4050  0.2035 -0.4920
14552TIP3    H165071   2.122   1.555  13.139  2.0666  0.4670 -1.3122
14552TIP3    H265072   2.092   1.681  13.218 -1.8462 -1.0479 -0.1675
14553TIP3   OH265073   4.674   0.147  14.996 -0.4978  0.1251 -0.0581
14553TIP3    H165074   4.681   0.072  14.937  1.1607  0.2428 -0.0556
14553TIP3    H265075   4.636   0.111  15.076 -0.5367 -0.5213 -0.3632
14554TIP3   OH265076   6.461   4.474  14.599 -0.3456 -0.5385 -0.4409
14554TIP3    H165077   6.524   4.517  14.542 -0.7818  1.6802  0.6327
14554TIP3    H265078   6.508   4.399  14.636  2.2166  1.7542  1.3344
14555TIP3   OH265079   4.971   0.006  12.433 -0.0907 -0.7912 -0.1897
14555TIP3    H165080   5.016   0.067  12.374  0.4695 -0.4016  0.6230
14555TIP3    H265081   5.040  -0.053  12.463  0.1907  0.5751  2.0374
14556TIP3   OH265082   2.500   0.244  13.330 -0.1896 -0.3058  0.0529
14556TIP3    H165083   2.496   0.182  13.402 -3.1339 -1.0515 -0.6147
14556TIP3    H265084   2.444   0.317  13.358 -0.8748 -0.3275 -1.2065
14557TIP3   OH265085   3.070   6.064   5.448 -0.3075 -0.5188  0.2889
14557TIP3    H165086   3.013   6.083   5.521 -0.7239  0.5629 -0.2996
14557TIP3    H265087   3.032   5.987   5.406 -0.4628 -0.7122  0.7891
14558TIP3   OH265088   6.699   5.151   4.489 -1.2743  0.3126  0.3007
14558TIP3    H165089   6.749   5.094   4.431 -2.5486 -0.3452 -0.1897
14558TIP3    H265090   6.750   5.155   4.570 -0.0077  0.3799 -0.4688
14559TIP3   OH265091   0.405   3.373   4.807  0.2653 -0.2585 -0.3072
14559TIP3    H165092   0.345   3.419   4.748 -0.0624 -0.7926 -0.3976
14559TIP3    H265093   0.476   3.342   4.751  0.7497  0.5598 -0.1667
14560TIP3   OH265094   1.556   2.521  15.137  0.7272 -0.1885 -0.2186
14560TIP3    H165095   1.538   2.612  15.114 -1.3427 -0.7361 -1.0044
14560TIP3    H265096   1.559   2.520  15.233 -2.0951  0.3128 -0.0422
14561TIP3   OH265097   2.835   3.901  12.601  0.0246 -0.2046  0.2262
14561TIP3    H165098   2.897   3.947  12.545 -0.4445  1.0577  0.7155
14561TIP3    H265099   2.881   3.891  12.684  0.3184 -1.1160 -0.0324
14562TIP3   OH265100   3.501   5.628  12.366 -0.8330 -0.2711  0.6393
14562TIP3    H165101   3.451   5.645  12.446 -0.5142  0.2862  0.7254
14562TIP3    H265102   3.585   5.671  12.381  0.1996 -2.2887  1.0493
14563TIP3   OH265103   2.968   0.498   0.721 -0.1329 -0.5723 -0.1551
14563TIP3    H165104   2.923   0.424   0.762  0.9446 -1.6761 -0.8992
14563TIP3    H265105   2.975   0.474   0.629  0.6137  0.2722 -0.3320
14564TIP3   OH265106   0.105   2.359   5.610  0.4675  0.0355 -0.0287
14564TIP3    H165107   0.073   2.377   5.699  0.5640  0.5101 -0.0856
14564TIP3    H265108   0.136   2.444   5.579  1.3005 -0.3095 -0.1687
14565TIP3   OH265109   2.242   1.892   0.801 -0.5007  0.1183 -0.3452
14565TIP3    H165110   2.301   1.873   0.728 -0.8909 -1.3788 -0.3070
14565TIP3    H265111   2.297   1.941   0.863  1.2716 -2.5235  0.3804
14566TIP3   OH265112   2.105   3.153  12.807  0.2264  0.6418  0.0198
14566TIP3    H165113   2.152   3.226  12.847 -0.9298  1.8898 -0.8013
14566TIP3    H265114   2.165   3.120  12.740  0.9237  0.5596  0.6769
14567TIP3   OH265115   3.569   5.897  11.417 -0.0208 -0.1867 -0.0336
14567TIP3    H165116   3.607   5.844  11.346 -2.4743  0.7265 -2.2035
14567TIP3    H265117   3.486   5.853  11.437 -1.7896  2.2952 -1.4087
14568TIP3   OH265118   4.505   4.185  10.615  0.1480  0.6637  0.0689
14568TIP3    H165119   4.568   4.255  10.605 -1.1141  1.7115 -0.7781
14568TIP3    H265120   4.446   4.215  10.685 -0.8235  0.8125 -0.7812
14569TIP3   OH265121   1.493   2.787   3.918  0.3496  0.4657 -0.3020
14569TIP3    H165122   1.508   2.866   3.867 -0.5854 -0.3431 -1.8966
14569TIP3    H265123   1.572   2.777   3.971 -0.2916  3.5432  1.4885
14570TIP3   OH265124   1.790   0.851   3.286  0.7666 -0.1876  0.5048
14570TIP3    H165125   1.764   0.763   3.315  2.0402 -0.8095 -0.1450
14570TIP3    H265126   1.878   0.839   3.250  0.7932  1.2876  0.0180
14571TIP3   OH265127   2.328   1.370  10.736  0.2060 -0.0638  0.0091
14571TIP3    H165128   2.378   1.415  10.668  2.5999 -2.1852  0.2569
14571TIP3    H265129   2.278   1.303  10.688  0.3262 -0.2359  0.1247
14572TIP3   OH265130   0.557   2.152  15.772 -0.2196  0.0208 -0.0222
14572TIP3    H165131   0.529   2.109  15.691 -0.9318  1.3877 -0.5446
14572TIP3    H265132   0.617   2.221  15.742  0.8248 -0.5164  0.7716
14573TIP3   OH265133   3.922   3.737  16.481 -0.0634 -0.2483 -0.2630
14573TIP3    H165134   3.918   3.803  16.412 -0.3484 -1.3277 -1.3089
14573TIP3    H265135   3.838   3.744  16.525  0.1917  0.5743  0.1151
14574TIP3   OH265136   3.878   0.903   4.321  0.1984  0.5114  0.2391
14574TIP3    H165137   3.905   0.953   4.398  0.3648  1.7489 -0.5833
14574TIP3    H265138   3.783   0.898   4.327  0.1448  1.2737  0.1492
14575TIP3   OH265139   2.324   2.669  10.604  0.2128  0.0153  0.1595
14575TIP3    H165140   2.310   2.736  10.538  3.3160  0.1955 -0.4992
14575TIP3    H265141   2.269   2.596  10.576  2.4905 -0.5288 -3.7245
14576TIP3   OH265142   3.884   1.898   1.219  0.0539 -0.5416 -0.2509
14576TIP3    H165143   3.846   1.830   1.276 -0.2620 -0.5992 -0.5275
14576TIP3    H265144   3.867   1.979   1.266  1.2181 -0.7197  0.5109
14577TIP3   OH265145   2.845   5.855  14.207  0.5062  0.2917 -0.4830
14577TIP3    H165146   2.802   5.936  14.178  0.2341 -0.0511 -1.0631
14577TIP3    H265147   2.905   5.833  14.135  2.2281  1.1548  0.6225
14578TIP3   OH265148   3.519   2.857  12.748 -0.0366  0.1142 -0.0460
14578TIP3    H165149   3.560   2.771  12.742 -0.6234 -0.3494  1.8428
14578TIP3    H265150   3.467   2.854  12.829 -4.3737  0.3671 -2.4909
14579TIP3   OH265151   5.520   6.258   1.120  0.5849  0.1551  0.1246
14579TIP3    H165152   5.469   6.335   1.144  0.6901 -0.3378  2.0706
14579TIP3    H265153   5.456   6.187   1.115  0.4088  0.4141 -2.1685
14580TIP3   OH265154   3.606   2.365  13.356 -0.2513  0.1939 -0.2357
14580TIP3    H165155   3.648   2.451  13.358 -1.1703  0.6396  0.8169
14580TIP3    H265156   3.598   2.340  13.448 -1.7419 -0.1309 -0.4377
14581TIP3   OH265157   2.114   3.642  14.986  0.3378 -0.3541  0.2090
14581TIP3    H165158   2.153   3.587  14.918 -1.9475 -1.4365 -0.3581
14581TIP3    H265159   2.146   3.604  15.068 -0.6840 -2.2353 -0.1912
14582TIP3   OH265160   5.423   2.170   4.018 -0.0758 -0.1306 -0.0445
14582TIP3    H165161   5.385   2.132   4.097 -0.3243 -0.6332 -0.3977
14582TIP3    H265162   5.510   2.129   4.011  0.2871  0.5343  0.4104
14583TIP3   OH265163   4.259   1.755   6.260 -0.2001 -0.3350 -0.2799
14583TIP3    H165164   4.272   1.661   6.274  0.2746 -0.5253 -1.8679
14583TIP3    H265165   4.319   1.797   6.322 -0.2507 -1.0626  0.2848
14584TIP3   OH265166   3.543   4.301   2.400  0.5639  0.0611 -0.2162
14584TIP3    H165167   3.565   4.356   2.325  2.3288  1.4180  1.2281
14584TIP3    H265168   3.523   4.362   2.471 -0.9515 -1.1867  0.5201
14585TIP3   OH265169   2.689   5.089  15.039 -0.0836 -0.2541  0.0195
14585TIP3    H165170   2.769   5.142  15.030  0.4034 -0.4234  2.6235
14585TIP3    H265171   2.622   5.139  14.992  0.6849  1.9681  1.1365
14586TIP3   OH265172   3.050   1.069   4.783  0.1937 -0.0589 -0.4641
14586TIP3    H165173   3.102   1.012   4.726 -0.9315  0.4662 -2.0966
14586TIP3    H265174   3.063   1.157   4.748 -0.7568  0.2343 -0.1187
14587TIP3   OH265175   0.097   1.397  11.182 -0.1070  0.0408  0.6110
14587TIP3    H165176   0.145   1.451  11.245 -2.0439  2.6972 -0.0424
14587TIP3    H265177   0.059   1.327  11.234  1.5120 -0.0985  1.6838
14588TIP3   OH265178   0.985   1.601   0.505  0.4820  0.2714  0.2417
14588TIP3    H165179   0.941   1.660   0.443  1.6575  0.4948 -0.4112
14588TIP3    H265180   1.041   1.659   0.557 -0.6069  0.1068  1.6564
14589TIP3   OH265181   1.209   4.069  13.139  0.1108 -0.2390 -0.2832
14589TIP3    H165182   1.275   4.021  13.089  0.2424 -0.3784  0.0194
14589TIP3    H265183   1.258   4.140  13.180 -0.0066 -0.0937 -0.3972
14590TIP3   OH265184   3.103   1.585   1.540  0.7206 -0.5767  0.4110
14590TIP3    H165185   3.095   1.593   1.445  0.5349 -0.8294  0.4031
14590TIP3    H265186   3.016   1.609   1.573  0.4544 -1.5322  0.4469
14591TIP3   OH265187   0.168   2.710  12.025 -0.0024 -0.1363  0.0599
14591TIP3    H165188   0.188   2.642  11.961  0.3041  0.5612 -0.6027
14591TIP3    H265189   0.073   2.717  12.024 -0.2124 -1.8679  1.5454
14592TIP3   OH265190   6.274   5.489  11.538  0.0491 -0.5821 -0.0770
14592TIP3    H165191   6.246   5.411  11.490 -1.3146 -1.5971  2.1959
14592TIP3    H265192   6.359   5.512  11.499 -1.0628 -1.0799 -3.1245
14593TIP3   OH265193   0.950   0.155   1.263  0.2846 -1.1107  0.3047
14593TIP3    H165194   0.896   0.078   1.244 -2.3884  0.7621 -0.2941
14593TIP3    H265195   0.964   0.152   1.357  1.8266 -3.2535  0.0587
14594TIP3   OH265196   2.138   6.602  16.945 -0.0884 -0.5965 -0.4250
14594TIP3    H165197   2.179   6.518  16.921  2.3899  0.0507  1.1816
14594TIP3    H265198   2.166   6.663  16.877  1.2770 -0.2856  0.3722
14595TIP3   OH265199   1.494   2.468  13.941  0.1088  0.4719 -0.3830
14595TIP3    H165200   1.440   2.428  14.009  1.3741 -0.2205  0.2437
14595TIP3    H265201   1.432   2.492  13.872 -0.8983 -1.1140 -0.0840
14596TIP3   OH265202   6.489   5.513  13.892 -0.1114  0.5688 -0.1244
14596TIP3    H165203   6.491   5.480  13.982 -0.6998  0.3639 -0.1842
14596TIP3    H265204   6.575   5.490  13.856  0.0886  0.5670  0.3535
14597TIP3   OH265205   1.575   1.776  15.014 -0.6741  0.1653  0.1669
14597TIP3    H165206   1.498   1.722  14.996 -1.3011  1.1017 -0.0574
14597TIP3    H265207   1.538   1.858  15.047  0.2743  0.2871  0.9323
14598TIP3   OH265208   0.856   3.458   1.810 -0.7336  0.3120 -0.5182
14598TIP3    H165209   0.785   3.500   1.761 -2.3360  1.6773  2.6181
14598TIP3    H265210   0.894   3.530   1.861  1.1991 -0.8992 -0.1683
14599TIP3   OH265211   2.551   5.902   3.821 -0.0135 -0.2868  0.6344
14599TIP3    H165212   2.638   5.907   3.860 -0.2107 -1.6642  1.3243
14599TIP3    H265213   2.512   5.824   3.860 -1.2547 -0.1563 -0.2837
14600TIP3   OH265214   0.884   2.903   6.472 -0.1770  0.0003  0.3506
14600TIP3    H165215   0.931   2.886   6.390  1.9202  2.1758  0.9676
14600TIP3    H265216   0.831   2.981   6.453  2.4320  2.2635  1.6581
14601TIP3   OH265217   0.856   6.393   5.242 -0.3859  0.3927  0.2905
14601TIP3    H165218   0.931   6.355   5.288 -1.8556 -1.5432  1.2715
14601TIP3    H265219   0.854   6.348   5.158  0.1399  1.2257 -0.1820
14602TIP3   OH265220   3.306   6.311   0.384  0.0580  0.7209  0.0199
14602TIP3    H165221   3.339   6.378   0.323  1.1548  2.0400  1.9653
14602TIP3    H265222   3.385   6.269   0.418 -0.4616  0.8985  1.4848
14603TIP3   OH265223   3.655   2.214  14.733  0.0533  0.2365  0.4236
14603TIP3    H165224   3.678   2.272  14.806  0.1820  3.4967 -1.9532
14603TIP3    H265225   3.725   2.227  14.669 -1.9107  0.6278 -1.8209
14604TIP3   OH265226   3.440   6.140  14.997  0.3165 -0.2852  0.4236
14604TIP3    H165227   3.362   6.089  15.020  0.3296 -0.8211 -0.6443
14604TIP3    H265228   3.434   6.151  14.902  0.7952  0.9324  0.5191
14605TIP3   OH265229   2.267   4.650  11.680  0.1077 -0.1538  0.0721
14605TIP3    H165230   2.224   4.697  11.752 -1.3344 -0.5745 -0.4822
14605TIP3    H265231   2.211   4.667  11.604  0.9190 -0.7596 -0.6704
14606TIP3   OH265232   2.604   5.765   1.338  0.0586 -0.0975  0.0782
14606TIP3    H165233   2.592   5.742   1.430  0.4280  0.4609  0.2718
14606TIP3    H265234   2.698   5.755   1.322 -0.1764 -1.4063 -0.5814
14607TIP3   OH265235   3.065   2.034  15.878 -0.5868  0.0592 -0.2581
14607TIP3    H165236   3.110   2.096  15.819 -2.1762  0.7176 -0.8269
14607TIP3    H265237   3.068   2.077  15.964 -0.9216  0.5172 -0.4743
14608TIP3   OH265238   4.498   3.926  14.803 -0.2152 -0.7695 -0.2598
14608TIP3    H165239   4.431   3.888  14.860  1.2022 -1.7680  0.8382
14608TIP3    H265240   4.466   4.013  14.783 -1.1244 -0.6455  1.5164
14609TIP3   OH265241   3.489   6.670  14.388  0.1176  0.4316 -0.1322
14609TIP3    H165242   3.449   6.586  14.411 -0.5882  0.9519  0.6281
14609TIP3    H265243   3.416   6.732  14.389  0.8565  1.3211  0.8065
14610TIP3   OH265244   4.837   3.002   6.014 -0.6301  0.2398  0.3424
14610TIP3    H165245   4.812   2.918   6.051 -0.6025 -1.5561 -3.2778
14610TIP3    H265246   4.755   3.039   5.982 -0.2812  0.1532 -0.6837
14611TIP3   OH265247   4.524   2.602  12.865 -0.5452  0.5918  0.3060
14611TIP3    H165248   4.586   2.531  12.852  1.0994  1.6910  1.6657
14611TIP3    H265249   4.449   2.562  12.909  0.4854 -0.2454  1.3374
14612TIP3   OH265250   1.903   4.319  15.858 -0.5207  0.0329  0.0237
14612TIP3    H165251   1.857   4.282  15.933  0.1673 -0.9597 -0.0232
14612TIP3    H265252   1.834   4.341  15.796 -0.9345 -2.7919 -0.6625
14613TIP3   OH265253   6.469   2.953  14.245 -0.3716  0.2043  0.7390
14613TIP3    H165254   6.426   3.038  14.253 -1.6926 -0.4718  1.1109
14613TIP3    H265255   6.402   2.890  14.272 -0.6973 -1.2766 -2.9775
14614TIP3   OH265256   6.717   0.878   1.800 -0.0199 -0.3241 -0.2820
14614TIP3    H165257   6.635   0.911   1.838 -0.3851 -0.3995 -0.9891
14614TIP3    H265258   6.772   0.956   1.793 -0.9623  0.2496 -2.1553
14615TIP3   OH265259   0.980   4.536   1.304 -0.1404  0.0935 -0.1409
14615TIP3    H165260   0.975   4.458   1.249 -1.2622 -0.2134  0.3627
14615TIP3    H265261   1.063   4.528   1.351  0.7755  0.3048 -1.6799
14616TIP3   OH265262   4.553   1.390  13.197 -0.2488  0.1513  0.1910
14616TIP3    H165263   4.500   1.391  13.277  0.5730 -0.0560  0.7443
14616TIP3    H265264   4.569   1.298  13.180  0.4984  0.2382  0.4056
14617TIP3   OH265265   4.986   0.329   5.898 -0.0571  0.1229  0.4620
14617TIP3    H165266   4.968   0.241   5.931  1.0939 -0.1132  0.5126
14617TIP3    H265267   4.954   0.387   5.967 -0.6564 -0.2503  0.5082
14618TIP3   OH265268   0.923   2.817  13.400  0.2830  0.9217 -0.1507
14618TIP3    H165269   0.865   2.752  13.363  0.4865 -0.0031  1.0702
14618TIP3    H265270   0.927   2.795  13.494  1.5902  1.7210  0.0124
14619TIP3   OH265271   0.098   3.490  15.243  0.5648  0.2969  0.7668
14619TIP3    H165272   0.130   3.579  15.230  1.3026 -0.0415  0.2212
14619TIP3    H265273   0.171   3.434  15.217 -0.2195 -0.4801  0.2015
14620TIP3   OH265274   4.233   5.698   3.297 -0.4060  0.2823  0.2935
14620TIP3    H165275   4.213   5.654   3.215 -2.4853  3.1281 -0.9221
14620TIP3    H265276   4.147   5.716   3.337  0.4334  1.2154  1.8017
14621TIP3   OH265277   0.072   2.211   1.952  0.0679  0.0876  0.0270
14621TIP3    H165278   0.036   2.209   2.040  1.4746  1.1577  0.6665
14621TIP3    H265279   0.136   2.282   1.954 -1.4925  1.7558 -2.5027
14622TIP3   OH265280   4.488   5.587  12.407 -0.2197 -0.5199  0.4968
14622TIP3    H165281   4.548   5.581  12.481 -3.0767  0.4522  3.1123
14622TIP3    H265282   4.512   5.669  12.363  1.8400 -1.3649 -0.0506
14623TIP3   OH265283   5.599   4.966  15.889 -0.3633  0.4075 -0.1760
14623TIP3    H165284   5.607   5.059  15.910 -2.3654  0.4604  0.5645
14623TIP3    H265285   5.645   4.922  15.961 -1.7951  0.7735  1.0051
14624TIP3   OH265286   5.045   0.689  14.806  0.2714  0.4174 -0.3754
14624TIP3    H165287   4.997   0.652  14.732 -0.5698 -0.0352  0.3742
14624TIP3    H265288   5.137   0.668  14.787  0.0251 -0.1166 -1.0488
14625TIP3   OH265289   6.318   2.278  16.921 -0.1214  0.2597 -0.2316
14625TIP3    H165290   6.374   2.297  16.997  0.0794 -0.4458 -0.1956
14625TIP3    H265291   6.377   2.238  16.857 -0.1296  1.5201 -1.0667
14626TIP3   OH265292   2.594   1.267  15.975  0.3579 -0.0413 -0.0250
14626TIP3    H165293   2.548   1.348  15.995  0.2387 -0.1795  0.2643
14626TIP3    H265294   2.669   1.266  16.035 -0.6875 -1.0632  1.3256
14627TIP3   OH265295   1.611   3.872  13.487 -0.1743  0.5333  0.2874
14627TIP3    H165296   1.588   3.780  13.475  0.6786  0.4524 -0.9883
14627TIP3    H265297   1.649   3.877  13.574 -0.9459 -0.1670  0.6727
14628TIP3   OH265298   5.986   5.009   1.139 -0.5869 -0.3683 -0.4359
14628TIP3    H165299   5.925   4.936   1.143  0.1258 -0.9101  1.2581
14628TIP3    H265300   5.958   5.068   1.210  2.3986 -1.9537  2.3031
14629TIP3   OH265301   4.272   1.556  11.566  0.1070  0.7578  0.0336
14629TIP3    H165302   4.354   1.551  11.517 -0.7358 -1.0366 -1.3513
14629TIP3    H265303   4.225   1.476  11.541 -1.5647  1.1556  1.6916
14630TIP3   OH265304   0.313   3.597  16.702  0.1025  0.1952  0.1766
14630TIP3    H165305   0.374   3.611  16.629  0.2496 -0.2153  0.2176
14630TIP3    H265306   0.227   3.597  16.662  0.1829 -0.0236  0.0014
14631TIP3   OH265307   5.199   1.823  14.475  1.1010 -0.1108 -0.0207
14631TIP3    H165308   5.230   1.759  14.412  1.4855 -1.1954  1.2324
14631TIP3    H265309   5.224   1.908  14.439  2.0015 -0.7577 -0.9303
14632TIP3   OH265310   5.889   1.430  16.693  0.0107 -0.0906 -0.1993
14632TIP3    H165311   5.830   1.356  16.702  0.4499 -0.4075  0.1408
14632TIP3    H265312   5.844   1.503  16.735 -0.5443 -0.0891 -0.7832
14633TIP3   OH265313   4.054   5.699   0.857  0.5303  0.2679  1.1235
14633TIP3    H165314   4.098   5.685   0.773  1.2167  3.0774  0.8946
14633TIP3    H265315   4.013   5.615   0.877  0.1647 -0.4698 -2.1016
14634TIP3   OH265316   5.078   6.047  11.046 -0.2162 -0.6527 -0.0231
14634TIP3    H165317   5.054   5.962  11.009  2.1112 -0.7669 -1.4729
14634TIP3    H265318   5.173   6.043  11.057 -0.1119  1.5493  0.4481
14635TIP3   OH265319   5.519   2.847  16.730  0.2332  0.3484  0.0977
14635TIP3    H165320   5.464   2.898  16.670 -0.9572 -1.6445 -0.6538
14635TIP3    H265321   5.548   2.773  16.677  0.9800 -0.3216  1.3968
14636TIP3   OH265322   1.445   2.101   1.317  0.2075  0.2000  0.0495
14636TIP3    H165323   1.436   2.055   1.400  1.5173 -5.2004 -2.3910
14636TIP3    H265324   1.535   2.133   1.317  0.3672 -0.2401  0.5223
14637TIP3   OH265325   4.495   5.757  11.742  0.0828 -0.1333  0.3197
14637TIP3    H165326   4.408   5.739  11.707  0.8140 -0.8935 -1.2241
14637TIP3    H265327   4.521   5.839  11.700  1.3019 -1.4724 -1.7517
14638TIP3   OH265328   6.647   0.628  11.928 -0.4782 -0.1061 -0.0442
14638TIP3    H165329   6.594   0.701  11.896  3.5731  2.4668 -1.7244
14638TIP3    H265330   6.668   0.578  11.849  1.7893  0.6666 -0.0182
14639TIP3   OH265331   2.073   4.610  15.164  0.0958 -0.3449 -0.2867
14639TIP3    H165332   2.007   4.550  15.199 -2.5706  2.0427 -0.8334
14639TIP3    H265333   2.095   4.574  15.078 -1.0698 -0.8335 -0.4059
14640TIP3   OH265334   1.258   1.523  14.071  0.1797  0.0309  0.3550
14640TIP3    H165335   1.330   1.586  14.070  0.7896 -0.6445 -0.2959
14640TIP3    H265336   1.300   1.440  14.095 -0.3612 -0.3937 -0.1481
14641TIP3   OH265337   1.614   1.086   0.520  0.4195 -0.5601 -0.3220
14641TIP3    H165338   1.660   1.026   0.461 -1.5945 -1.5293 -0.9979
14641TIP3    H265339   1.637   1.056   0.608  1.4918 -0.6519 -0.6169
14642TIP3   OH265340   0.291   5.310  12.132 -0.0209 -0.2947  0.2666
14642TIP3    H165341   0.292   5.218  12.106  1.5547  0.2486 -1.9563
14642TIP3    H265342   0.374   5.345  12.099 -0.7112  1.9912  0.7566
14643TIP3   OH265343   4.027   5.299   1.670 -0.3645  0.0229 -0.0327
14643TIP3    H165344   3.960   5.236   1.698 -0.0452 -0.3462 -0.0822
14643TIP3    H265345   4.100   5.285   1.730  0.5609 -1.1885 -1.3721
14644TIP3   OH265346   3.599   0.926   1.089  0.5625  0.4782  0.6091
14644TIP3    H165347   3.609   0.884   1.004  3.3542  1.1955  0.4837
14644TIP3    H265348   3.530   0.875   1.133 -0.7319 -0.0928 -1.8987
14645TIP3   OH265349   2.619   1.258  12.324 -0.1508 -0.1165 -0.8981
14645TIP3    H165350   2.638   1.223  12.237  2.1516 -3.1484  0.6105
14645TIP3    H265351   2.542   1.209  12.353  0.1607 -0.4434 -0.6037
14646TIP3   OH265352   0.146   0.474   2.094  0.1666  0.4991  0.2636
14646TIP3    H165353   0.094   0.394   2.093 -1.8346  1.7276  0.3500
14646TIP3    H265354   0.236   0.444   2.108 -0.1311 -1.8757 -2.1434
14647TIP3   OH265355   2.838   2.885   5.729  0.0452  0.0525 -0.5429
14647TIP3    H165356   2.869   2.975   5.723  0.1960 -0.0537 -1.5174
14647TIP3    H265357   2.754   2.886   5.683  0.4578 -0.4831 -1.3250
14648TIP3   OH265358   6.265   5.454  13.314  0.0228  0.5557 -0.7970
14648TIP3    H165359   6.221   5.508  13.248 -1.0763  0.3321 -0.2698
14648TIP3    H265360   6.218   5.370  13.312 -0.6114  0.8309  0.8499
14649TIP3   OH265361   5.648   0.957   6.651 -0.5006 -0.3632 -0.4166
14649TIP3    H165362   5.699   0.893   6.702 -0.7912 -0.0346  0.3040
14649TIP3    H265363   5.580   0.905   6.608  0.0484 -0.7158 -0.8777
14650TIP3   OH265364   0.950   2.472   1.719 -0.0723 -0.2557 -0.3268
14650TIP3    H165365   0.867   2.442   1.681 -1.2011  1.6475  0.4524
14650TIP3    H265366   0.942   2.452   1.813 -0.7192  1.9563  0.1598
14651TIP3   OH265367   5.192   1.163  13.141  0.4280  0.3898  0.3696
14651TIP3    H165368   5.260   1.185  13.077  0.3860  1.1842  0.5864
14651TIP3    H265369   5.195   1.234  13.205  0.7713 -0.6239  1.5132
14652TIP3   OH265370   4.791   3.370  10.788 -0.8775  0.4888 -0.6624
14652TIP3    H165371   4.848   3.414  10.725  2.1918 -2.0080  0.1519
14652TIP3    H265372   4.730   3.319  10.734 -0.9184  1.4396 -1.5529
14653TIP3   OH265373   2.721   0.711   1.888 -0.3469 -0.1826 -0.0145
14653TIP3    H165374   2.742   0.738   1.978 -0.7204 -1.4426  0.4738
14653TIP3    H265375   2.627   0.697   1.889 -0.0062 -3.0147  0.2441
14654TIP3   OH265376   4.719   1.036   0.767 -0.0743  0.2203 -0.3137
14654TIP3    H165377   4.629   1.035   0.799 -1.3000  1.7430 -3.3062
14654TIP3    H265378   4.772   1.023   0.845 -2.8380 -0.1044  1.6733
14655TIP3   OH265379   1.274   1.227  12.282  0.5980  0.0447  0.8060
14655TIP3    H165380   1.297   1.173  12.357 -0.8953 -0.7330  0.7305
14655TIP3    H265381   1.317   1.311  12.300 -0.1653  0.0662  2.8080
14656TIP3   OH265382   2.183   2.705   6.161 -0.7471  0.4989 -0.0945
14656TIP3    H165383   2.119   2.769   6.130 -0.2705  0.5057 -1.1170
14656TIP3    H265384   2.223   2.671   6.081  1.2872  1.2713  0.5442
14657TIP3   OH265385   1.203   0.634  15.664  0.2814 -0.3892  0.3060
14657TIP3    H165386   1.172   0.568  15.727  0.6325 -1.0827 -0.2395
14657TIP3    H265387   1.224   0.585  15.585 -1.5166  0.6260 -0.8899
14658TIP3   OH265388   2.187   4.158  12.281 -0.1251 -0.0820 -0.1779
14658TIP3    H165389   2.107   4.200  12.311 -0.9496 -0.7846 -1.2820
14658TIP3    H265390   2.199   4.191  12.192 -0.6330 -1.8939 -0.9666
14659TIP3   OH265391   3.595   6.553   1.065 -0.0144  0.1966 -0.4160
14659TIP3    H165392   3.656   6.545   1.139 -1.5809 -0.3802  0.8777
14659TIP3    H265393   3.508   6.542   1.105 -0.8705 -1.0266 -2.4910
14660TIP3   OH265394   4.913   3.794   0.375 -0.2254  0.3223 -0.0943
14660TIP3    H165395   4.978   3.860   0.351  1.5747 -2.1190 -2.5562
14660TIP3    H265396   4.853   3.840   0.434  2.2603  3.4186  0.3029
14661TIP3   OH265397   1.099   5.600   3.874  0.2790 -0.3841 -0.0457
14661TIP3    H165398   1.070   5.513   3.848 -0.2922  0.1171 -1.1630
14661TIP3    H265399   1.041   5.660   3.827  0.0030  0.5967  1.4793
14662TIP3   OH265400   1.740   1.569   3.098  0.4213  0.9476 -0.1161
14662TIP3    H165401   1.821   1.617   3.082  0.8824 -0.4157 -2.2999
14662TIP3    H265402   1.675   1.613   3.044 -0.4241  2.2066  1.8372
14663TIP3   OH265403   4.728   3.698   5.974 -0.4499 -0.3615 -0.5952
14663TIP3    H165404   4.795   3.666   5.913 -0.9590 -0.7408 -0.9593
14663TIP3    H265405   4.754   3.660   6.058  0.9925  1.2082 -0.2729
14664TIP3   OH265406   1.243   4.518  16.874  0.2118 -0.5128  0.2039
14664TIP3    H165407   1.165   4.463  16.870 -1.1820  1.4528 -1.7267
14664TIP3    H265408   1.314   4.463  16.842 -0.7390 -1.7402  0.1622
14665TIP3   OH265409   6.281   2.663  11.910 -0.0448 -0.2721  0.6384
14665TIP3    H165410   6.191   2.657  11.876  0.1206 -0.5531  0.2365
14665TIP3    H265411   6.312   2.573  11.909  0.8847  0.0207 -1.0143
14666TIP3   OH265412   5.883   6.237   2.671 -0.4598  0.3121  0.1047
14666TIP3    H165413   5.972   6.272   2.684 -0.0169  0.1603 -2.0403
14666TIP3    H265414   5.826   6.313   2.678  0.0205  0.6862  0.0132
14667TIP3   OH265415   6.113   5.352  10.565 -0.9981  0.0513  0.0657
14667TIP3    H165416   6.025   5.389  10.571 -0.9337 -0.0202  3.2381
14667TIP3    H265417   6.168   5.425  10.536 -1.8601  0.4988 -0.4775
14668TIP3   OH265418   6.627   0.406   5.647  0.3767 -0.5086  0.2862
14668TIP3    H165419   6.571   0.333   5.672 -0.6058 -0.2462 -1.0567
14668TIP3    H265420   6.703   0.399   5.706 -1.1053 -0.7779  2.2700
14669TIP3   OH265421   1.444   1.317  14.063 -0.2573 -0.1920 -0.1553
14669TIP3    H165422   1.467   1.233  14.025 -0.7460  0.2257 -1.4068
14669TIP3    H265423   1.522   1.371  14.050 -1.0342  0.5078 -2.2849
14670TIP3   OH265424   0.325   1.179  12.581  0.3097 -0.0386  0.0615
14670TIP3    H165425   0.411   1.149  12.552  0.2737  0.2706 -0.3821
14670TIP3    H265426   0.339   1.211  12.670  1.0737  1.7396 -0.6540
14671TIP3   OH265427   2.712   0.683  16.843 -0.2404  0.1120 -0.4101
14671TIP3    H165428   2.680   0.642  16.763 -3.0930  0.6307  0.3777
14671TIP3    H265429   2.708   0.614  16.909  1.0477 -0.0035 -0.4146
14672TIP3   OH265430   0.559   3.114  13.551  0.7890  0.5878  0.0098
14672TIP3    H165431   0.561   3.209  13.559  0.6728  0.6943 -1.0845
14672TIP3    H265432   0.466   3.092  13.555  0.8237  0.5066  0.3853
14673TIP3   OH265433   1.569   2.256  12.022  0.7562  0.4928 -0.1977
14673TIP3    H165434   1.483   2.287  12.048 -0.2264 -1.4583 -0.9254
14673TIP3    H265435   1.569   2.263  11.926  1.0804 -0.3300 -0.2608
14674TIP3   OH265436   3.026   2.451  10.853 -0.4357  0.0913 -0.1625
14674TIP3    H165437   3.105   2.437  10.905 -0.1805  2.7577  0.3297
14674TIP3    H265438   3.040   2.400  10.774  1.8478  0.5817 -0.1451
14675TIP3   OH265439   6.523   6.102   5.459  0.2160 -0.5438  0.9201
14675TIP3    H165440   6.437   6.121   5.498  1.8475 -0.5190  5.0594
14675TIP3    H265441   6.534   6.169   5.392 -2.6337 -0.0237  0.8514
14676TIP3   OH265442   5.901   6.801  16.593  0.4131  0.6327 -0.5064
14676TIP3    H165443   5.942   6.728  16.640 -0.3666  1.0128  0.8330
14676TIP3    H265444   5.815   6.767  16.567 -0.0002  1.0898  0.2278
14677TIP3   OH265445   1.039   1.480   0.900  0.2966  0.3877  0.0245
14677TIP3    H165446   1.018   1.573   0.892  1.1993  0.7555  1.4277
14677TIP3    H265447   1.134   1.478   0.914  0.4845 -0.8466 -1.1997
14678TIP3   OH265448   6.472   3.390  14.505  0.4023  0.0358 -0.2069
14678TIP3    H165449   6.521   3.399  14.423 -1.0832  0.7243 -1.0573
14678TIP3    H265450   6.403   3.456  14.499  1.3229  1.4036  2.4223
14679TIP3   OH265451   5.251   5.290  16.320  0.1929 -0.6516  0.1518
14679TIP3    H165452   5.163   5.252  16.331 -0.3505  1.1091  2.5711
14679TIP3    H265453   5.235   5.382  16.302  1.5743 -0.6375 -1.2032
14680TIP3   OH265454   5.498   2.998   1.684 -0.1202 -0.5211  0.5287
14680TIP3    H165455   5.426   3.047   1.644  0.7903  0.8659  0.4980
14680TIP3    H265456   5.515   3.044   1.767  0.7837 -0.7645  0.4935
14681TIP3   OH265457   6.414   1.600   3.289 -0.4976  0.2178 -0.2413
14681TIP3    H165458   6.482   1.600   3.223 -0.4294  0.5637 -0.1712
14681TIP3    H265459   6.454   1.555   3.364 -0.6159 -0.2775 -0.4728
14682TIP3   OH265460   0.130   6.021   6.341  0.0727  0.2479 -0.3050
14682TIP3    H165461   0.127   5.983   6.429 -2.5428  0.2242 -0.3500
14682TIP3    H265462   0.187   5.961   6.292 -2.0939 -2.4380  0.2264
14683TIP3   OH265463   0.851   1.887  16.408 -0.3663 -0.4535 -0.3917
14683TIP3    H165464   0.905   1.915  16.482 -0.8379 -0.2113 -0.1398
14683TIP3    H265465   0.767   1.929  16.422 -1.6430 -3.1832  0.8508
14684TIP3   OH265466   2.961   4.746   1.436  0.2020 -0.7228  0.2438
14684TIP3    H165467   2.865   4.749   1.428  0.1744  0.1784  0.8406
14684TIP3    H265468   2.993   4.759   1.346 -0.2257 -1.7999 -0.0902
14685TIP3   OH265469   5.348   3.085   5.397  0.0723 -0.0464  0.7421
14685TIP3    H165470   5.433   3.119   5.369  0.3516 -1.7689 -0.7393
14685TIP3    H265471   5.370   3.022   5.467 -0.0675  0.1118  0.9287
14686TIP3   OH265472   5.893   4.130  12.597 -0.1141 -0.5308  0.6514
14686TIP3    H165473   5.964   4.185  12.628  0.6400 -0.5905 -0.8933
14686TIP3    H265474   5.925   4.040  12.608  0.2774 -0.5468 -0.5124
14687TIP3   OH265475   2.087   2.765   2.007  0.4727 -0.0641 -0.1630
14687TIP3    H165476   2.103   2.834   2.070 -0.5457  0.2332 -0.2164
14687TIP3    H265477   2.109   2.804   1.922 -1.5135  0.7303 -0.3663
14688TIP3   OH265478   0.675   0.344  10.815  0.1960  0.1413 -0.1148
14688TIP3    H165479   0.711   0.257  10.798  0.1466  0.1569 -0.3079
14688TIP3    H265480   0.740   0.404  10.780 -0.4124  0.1564 -1.2867
14689TIP3   OH265481   3.120   3.283  15.512  0.9993  0.0011 -0.3236
14689TIP3    H165482   3.140   3.200  15.469 -1.5548 -0.2036 -1.2693
14689TIP3    H265483   3.109   3.260  15.604  2.6747 -0.2308 -0.1410
14690TIP3   OH265484   4.140   2.711   4.056 -0.2374  0.1166  0.4363
14690TIP3    H165485   4.085   2.745   4.126  0.2459 -0.6541  1.2000
14690TIP3    H265486   4.175   2.629   4.090 -0.0750 -0.3220 -0.7461
14691TIP3   OH265487   1.683   3.863  12.753 -0.1014 -0.1989 -0.3303
14691TIP3    H165488   1.705   3.852  12.846 -1.1269  4.0426  0.6423
14691TIP3    H265489   1.757   3.913  12.717 -0.7548  0.1734 -1.1801
14692TIP3   OH265490   2.746   4.309   2.970  0.4235 -0.1216 -0.1061
14692TIP3    H165491   2.728   4.252   3.045 -0.7321 -0.6576 -0.7663
14692TIP3    H265492   2.837   4.289   2.948  0.1533 -1.5003 -0.1172
14693TIP3   OH265493   3.046   0.291  15.095 -0.2716  0.6782  0.0406
14693TIP3    H165494   3.063   0.245  15.177 -1.2150 -0.3334 -0.3070
14693TIP3    H265495   3.110   0.254  15.034 -1.7000 -1.0368 -0.5177
14694TIP3   OH265496   4.075   4.625   0.681 -0.1355 -0.2221 -0.0585
14694TIP3    H165497   4.061   4.654   0.771  2.1863 -1.7031  0.8637
14694TIP3    H265498   4.118   4.699   0.639 -0.5106  0.1903  0.2705
14695TIP3   OH265499   0.150   1.591   0.445 -0.9330 -0.0241  0.3768
14695TIP3    H165500   0.124   1.499   0.457 -0.2057 -0.3308 -0.3616
14695TIP3    H265501   0.130   1.609   0.354  0.5536  0.0206  0.0494
14696TIP3   OH265502   4.402   3.331  15.910 -0.4478  0.6712  0.2186
14696TIP3    H165503   4.327   3.382  15.940  0.6969  2.6045 -0.0664
14696TIP3    H265504   4.377   3.301  15.823 -1.0094  1.0542  0.2409
14697TIP3   OH265505   5.803   1.022   3.489  0.1119  0.5375 -0.1643
14697TIP3    H165506   5.844   0.935   3.491 -0.3363  0.3199 -0.2861
14697TIP3    H265507   5.873   1.082   3.516  0.0618 -0.0059  1.2729
14698TIP3   OH265508   6.219   0.635   6.268  0.1110  0.1288 -0.9604
14698TIP3    H165509   6.205   0.561   6.326  0.4218 -0.4511 -1.6153
14698TIP3    H265510   6.169   0.706   6.307 -0.7127 -0.6021 -0.6748
14699TIP3   OH265511   0.014   4.174   4.240  0.0032  0.4048  0.0436
14699TIP3    H165512  -0.001   4.095   4.291  0.0759  0.0867 -0.4140
14699TIP3    H265513   0.108   4.191   4.250 -0.0874  0.6581  0.4600
14700TIP3   OH265514   0.779   3.854   2.837  0.0774  0.0101  0.6374
14700TIP3    H165515   0.855   3.887   2.885  0.0700 -0.1021  0.7239
14700TIP3    H265516   0.810   3.774   2.795 -0.4859 -0.9915  2.0829
14701TIP3   OH265517   6.283   0.838   1.743 -0.3081  0.0516 -1.0753
14701TIP3    H165518   6.332   0.862   1.665 -0.5649 -0.5708 -1.4365
14701TIP3    H265519   6.197   0.813   1.711 -0.2930 -0.5900 -0.6417
14702TIP3   OH265520   1.619   0.617   1.383 -0.1040  0.0186  0.2901
14702TIP3    H165521   1.544   0.603   1.325 -0.4398  2.0763  0.1702
14702TIP3    H265522   1.600   0.563   1.460 -1.1438 -0.3496 -0.2081
14703TIP3   OH265523   5.587   4.010   0.435 -0.6821 -0.0192  0.0088
14703TIP3    H165524   5.574   4.009   0.529  0.8051 -0.6161  0.2453
14703TIP3    H265525   5.615   3.920   0.413  0.9679  0.5991 -0.6393
14704TIP3   OH265526   0.181   6.390  12.262  0.0270  0.0303 -0.6990
14704TIP3    H165527   0.125   6.466  12.249 -0.0439  0.0736 -0.1563
14704TIP3    H265528   0.138   6.319  12.214 -0.6356 -0.0060 -0.0676
14705TIP3   OH265529   1.247   6.599  15.059 -0.0249  0.1873  0.0253
14705TIP3    H165530   1.187   6.565  15.126 -2.7422  0.9016 -1.8820
14705TIP3    H265531   1.255   6.529  14.996 -0.5087  0.7946 -0.7282
14706TIP3   OH265532   1.521   3.336  13.011  0.8721 -0.3194 -0.1375
14706TIP3    H165533   1.432   3.338  12.975  1.3284  0.4384 -1.3191
14706TIP3    H265534   1.561   3.259  12.972  1.4418  0.6326 -1.5173
14707TIP3   OH265535   6.089   5.439   2.872  0.1176  0.3756 -1.0288
14707TIP3    H165536   6.000   5.408   2.888 -0.2225  2.5090  1.9535
14707TIP3    H265537   6.082   5.490   2.791 -1.0149 -0.5755 -1.5732
14708TIP3   OH265538   2.652   6.437   0.071  0.0542 -0.8341  0.3599
14708TIP3    H165539   2.672   6.344   0.086 -0.1305 -0.9152  0.1243
14708TIP3    H265540   2.726   6.470   0.021  1.0065 -0.3843  2.0315
14709TIP3   OH265541   6.307   4.514  15.433 -0.6053  0.1405 -0.1298
14709TIP3    H165542   6.238   4.573  15.401 -0.9034  0.6169  1.3157
14709TIP3    H265543   6.388   4.563  15.418 -0.7821  0.5754  0.3053
14710TIP3   OH265544   1.067   1.653  13.847  0.4237  0.0852 -0.5157
14710TIP3    H165545   1.095   1.590  13.913  1.2286  2.2117  1.3470
14710TIP3    H265546   0.972   1.654  13.853  0.4837  0.2461  0.6947
14711TIP3   OH265547   1.420   3.040  14.302  0.2229  0.1908  0.0693
14711TIP3    H165548   1.474   2.987  14.243  0.2287 -0.6389  0.8139
14711TIP3    H265549   1.464   3.125  14.303  0.7989 -0.0915 -0.3247
14712TIP3   OH265550   0.894   3.591   3.776 -0.3965  0.1848 -0.0704
14712TIP3    H165551   0.807   3.584   3.736 -0.0746 -0.7714 -0.6302
14712TIP3    H265552   0.911   3.505   3.813 -0.1726  0.7061  1.0909
14713TIP3   OH265553   2.073   1.425  10.779  0.3041  0.1149  0.4582
14713TIP3    H165554   2.053   1.372  10.702  0.9690 -1.1842  1.1611
14713TIP3    H265555   2.168   1.419  10.789  0.4970  1.9807  0.1951
14714TIP3   OH265556   5.490   3.762  17.029 -0.2078  0.1647 -0.6601
14714TIP3    H165557   5.507   3.798  16.942  3.5135  4.0264  1.3114
14714TIP3    H265558   5.567   3.708  17.048 -0.6172 -0.0293  0.5471
14715TIP3   OH265559   6.665   4.148  15.371  0.8966 -0.3000  0.1079
14715TIP3    H165560   6.721   4.075  15.399 -0.4021 -1.0103  0.9990
14715TIP3    H265561   6.576   4.115  15.383  0.2282  0.3330 -2.4039
14716TIP3   OH265562   0.232   2.656   2.815 -0.5183 -0.2816 -0.8002
14716TIP3    H165563   0.145   2.634   2.849 -0.3694 -0.6044 -0.6230
14716TIP3    H265564   0.280   2.573   2.816 -0.4318 -0.2414 -1.5653
14717TIP3   OH265565   1.215   0.627  13.862 -0.8168  0.5244  0.0940
14717TIP3    H165566   1.173   0.566  13.801  0.5505 -0.8475  0.4711
14717TIP3    H265567   1.151   0.638  13.933 -1.4681  0.3061 -0.4555
14718TIP3   OH265568   0.474   2.480  14.388  0.2935  0.3507 -0.1870
14718TIP3    H165569   0.530   2.507  14.315  1.7454  1.0547  1.1239
14718TIP3    H265570   0.486   2.385  14.393  0.8912  0.4150 -0.3166
14719TIP3   OH265571   1.774   4.081  13.900  0.5804  0.4600  0.0431
14719TIP3    H165572   1.807   4.132  13.825  0.6599 -0.3886 -0.5098
14719TIP3    H265573   1.679   4.099  13.900  0.1684 -1.3579 -1.7367
14720TIP3   OH265574   0.707   5.774   1.744  0.5116  0.1194 -0.3174
14720TIP3    H165575   0.620   5.815   1.743  0.6020  0.3729  0.6643
14720TIP3    H265576   0.768   5.847   1.736  0.6447  0.0642  0.1349
14721TIP3   OH265577   3.413   5.002  12.384 -0.2778  0.2491  0.7095
14721TIP3    H165578   3.354   5.076  12.368  0.9318  1.3916  1.2862
14721TIP3    H265579   3.446   4.979  12.297 -1.2371 -0.1198  0.4354
14722TIP3   OH265580   1.694   3.699  14.487  0.0126 -0.4083 -0.3952
14722TIP3    H165581   1.680   3.644  14.410  0.2475  0.1201 -0.8223
14722TIP3    H265582   1.786   3.723  14.483 -0.0011 -0.2825 -0.0064
14723TIP3   OH265583   5.257   4.208  14.667 -0.8411 -0.0117 -0.7677
14723TIP3    H165584   5.196   4.250  14.607 -1.3082  1.3945  0.6165
14723TIP3    H265585   5.212   4.128  14.694 -1.2859  0.1116 -1.1303
14724TIP3   OH265586   0.271   1.809   5.693  0.0193 -0.4051 -0.3888
14724TIP3    H165587   0.194   1.814   5.750  0.7262 -0.5205  0.6070
14724TIP3    H265588   0.241   1.758   5.618 -0.7962 -0.7393  0.1409
14725TIP3   OH265589   3.287   6.002   2.380  0.1158 -0.1105 -0.5989
14725TIP3    H165590   3.309   5.978   2.469  2.1860 -0.4220 -1.1453
14725TIP3    H265591   3.334   6.084   2.365 -1.5355  0.8384 -0.9114
14726TIP3   OH265592   3.072   6.389  16.632 -1.2064  0.1038  0.0440
14726TIP3    H165593   3.162   6.376  16.661  0.0736  3.7975 -1.6680
14726TIP3    H265594   3.035   6.301  16.627  2.9594 -1.8028 -1.2081
14727TIP3   OH265595   3.976   4.323  12.830  0.0823  0.0902 -0.8224
14727TIP3    H165596   3.958   4.307  12.923 -0.2956  0.4009 -0.8420
14727TIP3    H265597   4.071   4.326  12.825  0.0993  0.7353 -0.3250
14728TIP3   OH265598   2.068   0.637   2.969  0.0807 -0.8153  1.1577
14728TIP3    H165599   1.979   0.604   2.972  0.3746 -1.5811  1.9921
14728TIP3    H265600   2.121   0.561   2.945  0.4259 -0.1618 -0.2403
14729TIP3   OH265601   1.127   2.185  12.348 -0.2726  0.1215 -0.0154
14729TIP3    H165602   1.063   2.200  12.417  1.0148 -3.1748  2.1677
14729TIP3    H265603   1.212   2.203  12.389  0.4507  0.5511 -1.5846
14730TIP3   OH265604   2.102   4.237  16.041 -0.3878 -0.2097  0.4478
14730TIP3    H165605   2.083   4.279  15.957  1.2637  1.2380  0.7513
14730TIP3    H265606   2.031   4.266  16.098 -0.4459  0.3995  0.0778
14731TIP3   OH265607   3.080   6.775  13.129  0.0320 -0.2434 -0.1249
14731TIP3    H165608   3.135   6.740  13.199 -0.8270 -0.2859  0.5356
14731TIP3    H265609   3.018   6.706  13.109 -1.8642  0.9174  1.3929
14732TIP3   OH265610   3.149   6.127   3.327 -0.1518  1.0044 -0.4068
14732TIP3    H165611   3.073   6.070   3.314 -0.0382  1.0423 -1.2674
14732TIP3    H265612   3.152   6.141   3.422 -0.7042  0.2989 -0.2755
14733TIP3   OH265613   4.594   1.150  16.762 -0.3311  0.3630 -0.1892
14733TIP3    H165614   4.661   1.118  16.701 -0.3855 -1.5396  0.6915
14733TIP3    H265615   4.543   1.072  16.785  0.2067  0.8242  2.9151
14734TIP3   OH265616   6.104   4.798   4.181 -0.1333 -0.3179  0.0479
14734TIP3    H165617   6.034   4.849   4.140 -0.2247 -1.2842 -1.0664
14734TIP3    H265618   6.185   4.840   4.154 -0.2338 -0.2710 -0.1769
14735TIP3   OH265619   2.284   2.846  10.405 -0.2540 -0.0448  0.2994
14735TIP3    H165620   2.295   2.937  10.433  0.6931 -0.0234 -0.1033
14735TIP3    H265621   2.219   2.850  10.335  0.4315  0.4521 -0.3264
14736TIP3   OH265622   6.474   5.156  16.052 -0.5162  0.8109  0.0645
14736TIP3    H165623   6.527   5.197  15.984  0.9853 -1.0009  0.0414
14736TIP3    H265624   6.490   5.208  16.130 -0.0943  1.3220 -0.3544
14737TIP3   OH265625   1.343   0.879  15.360  0.0297 -0.2647  0.0816
14737TIP3    H165626   1.376   0.814  15.297 -0.4271 -1.0423  0.6343
14737TIP3    H265627   1.248   0.873  15.353 -0.0340 -0.7551  1.2409
14738TIP3   OH265628   0.370   6.482   6.257  0.1271  0.0407  0.0012
14738TIP3    H165629   0.439   6.538   6.292 -0.0965  1.8041 -2.1201
14738TIP3    H265630   0.289   6.523   6.287 -0.0238  0.0944 -0.4678
14739TIP3   OH265631   5.203   3.255  13.244  0.3399  0.0252  0.3034
14739TIP3    H165632   5.186   3.196  13.171  0.0399 -0.9957  1.1755
14739TIP3    H265633   5.285   3.223  13.282  0.1808  0.1715  0.7745
14740TIP3   OH265634   2.287   1.105   2.241  0.0578 -0.1746  0.7995
14740TIP3    H165635   2.316   1.185   2.285  1.0765 -0.8092  1.3191
14740TIP3    H265636   2.209   1.132   2.193  1.3634  1.6032 -0.5224
14741TIP3   OH265637   0.095   6.269   6.672 -0.2200  0.5199  0.1434
14741TIP3    H165638   0.066   6.306   6.588 -1.5067 -0.4080  0.1396
14741TIP3    H265639   0.051   6.322   6.738 -1.2423 -0.3152  0.1575
14742TIP3   OH265640   6.754   5.408  13.116  0.2908 -0.1730 -0.1325
14742TIP3    H165641   6.717   5.451  13.193 -2.5816  0.7007 -1.8294
14742TIP3    H265642   6.815   5.472  13.080  2.5310 -1.0295  1.9081
14743TIP3   OH265643   3.107   1.128   5.049 -0.4015 -0.4709 -0.0958
14743TIP3    H165644   3.078   1.093   4.965  0.5976 -2.6549  0.3755
14743TIP3    H265645   3.106   1.223   5.038 -0.0006 -0.6915 -2.6551
14744TIP3   OH265646   0.569   2.963   1.023  0.1292  0.0771  0.7705
14744TIP3    H165647   0.639   2.934   1.082 -0.0975  1.6808  1.9056
14744TIP3    H265648   0.491   2.919   1.056  0.2015  0.1151  0.9988
14745TIP3   OH265649   2.148   5.537  14.983 -0.3546 -0.0485 -0.2617
14745TIP3    H165650   2.173   5.619  14.942 -0.6646 -0.8834 -2.2274
14745TIP3    H265651   2.200   5.471  14.938 -2.0128 -1.2037 -0.5651
14746TIP3   OH265652   1.577   4.188   4.984 -0.5125 -0.5173  0.5625
14746TIP3    H165653   1.488   4.222   4.985 -0.0199  0.8429  1.3883
14746TIP3    H265654   1.625   4.247   4.926  0.0199 -0.7469  0.7542
14747TIP3   OH265655   3.357   6.133   4.264  0.0555  0.5994 -0.3563
14747TIP3    H165656   3.337   6.154   4.173  0.1327 -1.7079 -0.9658
14747TIP3    H265657   3.272   6.128   4.307 -0.0985 -0.1543 -0.7482
14748TIP3   OH265658   2.471   5.540  14.234 -0.4197 -0.2970 -0.2711
14748TIP3    H165659   2.521   5.606  14.282  0.2509 -0.3441 -0.8944
14748TIP3    H265660   2.536   5.475  14.209 -1.1959 -1.6583  1.0646
14749TIP3   OH265661   2.312   5.544  12.091  0.7844  0.5295  0.1076
14749TIP3    H165662   2.222   5.576  12.101  0.1298 -1.0092 -0.5260
14749TIP3    H265663   2.310   5.456  12.127  1.7772  0.0990 -0.8353
14750TIP3   OH265664   5.881   3.524   6.059  0.5330  0.4026 -0.1070
14750TIP3    H165665   5.810   3.545   6.119  1.2434 -1.4900  1.5078
14750TIP3    H265666   5.956   3.572   6.093  0.7029  0.1051 -0.0559
14751TIP3   OH265667   3.102   5.650   6.117  0.8667  0.5349 -0.3149
14751TIP3    H165668   3.065   5.647   6.205  0.6319 -0.6385 -0.4404
14751TIP3    H265669   3.189   5.611   6.127  0.4822 -0.4518 -0.7689
14752TIP3   OH265670   0.790   5.602   4.839  0.0243  0.0471 -0.5031
14752TIP3    H165671   0.774   5.694   4.861  1.3163  0.2114 -0.1926
14752TIP3    H265672   0.711   5.575   4.791 -0.6050  1.1542 -0.1337
14753TIP3   OH265673   2.014   1.551  10.488  0.2160 -0.7742  0.3603
14753TIP3    H165674   2.028   1.641  10.518 -0.4809 -0.4819 -0.1731
14753TIP3    H265675   2.092   1.530  10.437  0.2494 -0.3700  0.2457
14754TIP3   OH265676   5.736   1.718  13.303 -0.5854 -0.4093  0.4216
14754TIP3    H165677   5.664   1.660  13.277 -1.9417  1.7041 -0.8422
14754TIP3    H265678   5.714   1.747  13.391 -1.0510 -0.1084  0.2061
14755TIP3   OH265679   5.815   0.306   1.696 -0.4976  0.1310 -0.6450
14755TIP3    H165680   5.909   0.321   1.712  0.0062 -2.2872 -1.0406
14755TIP3    H265681   5.773   0.332   1.777  0.7100 -0.3200  0.1578
14756TIP3   OH265682   6.422   3.839  11.145 -0.3306 -0.1379 -0.2487
14756TIP3    H165683   6.404   3.929  11.116 -1.4374 -0.4886 -0.7023
14756TIP3    H265684   6.497   3.812  11.093 -1.9083 -0.5504 -2.4571
14757TIP3   OH265685   6.560   2.468   5.235 -0.1141  0.2592 -0.6968
14757TIP3    H165686   6.590   2.517   5.312 -0.5548  0.0470 -0.3869
14757TIP3    H265687   6.465   2.467   5.243 -0.0915 -1.3344 -0.2664
14758TIP3   OH265688   5.019   3.154  13.955  0.7868 -0.1039  0.5192
14758TIP3    H165689   5.053   3.224  14.010 -0.8022  0.3177  0.9965
14758TIP3    H265690   5.026   3.075  14.009 -0.2972  0.2226  1.1554
14759TIP3   OH265691   3.803   3.298   0.814  0.0050  0.3581  0.5418
14759TIP3    H165692   3.777   3.215   0.855 -3.0319  0.2659 -1.2554
14759TIP3    H265693   3.806   3.361   0.887  1.9765 -1.1417  1.8730
14760TIP3   OH265694   3.432   3.968   5.576 -0.1606  0.6563  0.1880
14760TIP3    H165695   3.502   4.011   5.528 -1.5217  2.1496 -0.5404
14760TIP3    H265696   3.477   3.907   5.635  1.7955  2.2127  0.4055
14761TIP3   OH265697   2.570   3.603   2.905 -0.7138  0.0357 -0.1275
14761TIP3    H165698   2.503   3.667   2.881  0.2340  0.7057 -1.0213
14761TIP3    H265699   2.601   3.632   2.991 -0.2661  0.8014 -0.5425
14762TIP3   OH265700   2.048   5.636  16.660  0.0121  0.2230 -0.0469
14762TIP3    H165701   2.015   5.546  16.651 -0.0694  0.3534 -1.3886
14762TIP3    H265702   2.088   5.654  16.575  1.1467  1.0288  0.6387
14763TIP3   OH265703   0.718   3.007  17.061 -0.0842  0.1708 -0.0019
14763TIP3    H165704   0.689   2.933  17.115 -0.4373 -0.8839 -1.5767
14763TIP3    H265705   0.784   2.971  17.003 -1.0108  0.8114 -1.5229
14764TIP3   OH265706   2.956   6.523   2.922 -0.0111 -0.0300 -0.5924
14764TIP3    H165707   3.010   6.444   2.919  0.0717  0.0202 -0.4235
14764TIP3    H265708   2.956   6.549   3.014 -0.0361  0.1681 -0.6475
14765TIP3   OH265709   5.947   6.478   0.856  0.7942  0.0906 -0.0181
14765TIP3    H165710   5.864   6.497   0.810 -0.1139  1.2483  1.9639
14765TIP3    H265711   5.938   6.387   0.884  0.7058 -0.1518 -0.7945
14766TIP3   OH265712   4.828   2.348  13.792 -0.2160  0.1083  0.6711
14766TIP3    H165713   4.748   2.388  13.758 -0.3327  0.9477  1.8496
14766TIP3    H265714   4.827   2.368  13.886  1.1147 -0.3298  0.8101
14767TIP3   OH265715   1.172   3.000   4.886 -0.0526 -0.0506  0.2782
14767TIP3    H165716   1.170   2.908   4.862  0.0403 -0.2865  1.1346
14767TIP3    H265717   1.093   3.014   4.938 -1.4037  0.9768 -1.9004
14768TIP3   OH265718   1.494   0.216   1.727 -0.1118  0.3355 -0.1099
14768TIP3    H165719   1.540   0.153   1.670 -0.6790  0.5217 -0.7860
14768TIP3    H265720   1.547   0.219   1.807  2.3286  2.1836 -1.6487
14769TIP3   OH265721   2.684   2.343   1.701  0.6778  0.1252 -0.1420
14769TIP3    H165722   2.628   2.274   1.668  0.8712 -0.8383  1.4570
14769TIP3    H265723   2.749   2.356   1.632  0.6622 -1.3199 -0.4506
14770TIP3   OH265724   2.898   6.496   4.934  0.1769 -0.1964  0.1911
14770TIP3    H165725   2.965   6.472   4.999 -0.5393 -0.7511  0.7428
14770TIP3    H265726   2.854   6.572   4.973  0.2182 -0.0835  0.0169
14771TIP3   OH265727   2.827   6.735   6.120 -0.4882  0.8951  0.6772
14771TIP3    H165728   2.909   6.692   6.145 -1.4480  0.5659  3.6265
14771TIP3    H265729   2.854   6.824   6.093  0.9628  0.2343 -0.1818
14772TIP3   OH265730   5.829   1.632   0.618 -0.2941  0.0848  0.0572
14772TIP3    H165731   5.790   1.706   0.663 -2.1990  0.3931 -1.9391
14772TIP3    H265732   5.803   1.556   0.671 -2.0125  0.4776 -0.1568
14773TIP3   OH265733   0.434   2.360  15.540  0.1868 -0.1531 -0.2213
14773TIP3    H165734   0.530   2.363  15.542  0.2203 -0.0241 -1.4370
14773TIP3    H265735   0.412   2.330  15.452 -0.9185  1.6892 -0.6265
14774TIP3   OH265736   0.908   5.317   1.059  0.5948 -0.0303  0.1817
14774TIP3    H165737   0.975   5.318   1.127  0.6333  0.5670  0.1342
14774TIP3    H265738   0.939   5.251   0.996  1.7939  1.1363 -0.4899
14775TIP3   OH265739   2.224   0.061  11.795 -0.2530  0.0020  0.1501
14775TIP3    H165740   2.293   0.059  11.729 -0.8649  0.9041 -0.5447
14775TIP3    H265741   2.216  -0.030  11.823 -0.2544 -0.4877 -1.3208
14776TIP3   OH265742   4.571   2.228   4.648  0.1376 -0.2120  0.2528
14776TIP3    H165743   4.503   2.219   4.715  1.0489 -0.7020  1.1295
14776TIP3    H265744   4.606   2.316   4.661 -1.5703  0.7925 -1.4343
14777TIP3   OH265745   2.566   1.557   0.234 -0.2804 -0.2737  0.0634
14777TIP3    H165746   2.577   1.490   0.166  0.6124  0.6054 -0.6965
14777TIP3    H265747   2.472   1.564   0.246 -0.4254 -0.9185 -0.6212
14778TIP3   OH265748   4.389   5.240  10.766  0.2062  0.1155 -0.0951
14778TIP3    H165749   4.345   5.208  10.687 -0.6223  0.5320  0.1913
14778TIP3    H265750   4.318   5.268  10.824  0.7538 -1.0708  1.1990
14779TIP3   OH265751   0.759   6.607   3.521  0.1019  0.0997 -0.0777
14779TIP3    H165752   0.726   6.680   3.469  0.1733 -0.4910 -0.9737
14779TIP3    H265753   0.712   6.531   3.488 -2.3560  0.0848  2.9488
14780TIP3   OH265754   6.377   0.441   3.999  0.3427  0.0901 -0.1540
14780TIP3    H165755   6.318   0.395   3.939 -0.3270  0.3239  0.3136
14780TIP3    H265756   6.319   0.486   4.060  0.9289  2.4426 -1.2183
14781TIP3   OH265757   1.519   2.014  15.267  0.0861 -0.5534 -0.5626
14781TIP3    H165758   1.491   2.042  15.354 -1.4913 -2.0651 -0.5379
14781TIP3    H265759   1.471   2.071  15.206 -0.5662 -1.0014 -0.4697
14782TIP3   OH265760   1.019   1.243   5.168  0.3437  0.4203  0.3118
14782TIP3    H165761   1.011   1.338   5.169  0.8461  0.4646 -0.0520
14782TIP3    H265762   1.095   1.224   5.223  0.6933  0.2692 -0.2257
14783TIP3   OH265763   3.132   5.266   3.967 -0.2294  0.1124 -0.3005
14783TIP3    H165764   3.073   5.204   3.924  0.3630  0.0429 -1.0265
14783TIP3    H265765   3.089   5.286   4.050 -1.1989 -0.0587 -0.7458
14784TIP3   OH265766   6.296   6.416   1.700 -0.1825 -0.0644 -0.5112
14784TIP3    H165767   6.332   6.497   1.664 -2.1106  0.0664 -2.2903
14784TIP3    H265768   6.283   6.434   1.793  0.6021  1.2119 -0.6307
14785TIP3   OH265769   6.466   2.278  11.726 -0.6883  0.0627  0.0654
14785TIP3    H165770   6.393   2.218  11.740 -2.0761  1.5971 -0.2629
14785TIP3    H265771   6.439   2.331  11.650  1.8339 -0.9040 -1.6391
14786TIP3   OH265772   5.779   3.515  13.568 -0.3552  0.3124  0.3508
14786TIP3    H165773   5.778   3.492  13.661  0.0773 -0.2895  0.2136
14786TIP3    H265774   5.857   3.470  13.534 -0.7988  0.1142 -0.4081
14787TIP3   OH265775   1.938   3.102   2.646 -0.7666  0.5168 -0.4974
14787TIP3    H165776   1.973   3.152   2.720 -0.6983  1.2617 -1.0116
14787TIP3    H265777   1.922   3.015   2.681  1.8924  0.0234 -0.3044
14788TIP3   OH265778   0.021   6.232  13.635 -0.2805 -0.1173  0.7532
14788TIP3    H165779   0.006   6.171  13.562  0.4175  0.3066  0.2326
14788TIP3    H265780   0.050   6.177  13.707 -0.5616 -0.4993  0.5792
14789TIP3   OH265781   2.181   4.715   6.240 -0.5346  0.0731 -0.1844
14789TIP3    H165782   2.146   4.756   6.320  0.2025  0.3277  0.0212
14789TIP3    H265783   2.159   4.622   6.249  2.1512 -0.4982  1.8418
14790TIP3   OH265784   3.670   0.456   4.446  0.2544 -0.1372  0.4281
14790TIP3    H165785   3.743   0.495   4.496  1.4883 -1.0060 -0.6485
14790TIP3    H265786   3.636   0.529   4.394  1.4869 -0.0677 -0.3405
14791TIP3   OH265787   2.681   6.511   2.910  0.2553 -0.2080 -1.0859
14791TIP3    H165788   2.640   6.566   2.977 -1.7299 -0.6881 -1.8433
14791TIP3    H265789   2.775   6.520   2.927 -0.0529  2.0226 -0.0901
14792TIP3   OH265790   4.811   5.328   0.777 -0.6619  0.4960  0.1105
14792TIP3    H165791   4.858   5.411   0.777 -1.0428  0.7157 -0.1085
14792TIP3    H265792   4.802   5.306   0.685  0.8725 -0.6237  0.1915
14793TIP3   OH265793   6.651   3.960  13.912  0.3442  0.4152 -0.2681
14793TIP3    H165794   6.633   4.002  13.996  0.0793  0.1914 -0.2104
14793TIP3    H265795   6.747   3.956  13.907  0.4192 -1.8925  1.2409
14794TIP3   OH265796   6.793   6.216  11.722 -0.0258  0.0729 -0.7550
14794TIP3    H165797   6.740   6.161  11.664 -3.0302 -0.8992  2.4949
14794TIP3    H265798   6.859   6.157  11.758 -1.6140 -0.8603  0.7744
14795TIP3   OH265799   2.012   5.317  10.889  0.5520  0.4867 -0.3552
14795TIP3    H165800   1.923   5.340  10.917  0.4840  0.7373 -0.7789
14795TIP3    H265801   2.003   5.291  10.798  1.2654  2.8460 -1.1643
14796TIP3   OH265802   3.232   4.649  15.481  0.1705 -0.0772 -0.2246
14796TIP3    H165803   3.259   4.596  15.407 -2.3437 -0.3745 -1.0487
14796TIP3    H265804   3.212   4.586  15.550  0.1200  0.0191 -0.1510
14797TIP3   OH265805   4.371   2.443   1.724 -0.4848  0.1790 -0.4757
14797TIP3    H165806   4.402   2.419   1.812  0.9322 -1.0419 -1.2675
14797TIP3    H265807   4.291   2.392   1.712  0.2676 -1.0313 -0.5385
14798TIP3   OH265808   2.651   2.565   4.176  0.7165  0.4850 -0.3056
14798TIP3    H165809   2.626   2.627   4.244 -0.4901 -0.4561  0.1379
14798TIP3    H265810   2.674   2.485   4.223 -1.2882 -0.5731 -1.0050
14799TIP3   OH265811   5.409   2.182   6.381 -0.4033  0.1987  0.4326
14799TIP3    H165812   5.345   2.216   6.318 -1.6075 -0.5678  1.1937
14799TIP3    H265813   5.439   2.259   6.428  0.3816  0.7660 -0.9193
14800TIP3   OH265814   6.323   5.356  15.608 -0.6513  0.2900  0.1007
14800TIP3    H165815   6.308   5.420  15.538 -0.0220  0.6906  0.3257
14800TIP3    H265816   6.388   5.296  15.573  1.5452  1.9023  1.1733
14801TIP3   OH265817   5.914   2.942   2.750 -0.1996 -0.4447 -0.1582
14801TIP3    H165818   5.967   2.994   2.810 -0.3706 -0.2675 -0.1603
14801TIP3    H265819   5.893   3.002   2.678  0.6219 -0.8541 -0.7655
14802TIP3   OH265820   3.551   5.636   4.423  0.5712 -0.0772  0.6042
14802TIP3    H165821   3.572   5.569   4.358 -1.4236 -0.3071  0.1391
14802TIP3    H265822   3.465   5.669   4.397  0.5797  1.1942  2.0317
14803TIP3   OH265823   1.089   3.007   5.236 -0.1278 -0.8646  0.4990
14803TIP3    H165824   1.073   2.929   5.289 -0.3617 -0.6368  0.7620
14803TIP3    H265825   1.022   3.003   5.168  0.5107 -1.4511 -0.1233
14804TIP3   OH265826   5.732   2.417   1.278  0.8448  0.2488 -0.0336
14804TIP3    H165827   5.817   2.375   1.266  0.8658 -0.3717  1.8964
14804TIP3    H265828   5.724   2.427   1.373 -0.9376  0.9477 -0.2234
14805TIP3   OH265829   3.654   6.337  12.749  0.0659 -0.3264  1.2442
14805TIP3    H165830   3.618   6.413  12.704  1.7749  0.6102  1.3617
14805TIP3    H265831   3.695   6.285  12.680 -0.3006 -0.6875  1.2896
14806TIP3   OH265832   6.467   4.101  14.918  0.5010 -0.6881  0.4384
14806TIP3    H165833   6.526   4.026  14.917 -2.6654 -3.5875 -3.2213
14806TIP3    H265834   6.394   4.074  14.974 -0.4197 -0.1530 -0.4634
14807TIP3   OH265835   6.251   5.528   0.171 -0.0991  0.4851  0.5362
14807TIP3    H165836   6.277   5.513   0.080  2.9718 -1.3403  1.5432
14807TIP3    H265837   6.245   5.623   0.179  0.8590  0.7391 -1.2976
14808TIP3   OH265838   6.149   2.076  15.290  0.2338  0.0705 -0.0489
14808TIP3    H165839   6.223   2.016  15.286 -1.2350 -1.8460 -0.2578
14808TIP3    H265840   6.180   2.157  15.248  2.4954 -0.2697  0.8594
14809TIP3   OH265841   0.840   0.232  15.782  0.5076 -1.2365 -0.5716
14809TIP3    H165842   0.776   0.272  15.840  0.5094 -1.5500 -0.3496
14809TIP3    H265843   0.842   0.140  15.808 -0.0520 -1.5492 -1.5826
14810TIP3   OH265844   4.577   3.059   0.380  0.8314 -0.1489  0.1796
14810TIP3    H165845   4.518   3.077   0.307  0.6354 -1.3766  0.0253
14810TIP3    H265846   4.523   3.067   0.458  1.0432  1.1756  0.2316
14811TIP3   OH265847   4.298   2.477  16.387  0.0915 -0.2121  0.3701
14811TIP3    H165848   4.370   2.515  16.336  0.1559  0.4928  0.9685
14811TIP3    H265849   4.243   2.434  16.322  2.2026 -2.7313  0.0749
14812TIP3   OH265850   4.509   4.934  10.721 -0.6271  0.7016  0.3989
14812TIP3    H165851   4.476   4.860  10.771 -1.5678  2.2577  2.2333
14812TIP3    H265852   4.431   4.984  10.696  0.0484  1.9563  0.6968
14813TIP3   OH265853   2.557   2.263   4.753  0.0172  0.2003  0.1793
14813TIP3    H165854   2.564   2.289   4.661 -0.3493 -2.4796 -0.6877
14813TIP3    H265855   2.464   2.243   4.764  0.4799 -2.0837  0.3075
14814TIP3   OH265856   6.661   4.072  13.529  0.2776  0.2343  0.3558
14814TIP3    H165857   6.667   3.988  13.575 -1.1599 -0.0244  0.1178
14814TIP3    H265858   6.742   4.077  13.477  0.4443 -0.9399  0.4774
14815TIP3   OH265859   1.804   1.660  12.355  0.1149  0.8157 -0.0563
14815TIP3    H165860   1.856   1.581  12.342  2.2736  2.4960 -2.7176
14815TIP3    H265861   1.854   1.711  12.420 -1.3659  0.0192  1.7953
14816TIP3   OH265862   6.655   5.538   1.602 -0.3225  0.3683 -0.1374
14816TIP3    H165863   6.578   5.491   1.568 -0.4108  0.5735 -0.2193
14816TIP3    H265864   6.649   5.529   1.697  0.2171 -0.6799 -0.1863
14817TIP3   OH265865   0.038   5.319  14.352  0.3489 -0.6294  0.0310
14817TIP3    H165866   0.043   5.319  14.256  0.9905 -1.4109  0.0461
14817TIP3    H265867  -0.050   5.287  14.371 -0.2643  0.7979 -0.2863
14818TIP3   OH265868   1.563   0.190  14.348 -0.0060 -0.0009 -0.1167
14818TIP3    H165869   1.483   0.140  14.328 -2.3643  2.5694  2.1509
14818TIP3    H265870   1.596   0.216  14.262 -0.7502 -2.2567 -1.1822
14819TIP3   OH265871   4.777   2.914  11.360 -0.1134 -0.2670  0.6995
14819TIP3    H165872   4.766   2.819  11.357 -0.2698 -0.2376  0.2492
14819TIP3    H265873   4.834   2.929  11.435 -1.3600 -0.5880  1.7524
14820TIP3   OH265874   3.220   4.544  11.804 -0.5604  0.4382 -0.3395
14820TIP3    H165875   3.230   4.621  11.748 -0.7636  1.0007  0.3826
14820TIP3    H265876   3.263   4.473  11.756  0.1397  1.1278 -0.7476
14821TIP3   OH265877   0.278   4.266  13.257 -0.1818  0.1761 -0.4561
14821TIP3    H165878   0.243   4.277  13.169  1.5569 -0.1390 -1.2377
14821TIP3    H265879   0.340   4.194  13.250 -3.0662 -2.9046  2.0224
14822TIP3   OH265880   4.872   1.915  13.477  0.1077  0.6436  0.1043
14822TIP3    H165881   4.814   1.985  13.509 -1.2351 -0.3286 -0.0900
14822TIP3    H265882   4.835   1.835  13.514 -0.1091 -0.2677 -1.9082
14823TIP3   OH265883   1.887   5.865  12.210 -0.1557  0.4399 -0.2989
14823TIP3    H165884   1.918   5.927  12.276 -0.9793  0.3777  0.1552
14823TIP3    H265885   1.863   5.920  12.135  0.6789  0.5174 -0.5233
14824TIP3   OH265886   4.700   1.619  13.934 -0.5422 -0.0539  0.5390
14824TIP3    H165887   4.663   1.532  13.921 -1.8301  0.7245 -1.5306
14824TIP3    H265888   4.715   1.652  13.846  1.5072  1.2043  1.3045
14825TIP3   OH265889   4.695   2.156  16.054 -0.0080 -0.7310 -0.3642
14825TIP3    H165890   4.688   2.200  15.970  0.6479 -2.1255 -1.1841
14825TIP3    H265891   4.609   2.168  16.095 -0.2684  0.1312 -1.1338
14826TIP3   OH265892   0.495   0.531   2.461 -0.4575 -0.0066  0.2699
14826TIP3    H165893   0.463   0.597   2.522  0.4420  0.4053  0.3054
14826TIP3    H265894   0.587   0.520   2.484 -0.3442 -0.5241 -0.4150
14827TIP3   OH265895   0.265   5.666  15.083  0.3331 -0.2369  0.4086
14827TIP3    H165896   0.190   5.699  15.134 -0.4351 -0.0654 -0.7937
14827TIP3    H265897   0.335   5.656  15.148 -0.4874  0.3612  1.4282
14828TIP3   OH265898   5.645   5.433   2.118 -0.2456 -0.0249  0.4353
14828TIP3    H165899   5.662   5.517   2.161  0.6988 -0.6044  1.2071
14828TIP3    H265900   5.597   5.457   2.038 -0.1495  1.2303  0.7363
14829TIP3   OH265901   0.646   1.744  13.011 -0.4148  0.2205 -0.1975
14829TIP3    H165902   0.582   1.811  12.989 -1.0395  0.0495  1.0053
14829TIP3    H265903   0.597   1.679  13.061  0.6630  0.0391  0.6754
14830TIP3   OH265904   4.326   5.287   0.086 -0.3905 -0.1284 -0.0735
14830TIP3    H165905   4.320   5.244   0.172  0.2859  1.4659  0.8309
14830TIP3    H265906   4.258   5.354   0.088 -1.3138 -0.9869 -1.3792
14831TIP3   OH265907   1.982   3.604  11.527 -0.1127 -0.1977 -0.2832
14831TIP3    H165908   2.066   3.617  11.571 -0.5627  1.6576  0.1297
14831TIP3    H265909   1.986   3.661  11.450 -0.3272 -1.4344 -1.2255
14832TIP3   OH265910   4.188   0.283  13.015 -0.1466  0.2569  0.3857
14832TIP3    H165911   4.269   0.328  13.039 -0.5056  2.0329 -1.4483
14832TIP3    H265912   4.157   0.244  13.097  0.9076  2.2284  1.8128
14833TIP3   OH265913   5.552   3.984   3.709 -0.2867 -0.2038 -0.1564
14833TIP3    H165914   5.472   4.002   3.759 -0.7453 -0.3484 -0.8131
14833TIP3    H265915   5.572   4.067   3.665  1.1563  0.4644  1.6524
14834TIP3   OH265916   5.359   4.165  16.225  0.0914 -0.4630 -0.4289
14834TIP3    H165917   5.455   4.163  16.224  0.1556  1.2730 -0.2110
14834TIP3    H265918   5.337   4.257  16.211 -1.5251 -0.6290  0.8450
14835TIP3   OH265919   3.878   6.102   0.263 -0.8381  0.2016 -0.0994
14835TIP3    H165920   3.862   6.171   0.198  0.5200 -0.7134 -1.4953
14835TIP3    H265921   3.971   6.109   0.283 -1.0495 -0.1289  1.0921
14836TIP3   OH265922   1.438   3.767  14.552 -0.0471  0.1864 -0.5699
14836TIP3    H165923   1.529   3.785  14.529  0.4195  0.2365  1.1666
14836TIP3    H265924   1.422   3.819  14.631 -2.2716  1.8912 -1.9951
14837TIP3   OH265925   2.932   6.199   2.956 -0.0427 -0.0135 -0.0844
14837TIP3    H165926   2.896   6.201   2.867 -3.8832 -0.9322  1.2214
14837TIP3    H265927   3.004   6.136   2.952 -0.5621 -0.5504 -2.4063
14838TIP3   OH265928   6.295   2.043   3.307  0.0171 -0.0447 -0.3870
14838TIP3    H165929   6.357   1.987   3.354  0.5311 -0.4321 -1.4887
14838TIP3    H265930   6.220   1.986   3.290 -0.0096 -0.0148 -0.3702
14839TIP3   OH265931   4.739   6.404   0.300 -0.5530 -0.0920 -0.2404
14839TIP3    H165932   4.827   6.406   0.336  0.1780 -0.1521 -1.9726
14839TIP3    H265933   4.689   6.353   0.365  0.6099  0.0991  0.8526
14840TIP3   OH265934   6.090   3.620  16.844  0.4548  0.9096  0.2347
14840TIP3    H165935   6.010   3.582  16.807  0.1421  1.4187  0.3718
14840TIP3    H265936   6.089   3.593  16.936  1.3528 -0.5518 -0.1608
14841TIP3   OH265937   5.765   6.267   3.348  0.0844  0.3760 -0.4214
14841TIP3    H165938   5.682   6.283   3.304 -0.1783 -0.5280 -0.2646
14841TIP3    H265939   5.805   6.196   3.298 -0.4124 -0.9760  1.0450
14842TIP3   OH265940   2.602   4.391   4.610 -0.1095  0.2399  0.2895
14842TIP3    H165941   2.582   4.301   4.587  0.3984 -0.3624  2.0248
14842TIP3    H265942   2.571   4.443   4.536  0.4721 -1.4270 -1.1665
14843TIP3   OH265943   6.530   3.875   3.032  0.0791 -0.4678 -0.0492
14843TIP3    H165944   6.554   3.806   2.970 -0.2918 -0.4814 -0.1801
14843TIP3    H265945   6.576   3.853   3.113 -1.1940 -1.6861  0.3814
14844TIP3   OH265946   2.887   5.206   2.492 -0.0739 -0.5452 -0.1622
14844TIP3    H165947   2.898   5.212   2.587  0.2768 -2.6278 -0.0123
14844TIP3    H265948   2.886   5.112   2.475  0.5945 -0.2005 -2.3121
14845TIP3   OH265949   6.002   1.844  13.464  0.1313  0.4212 -0.4661
14845TIP3    H165950   6.017   1.779  13.395 -0.1520  0.4859 -0.5905
14845TIP3    H265951   5.946   1.798  13.528 -0.5871  0.7379 -0.8572
14846TIP3   OH265952   6.120   4.510  15.189 -0.3037 -0.0282  0.2335
14846TIP3    H165953   6.200   4.562  15.175 -0.2793 -0.0932  0.1352
14846TIP3    H265954   6.136   4.428  15.143 -0.0864 -0.3722  0.9044
14847TIP3   OH265955   4.324   5.119  15.655  0.2192  0.4941 -0.5440
14847TIP3    H165956   4.374   5.043  15.685  0.2781  0.5350 -0.5396
14847TIP3    H265957   4.234   5.100  15.679  0.1288  0.1090 -1.1565
14848TIP3   OH265958   0.618   5.075  15.889 -0.2692 -0.2749 -0.2975
14848TIP3    H165959   0.696   5.079  15.945  0.0066 -0.8643 -0.6340
14848TIP3    H265960   0.639   5.128  15.813 -0.1431 -0.5315 -0.4449
14849TIP3   OH265961   3.830   6.165   2.676  0.1958 -0.4354 -0.1103
14849TIP3    H165962   3.823   6.170   2.581 -1.8432 -0.8295 -0.0293
14849TIP3    H265963   3.915   6.205   2.696  0.8657 -0.7517 -2.1069
14850TIP3   OH265964   5.126   3.524   4.264  0.1114 -0.1080 -0.2198
14850TIP3    H165965   5.056   3.516   4.329  0.1217 -0.8806 -0.2925
14850TIP3    H265966   5.082   3.519   4.180  0.0785  1.0866 -0.2825
14851TIP3   OH265967   4.488   0.675  14.482 -0.3511  0.1117  0.0032
14851TIP3    H165968   4.463   0.586  14.457  0.0760  0.0857 -0.3504
14851TIP3    H265969   4.522   0.667  14.571  0.4718 -0.2225 -0.3377
14852TIP3   OH265970   0.388   6.463  16.141 -0.2004 -0.2720 -0.1359
14852TIP3    H165971   0.314   6.505  16.096  0.8590  1.4509 -0.3657
14852TIP3    H265972   0.465   6.507  16.107  0.8081 -0.4642  1.7457
14853TIP3   OH265973   5.708   4.639  15.263 -0.5430  0.2759  0.0192
14853TIP3    H165974   5.646   4.684  15.321 -0.7595  0.7300 -0.5531
14853TIP3    H265975   5.659   4.625  15.182 -0.1076  0.0326 -0.2037
14854TIP3   OH265976   1.776   4.277  16.647  0.5291  0.5474 -0.9921
14854TIP3    H165977   1.764   4.369  16.671  0.3979 -0.0535  1.5712
14854TIP3    H265978   1.818   4.238  16.724 -1.2604 -1.9441 -1.1489
14855TIP3   OH265979   6.678   3.227   1.963 -0.3455 -0.2796  0.0747
14855TIP3    H165980   6.713   3.191   1.882 -1.4697 -1.2672  0.0053
14855TIP3    H265981   6.639   3.311   1.937  0.2844 -0.0545 -0.1791
14856TIP3   OH265982   2.152   3.837   3.105 -0.2759  0.1000  0.1966
14856TIP3    H165983   2.074   3.892   3.096 -0.9512 -1.0122 -1.1025
14856TIP3    H265984   2.221   3.887   3.062 -0.7568  0.1769 -0.4965
14857TIP3   OH265985   5.303   4.885  11.551 -0.8710  0.0411 -0.2544
14857TIP3    H165986   5.300   4.848  11.640  1.4699 -1.4148 -0.6990
14857TIP3    H265987   5.270   4.814  11.495  0.3029 -0.1053 -0.7831
14858TIP3   OH265988   3.122   0.866   5.861  0.4906 -0.0290  0.1468
14858TIP3    H165989   3.147   0.782   5.824  1.2375 -0.4906  1.6169
14858TIP3    H265990   3.199   0.894   5.912  0.4649  1.8009 -0.7375
14859TIP3   OH265991   4.699   0.513  14.082  0.0157  0.2837 -0.1175
14859TIP3    H165992   4.622   0.509  14.025 -0.7171 -0.6455  0.9029
14859TIP3    H265993   4.712   0.606  14.099 -0.4070  0.4971 -0.9010
14860TIP3   OH265994   6.156   3.273   5.675  0.7449 -0.3973  0.0135
14860TIP3    H165995   6.186   3.363   5.688  1.7472 -0.6468 -0.4414
14860TIP3    H265996   6.190   3.225   5.750  1.9215 -0.7665 -0.7148
14861TIP3   OH265997   0.225   3.699  11.830  0.6168 -0.2532  0.2470
14861TIP3    H165998   0.260   3.773  11.779  0.4684  1.2568  2.2091
14861TIP3    H265999   0.131   3.700  11.811  0.8955 -1.3132 -1.3531
14862TIP3   OH266000   6.627   0.727   2.957 -0.6993  0.1725  0.2083
14862TIP3    H166001   6.669   0.682   2.883 -1.3983  1.8049 -1.2394
14862TIP3    H266002   6.561   0.665   2.989  0.6208 -1.1492  0.4777
14863TIP3   OH266003   2.314   6.050   3.793 -0.2202 -0.3986  0.1585
14863TIP3    H166004   2.403   6.021   3.812 -0.0041  0.5807  0.7265
14863TIP3    H266005   2.308   6.048   3.697 -0.7738 -3.8121  0.1471
14864TIP3   OH266006   4.583   1.682   1.374  0.3756 -0.3885  0.3868
14864TIP3    H166007   4.596   1.702   1.282  2.3107 -3.2957 -0.1115
14864TIP3    H266008   4.491   1.657   1.381 -0.2746  1.5895 -0.2776
14865TIP3   OH266009   4.286   6.769  13.578 -0.7993  0.4027  0.0526
14865TIP3    H166010   4.310   6.689  13.530 -1.6461  0.0162  0.2611
14865TIP3    H266011   4.357   6.780  13.642  0.2529  0.8304 -1.1461
14866TIP3   OH266012   2.552   2.097  12.560 -0.4942  0.2589 -0.1643
14866TIP3    H166013   2.588   2.171  12.608 -1.2689  1.4816 -1.3872
14866TIP3    H266014   2.483   2.135  12.506 -2.5593 -1.7194  0.8884
14867TIP3   OH266015   5.121   6.422   6.007 -0.7371  0.3638  0.2005
14867TIP3    H166016   5.200   6.425   6.060  0.9065 -0.4362 -2.0088
14867TIP3    H266017   5.127   6.499   5.951 -1.4373  0.2204 -0.0799
14868TIP3   OH266018   0.896   6.584   0.839 -0.2981 -0.7843 -0.5624
14868TIP3    H166019   0.947   6.665   0.837  1.2028 -1.7073 -1.3690
14868TIP3    H266020   0.904   6.548   0.751  0.0347 -2.3945  0.0818
14869TIP3   OH266021   1.973   0.663  14.725 -0.0119 -0.1686 -0.2631
14869TIP3    H166022   1.970   0.740  14.781 -0.8890 -2.2490  2.7772
14869TIP3    H266023   2.064   0.636  14.725  0.3820  1.0479 -1.7119
14870TIP3   OH266024   3.889   4.581   3.827 -0.0851 -0.1262  0.2306
14870TIP3    H166025   3.928   4.539   3.750  0.7776  0.5653  0.2743
14870TIP3    H266026   3.795   4.576   3.812  0.0665 -0.2120 -0.7522
14871TIP3   OH266027   3.283   4.303  12.108  0.2086  0.0782 -0.1028
14871TIP3    H166028   3.315   4.289  12.019  0.7739 -0.3140  0.1576
14871TIP3    H266029   3.216   4.370  12.099 -1.4690 -1.6411 -1.1699
14872TIP3   OH266030   4.617   2.119   2.578 -0.2039  0.3042  0.5314
14872TIP3    H166031   4.549   2.186   2.572  0.0596  0.4842 -0.7470
14872TIP3    H266032   4.666   2.142   2.657 -0.5770  1.1779  0.5248
14873TIP3   OH266033   3.008   3.317  16.708 -0.3190  0.3758  0.6125
14873TIP3    H166034   3.096   3.353  16.702 -1.0491  2.1031 -0.4408
14873TIP3    H266035   2.951   3.393  16.721 -1.6678 -0.7043  1.2945
14874TIP3   OH266036   4.431   3.006   2.669  0.4933 -0.2585 -0.0495
14874TIP3    H166037   4.500   3.030   2.607 -0.1074 -1.3145 -1.1740
14874TIP3    H266038   4.444   2.912   2.682 -0.0687 -0.2490  0.5862
14875TIP3   OH266039   5.303   5.446   2.934  0.1586 -0.1282  0.4380
14875TIP3    H166040   5.330   5.503   2.862 -0.5479  0.3322  0.5246
14875TIP3    H266041   5.384   5.408   2.967  0.5370 -0.0059 -0.3163
14876TIP3   OH266042   3.979   0.921  14.348  0.0917  0.0722 -0.2022
14876TIP3    H166043   3.928   0.950  14.272 -1.3005  0.4251  0.8260
14876TIP3    H266044   4.065   0.962  14.336  0.1642 -0.5189 -1.9689
14877TIP3   OH266045   2.778   1.238   1.121 -0.5870  0.4663  0.1459
14877TIP3    H166046   2.740   1.236   1.033 -1.2636  1.1411  0.4175
14877TIP3    H266047   2.721   1.181   1.173 -0.0962 -0.0583  0.1229
14878TIP3   OH266048   4.810   6.206  15.842 -0.0280 -0.5261 -0.2936
14878TIP3    H166049   4.863   6.153  15.902  1.4217  1.4944  0.3240
14878TIP3    H266050   4.830   6.297  15.866 -3.8188  0.4006 -0.0466
14879TIP3   OH266051   3.155   0.698  14.940 -1.1177  0.1882 -0.0222
14879TIP3    H166052   3.244   0.665  14.922 -0.5061  1.3973  0.6442
14879TIP3    H266053   3.107   0.622  14.971  0.4836 -0.0089  2.2792
14880TIP3   OH266054   6.508   4.319  15.726 -0.3821  0.4793  0.0109
14880TIP3    H166055   6.430   4.305  15.671 -1.0844 -2.4314  1.5693
14880TIP3    H266056   6.475   4.364  15.803  0.1169  2.0886 -0.6735
14881TIP3   OH266057   4.910   1.528  14.940  0.4655 -0.0950 -0.6143
14881TIP3    H166058   5.002   1.540  14.964  0.0618  0.0762  1.0077
14881TIP3    H266059   4.880   1.456  14.995 -0.6876  0.6891 -0.1797
14882TIP3   OH266060   1.932   2.197  11.662 -0.5392  0.1939  0.1037
14882TIP3    H166061   1.976   2.276  11.632 -0.9913  0.8885  1.2111
14882TIP3    H266062   1.987   2.164  11.733 -1.4033  0.6732  1.0243
14883TIP3   OH266063   3.043   1.029  10.745 -0.4594  0.0843 -0.2548
14883TIP3    H166064   3.061   0.943  10.706 -1.3085 -0.2500  0.0640
14883TIP3    H266065   3.015   1.083  10.672 -2.0322 -0.5340 -0.1465
14884TIP3   OH266066   5.717   2.895   2.356 -0.2305  0.4089 -0.1325
14884TIP3    H166067   5.770   2.933   2.426  1.9064 -0.6217 -1.1201
14884TIP3    H266068   5.666   2.969   2.322 -1.2918  0.9491  2.3892
14885TIP3   OH266069   2.020   6.627  12.898  0.1809  0.1940  0.0408
14885TIP3    H166070   1.987   6.556  12.842 -0.6037  0.4120  0.2135
14885TIP3    H266071   1.968   6.619  12.978  0.4305  0.6654  0.2473
14886TIP3   OH266072   1.038   4.987   4.009 -0.3070  0.2993  0.1645
14886TIP3    H166073   1.112   5.046   4.019 -0.5160  0.3658  1.5940
14886TIP3    H266074   0.970   5.025   4.065 -1.2512 -0.0345 -0.7231
14887TIP3   OH266075   1.653   0.096  15.636  0.0848 -0.5778 -0.1676
14887TIP3    H166076   1.655   0.060  15.724 -0.5512 -0.9016 -0.2788
14887TIP3    H266077   1.565   0.074  15.603  0.2168 -0.2197 -0.7748
14888TIP3   OH266078   5.139   2.830   3.219 -0.0778  0.9232 -0.0637
14888TIP3    H166079   5.197   2.804   3.291  0.6980  1.4498 -0.4814
14888TIP3    H266080   5.199   2.854   3.148 -0.8282  0.6650 -0.7950
14889TIP3   OH266081   2.939   5.179  12.306  0.5661  0.1578 -0.3706
14889TIP3    H166082   2.957   5.151  12.216 -1.6690 -0.1018 -0.7975
14889TIP3    H266083   2.902   5.267  12.297  1.1719  0.5041  0.3950
14890TIP3   OH266084   3.114   6.101   0.440  0.2087  0.5765  0.3358
14890TIP3    H166085   3.135   6.064   0.525  0.2725 -1.4644 -0.5042
14890TIP3    H266086   3.194   6.145   0.412  0.1964  1.2250  1.2731
14891TIP3   OH266087   2.602   2.215   2.989 -0.3058  0.0859  0.1139
14891TIP3    H166088   2.584   2.274   3.061  0.2943  0.7800 -0.2917
14891TIP3    H266089   2.523   2.219   2.934  0.4907  2.1405 -1.0007
14892TIP3   OH266090   0.595   4.168   3.622 -0.5914  0.0981  0.0926
14892TIP3    H166091   0.686   4.139   3.628 -0.6152 -0.1686 -0.6608
14892TIP3    H266092   0.543   4.088   3.626 -0.7022  0.0888 -1.1366
14893TIP3   OH266093   2.684   0.619   0.792  0.1788  0.0182 -0.8926
14893TIP3    H166094   2.707   0.527   0.799  0.4772  0.1105 -0.6505
14893TIP3    H266095   2.676   0.649   0.882  0.7320  0.3895 -0.9607
14894TIP3   OH266096   3.074   6.494  10.797 -0.1239 -0.2677 -0.0886
14894TIP3    H166097   3.069   6.540  10.713  1.0325  0.9550  0.4681
14894TIP3    H266098   3.013   6.542  10.854 -0.0951 -0.4147  0.0681
14895TIP3   OH266099   5.759   6.003  13.862  0.4144  0.0002  0.3871
14895TIP3    H166100   5.777   5.983  13.770  2.6378  1.4419  0.4432
14895TIP3    H266101   5.826   6.066  13.887 -0.1872 -0.2703  2.9996
14896TIP3   OH266102   6.184   4.096   6.509  0.0258 -0.2013  0.3297
14896TIP3    H166103   6.263   4.110   6.457  0.0549  0.1253  0.4596
14896TIP3    H266104   6.203   4.017   6.560 -0.6801 -1.5780 -1.4350
14897TIP3   OH266105   3.507   5.342  12.526  0.2544 -0.2514  0.8077
14897TIP3    H166106   3.514   5.432  12.493  0.9358 -0.0630  1.4374
14897TIP3    H266107   3.557   5.290  12.464 -2.5027 -0.7018 -1.2515
14898TIP3   OH266108   1.469   6.089  10.699  0.5529  0.4737  0.0497
14898TIP3    H166109   1.541   6.039  10.737  0.6290  1.1878  0.8898
14898TIP3    H266110   1.415   6.024  10.653  1.9264 -0.0163 -0.9269
14899TIP3   OH266111   4.523   6.438  12.548  0.0843 -0.8612  0.1074
14899TIP3    H166112   4.606   6.465  12.588 -0.9211  0.2524  1.5602
14899TIP3    H266113   4.495   6.513  12.496 -1.2311 -0.1725  1.7120
14900TIP3   OH266114   1.141   5.626   5.732  0.4042 -0.1059 -0.0651
14900TIP3    H166115   1.137   5.568   5.808  0.8228  0.8918  0.7378
14900TIP3    H266116   1.075   5.693   5.749  0.3479 -0.0014 -0.6831
14901TIP3   OH266117   6.406   2.834  10.284 -0.0983 -0.1603 -0.0110
14901TIP3    H166118   6.466   2.873  10.348 -0.2679  0.4327 -0.2139
14901TIP3    H266119   6.461   2.774  10.233  0.8637  1.9984 -1.6778
14902TIP3   OH266120   6.607   4.458  13.878 -0.3821 -0.1433  0.1769
14902TIP3    H166121   6.691   4.485  13.915 -0.6270  1.1628 -0.1637
14902TIP3    H266122   6.627   4.380  13.826  0.7659  0.5747 -0.4888
14903TIP3   OH266123   2.009   4.694  13.929  0.4651  0.1830  0.0961
14903TIP3    H166124   1.915   4.709  13.930  0.3533 -0.4521 -0.4108
14903TIP3    H266125   2.028   4.665  13.840  0.9705 -0.7276  0.4931
14904TIP3   OH266126   1.621   4.845  12.655 -0.1555  0.2258 -0.2242
14904TIP3    H166127   1.665   4.912  12.603 -1.1820  1.4196  0.3776
14904TIP3    H266128   1.691   4.793  12.692  0.6929  1.2401 -0.3620
14905TIP3   OH266129   2.086   0.302  13.240  0.4494 -0.1737 -0.2396
14905TIP3    H166130   1.994   0.304  13.213  0.1643  0.6975  0.7351
14905TIP3    H266131   2.110   0.209  13.236 -0.4269 -0.3945 -0.6387
14906TIP3   OH266132   1.433   0.861  13.564  0.2106 -0.2826 -0.7074
14906TIP3    H166133   1.525   0.842  13.580 -0.1345 -1.3172  0.1983
14906TIP3    H266134   1.395   0.777  13.537 -0.9582 -0.5396  1.4595
14907TIP3   OH266135   4.555   0.406  12.383  0.4266  0.2744  0.4900
14907TIP3    H166136   4.564   0.495  12.418  1.4612  0.3124  0.1711
14907TIP3    H266137   4.625   0.357  12.425 -1.4943 -1.0133  2.4113
14908TIP3   OH266138   0.871   6.728   2.786 -0.0050 -0.1718  0.1295
14908TIP3    H166139   0.957   6.731   2.745  0.9438 -0.7831  1.9464
14908TIP3    H266140   0.889   6.712   2.879 -1.8336  3.8224  1.4326
14909TIP3   OH266141   0.157   5.347   1.848  0.6017  0.9190  0.5024
14909TIP3    H166142   0.066   5.334   1.874  0.0949 -0.8154 -1.8977
14909TIP3    H266143   0.199   5.379   1.928 -1.9239  1.1098  1.8807
14910TIP3   OH266144   5.406   2.195  13.661 -0.1168  0.1024 -0.0615
14910TIP3    H166145   5.353   2.240  13.726  0.6464 -0.0755  0.7111
14910TIP3    H266146   5.357   2.115  13.641 -0.5005  0.3012  0.0787
14911TIP3   OH266147   5.145   0.017   1.297  0.3555 -0.1160  0.2096
14911TIP3    H166148   5.119   0.095   1.346 -0.9199 -1.7486  2.2912
14911TIP3    H266149   5.085  -0.051   1.327  1.2778 -1.8568 -1.7080
14912TIP3   OH266150   6.680   3.959   0.379  0.4780 -0.6597  0.6683
14912TIP3    H166151   6.655   4.021   0.310  0.6258 -1.2722  0.0494
14912TIP3    H266152   6.627   3.881   0.361 -2.1884  0.3573  3.3728
14913TIP3   OH266153   4.633   1.658  13.221 -0.4450  0.3468  0.5994
14913TIP3    H166154   4.649   1.716  13.147  0.0730  0.4713  0.8021
14913TIP3    H266155   4.590   1.581  13.184  0.9190 -0.1368 -0.0264
14914TIP3   OH266156   3.975   3.151   3.472  0.3172 -0.1190 -0.7431
14914TIP3    H166157   4.051   3.099   3.499  0.1727  0.9339  2.1157
14914TIP3    H266158   3.900   3.094   3.490  0.3316 -0.4735 -1.7698
14915TIP3   OH266159   4.134   0.935   2.492  0.3749  0.1600 -0.2830
14915TIP3    H166160   4.097   0.864   2.439  0.7527  0.1054 -0.4771
14915TIP3    H266161   4.215   0.898   2.527 -0.6560 -0.3718  1.6696
14916TIP3   OH266162   1.767   3.525  15.777 -0.0524 -0.1851 -0.7606
14916TIP3    H166163   1.749   3.615  15.752 -2.4791 -0.3049  0.2449
14916TIP3    H266164   1.735   3.519  15.867  0.7960 -1.8594 -0.5368
14917TIP3   OH266165   0.480   1.134  14.404 -0.1943  0.0560 -0.1887
14917TIP3    H166166   0.505   1.123  14.313 -1.3018 -0.3162 -0.4655
14917TIP3    H266167   0.393   1.175  14.400  0.1207  0.8454  0.7117
14918TIP3   OH266168   4.395   2.143   1.697 -0.2873 -0.2661 -0.0054
14918TIP3    H166169   4.328   2.211   1.706  0.4427  0.3066  1.4466
14918TIP3    H266170   4.350   2.070   1.656 -0.6564  1.7027 -3.5252
14919TIP3   OH266171   2.020   2.167  16.624 -0.6794  0.6916  0.6670
14919TIP3    H166172   1.940   2.137  16.582  0.4824 -1.2129 -0.3066
14919TIP3    H266173   2.063   2.221  16.558 -0.9429  1.3726  1.0427
14920TIP3   OH266174   6.767   1.963  17.087 -0.0212  0.1703  0.0962
14920TIP3    H166175   6.779   1.972  16.993  0.0653 -0.4095  0.0473
14920TIP3    H266176   6.786   2.050  17.122 -0.1653  0.4170 -0.4308
14921TIP3   OH266177   2.921   5.373   5.536 -0.4868 -0.1270  0.5033
14921TIP3    H166178   2.826   5.360   5.543 -0.5015  0.2239  1.0235
14921TIP3    H266179   2.930   5.455   5.486 -0.4399 -0.5664 -0.2248
14922TIP3   OH266180   1.838   5.074  16.988 -0.1634  0.3666  0.7842
14922TIP3    H166181   1.743   5.069  16.977 -0.0210 -1.9316  0.1456
14922TIP3    H266182   1.873   5.069  16.899  0.5767  2.3498  0.9218
14923TIP3   OH266183   1.445   4.481  13.146  0.0096 -0.0237  0.2744
14923TIP3    H166184   1.441   4.573  13.172 -0.9022  0.0271  0.0005
14923TIP3    H266185   1.504   4.440  13.210 -2.1826  0.0878  2.5195
14924TIP3   OH266186   5.719   3.809   4.926  0.3937  0.8355  0.0420
14924TIP3    H166187   5.765   3.833   5.007  1.4058  0.0440 -0.2778
14924TIP3    H266188   5.788   3.784   4.865 -0.1879  3.0571 -1.6958
14925TIP3   OH266189   2.230   2.532   2.619 -0.2693  0.3439  0.2512
14925TIP3    H166190   2.156   2.592   2.610 -0.1265  0.7131  1.3451
14925TIP3    H266191   2.190   2.447   2.638 -0.4315  0.3977  0.1515
14926TIP3   OH266192   1.709   4.078   0.231 -0.0249 -0.3921  0.3917
14926TIP3    H166193   1.756   4.160   0.215 -0.8755  0.3777  1.6239
14926TIP3    H266194   1.759   4.012   0.183  2.1917  0.3916  1.4799
14927TIP3   OH266195   3.631   1.794   2.857  0.8806 -0.0800  0.1654
14927TIP3    H166196   3.619   1.861   2.925  0.0972  1.0204 -1.0217
14927TIP3    H266197   3.680   1.838   2.788 -0.5726 -0.3751 -1.1099
14928TIP3   OH266198   1.252   3.341  12.946 -0.5872  0.0896 -0.5209
14928TIP3    H166199   1.215   3.314  12.862 -0.8582  0.2063 -0.4396
14928TIP3    H266200   1.186   3.314  13.011  0.8517 -2.6726 -0.0309
14929TIP3   OH266201   1.439   1.840   1.223  0.0503  0.0134 -0.1354
14929TIP3    H166202   1.454   1.934   1.218 -1.5092  0.2874 -0.1074
14929TIP3    H266203   1.526   1.801   1.219  0.6434  1.3869 -1.6425
14930TIP3   OH266204   3.540   6.698  11.185 -0.2379 -0.0032  0.4550
14930TIP3    H166205   3.571   6.718  11.097  0.5782 -2.3200  0.1489
14930TIP3    H266206   3.446   6.682  11.175 -0.1686 -0.1430  0.0269
14931TIP3   OH266207   1.621   6.531   4.390 -0.4458  0.0795 -0.0227
14931TIP3    H166208   1.683   6.564   4.455  2.3042 -0.7080 -2.0275
14931TIP3    H266209   1.600   6.607   4.336  0.9011 -0.1331 -0.8847
14932TIP3   OH266210   6.269   3.651   4.909 -0.2587  0.1265 -0.3268
14932TIP3    H166211   6.257   3.717   4.977  0.4790 -0.3179  0.2465
14932TIP3    H266212   6.224   3.687   4.833  0.1017  1.2760 -0.0187
14933TIP3   OH266213   3.408   6.405   4.033 -0.6108  0.0341  0.2108
14933TIP3    H166214   3.411   6.409   4.129  0.2241  0.1817  0.1907
14933TIP3    H266215   3.500   6.415   4.006 -0.8457  0.0606 -0.6066
14934TIP3   OH266216   0.685   1.709  16.564  0.3343  0.1060  0.3070
14934TIP3    H166217   0.641   1.786  16.529  0.6937  0.3738  0.4378
14934TIP3    H266218   0.770   1.708  16.519 -0.2891 -1.1404 -0.9221
14935TIP3   OH266219   3.210   0.751  12.906 -0.5608 -0.1711  1.0589
14935TIP3    H166220   3.272   0.814  12.868  1.5078 -1.2258  2.4790
14935TIP3    H266221   3.160   0.802  12.970  0.7049  0.1746  1.8006
14936TIP3   OH266222   2.544   0.249  14.054 -0.5693 -0.2245  0.0136
14936TIP3    H166223   2.485   0.203  14.113  2.3842  0.1484  3.6032
14936TIP3    H266224   2.540   0.341  14.082 -1.2413  0.6034 -2.4531
14937TIP3   OH266225   2.394   5.343   5.489 -0.7307  0.6566  0.5864
14937TIP3    H166226   2.377   5.279   5.421 -0.9480  2.3946 -1.0781
14937TIP3    H266227   2.308   5.380   5.509 -0.3393  2.1535 -0.3208
14938TIP3   OH266228   4.201   5.982  13.762 -0.0258 -0.4086  0.1350
14938TIP3    H166229   4.112   5.948  13.755  1.0029 -3.0077 -1.9021
14938TIP3    H266230   4.225   6.006  13.673  1.0853  1.0014  0.7791
14939TIP3   OH266231   4.730   1.547   3.020 -0.1321 -0.0710 -0.1733
14939TIP3    H166232   4.700   1.561   3.109  0.2678 -0.3098  0.0043
14939TIP3    H266233   4.777   1.627   2.997  3.0280 -1.3590  1.2006
14940TIP3   OH266234   1.217   6.524   6.320  0.0564  0.3458 -0.0798
14940TIP3    H166235   1.261   6.606   6.344  0.6505 -0.4856  1.8441
14940TIP3    H266236   1.132   6.553   6.285  0.2041  1.7813  0.6680
14941TIP3   OH266237   0.763   2.312  16.537 -0.7129 -0.2490  0.7735
14941TIP3    H166238   0.725   2.229  16.567 -0.1894 -0.3152  1.2850
14941TIP3    H266239   0.705   2.341  16.467  0.0397 -1.9029 -0.6139
14942TIP3   OH266240   5.189   1.514   5.325 -0.7838 -0.3512  0.0550
14942TIP3    H166241   5.226   1.441   5.277  0.7589  0.0882  0.5337
14942TIP3    H266242   5.097   1.516   5.298 -0.2540 -0.8453 -1.9479
14943TIP3   OH266243   6.200   5.680  15.558  0.2627 -0.2959 -0.6840
14943TIP3    H166244   6.114   5.638  15.551 -0.4665  0.9392  0.4871
14943TIP3    H266245   6.198   5.727  15.641  2.0542 -0.1602 -0.6730
14944TIP3   OH266246   4.965   2.823  13.391  0.0094  0.3018 -0.1505
14944TIP3    H166247   5.012   2.858  13.315 -1.4630  1.5949 -0.5249
14944TIP3    H266248   4.941   2.901  13.442 -1.0302 -0.3742  0.4289
14945TIP3   OH266249   6.167   0.387   0.826  0.7851 -0.2816 -0.1823
14945TIP3    H166250   6.120   0.320   0.775  3.3965 -1.3576 -1.3693
14945TIP3    H266251   6.221   0.432   0.761  1.4198  0.8595  1.1057
14946TIP3   OH266252   3.548   4.692  15.762  0.3483  0.1126 -0.0279
14946TIP3    H166253   3.575   4.649  15.681  0.4144 -0.0364  0.0727
14946TIP3    H266254   3.568   4.785  15.748 -2.5232  0.6379 -1.4217
14947TIP3   OH266255   5.522   1.795   5.001  0.6349  0.0440 -0.1623
14947TIP3    H166256   5.601   1.765   4.955  0.3067 -1.9358  0.4331
14947TIP3    H266257   5.531   1.758   5.089 -0.4276  0.7469  0.2591
14948TIP3   OH266258   1.528   2.821  15.062  0.3068 -0.1950 -0.3724
14948TIP3    H166259   1.529   2.915  15.045 -1.6652  0.6303  3.1471
14948TIP3    H266260   1.441   2.792  15.035  0.6514 -0.9019 -0.7686
14949TIP3   OH266261   0.403   0.837   4.260  0.1311  0.2244 -0.2334
14949TIP3    H166262   0.443   0.925   4.261  0.7782 -0.0491 -0.8741
14949TIP3    H266263   0.444   0.791   4.333  1.3432 -0.1902 -1.1418
14950TIP3   OH266264   5.562   5.088  17.079  0.1856 -0.3131 -0.4667
14950TIP3    H166265   5.612   5.165  17.051 -0.3198 -0.6582 -2.4263
14950TIP3    H266266   5.627   5.018  17.085  0.5811  0.1290  0.9591
14951TIP3   OH266267   0.298   2.024  11.679 -0.5943  0.6870 -0.4108
14951TIP3    H166268   0.203   2.026  11.665 -0.8377 -2.3356  0.1498
14951TIP3    H266269   0.307   2.024  11.774  0.0540  1.9782 -0.4599
14952TIP3   OH266270   4.589   5.509   0.839 -0.3689 -0.9898 -0.4312
14952TIP3    H166271   4.615   5.591   0.798  0.2252 -1.1683 -0.4204
14952TIP3    H266272   4.666   5.453   0.831 -0.6520 -1.4270 -0.1275
14953TIP3   OH266273   0.591   3.388  15.348 -0.0620 -0.3258 -0.2247
14953TIP3    H166274   0.606   3.367  15.256  1.3599 -0.2922 -0.0160
14953TIP3    H266275   0.506   3.349  15.368 -1.7888  2.0173 -2.2824
14954TIP3   OH266276   4.330   1.598   1.358 -0.0235 -0.3162  0.2291
14954TIP3    H166277   4.270   1.551   1.301 -0.3462  0.0726  0.2456
14954TIP3    H266278   4.280   1.613   1.438 -0.1185  0.5615  0.0096
14955TIP3   OH266279   4.654   1.139  12.300 -0.1470  0.5183 -0.6649
14955TIP3    H166280   4.728   1.096  12.343 -0.1042  0.0821 -1.1625
14955TIP3    H266281   4.671   1.233  12.310 -0.7545  0.4645  1.3491
14956TIP3   OH266282   5.724   4.254   0.894  1.2145  0.1517 -0.0188
14956TIP3    H166283   5.693   4.164   0.895  0.6214  0.3540  0.3422
14956TIP3    H266284   5.691   4.292   0.976 -0.4303  1.3157 -1.1472
14957TIP3   OH266285   2.704   0.527  16.597 -0.0095  0.1071 -0.4437
14957TIP3    H166286   2.780   0.478  16.627  0.6138  0.7943 -0.8758
14957TIP3    H266287   2.666   0.474  16.528  0.3345 -0.0273 -0.5289
14958TIP3   OH266288   0.551   0.758  13.179 -0.4014 -0.0836 -0.0849
14958TIP3    H166289   0.460   0.737  13.197  0.0544 -2.1240  0.0732
14958TIP3    H266290   0.597   0.738  13.261  0.1911  1.1738 -0.0740
14959TIP3   OH266291   3.763   0.851   1.641 -0.9231 -0.3485 -0.4474
14959TIP3    H166292   3.837   0.812   1.595  0.3769 -1.3770  2.3145
14959TIP3    H266293   3.697   0.782   1.644 -0.1722 -1.0404  0.9991
14960TIP3   OH266294   6.684   0.524   2.760  1.1151 -0.0875 -0.2702
14960TIP3    H166295   6.711   0.460   2.825  0.0462  1.3274  1.6905
14960TIP3    H266296   6.757   0.528   2.698  1.3389 -2.9201 -0.3327
14961TIP3   OH266297   5.328   3.750   0.184 -0.2845  0.0451 -0.5761
14961TIP3    H166298   5.381   3.757   0.104 -0.7229 -0.4493 -0.9174
14961TIP3    H266299   5.390   3.725   0.252 -0.1967 -1.3529 -1.1357
14962TIP3   OH266300   3.399   4.941  10.798 -0.1529 -0.2190  0.0214
14962TIP3    H166301   3.327   4.886  10.768 -0.7943 -0.0090  1.1204
14962TIP3    H266302   3.398   5.017  10.739  0.0715 -0.8708 -0.8392
14963TIP3   OH266303   2.659   4.213   1.431  0.4767  0.3062 -0.1231
14963TIP3    H166304   2.641   4.282   1.495 -0.8402  0.7572 -0.9367
14963TIP3    H266305   2.743   4.236   1.393  0.6683  0.7291  0.5357
14964TIP3   OH266306   0.550   0.668  11.766 -0.0281 -0.0966 -0.2453
14964TIP3    H166307   0.503   0.643  11.687 -2.2426  3.3344 -0.2383
14964TIP3    H266308   0.621   0.725  11.736 -0.1031  0.2065  0.1343
14965TIP3   OH266309   0.127   5.273   0.372 -0.0306  0.4748  0.1241
14965TIP3    H166310   0.039   5.284   0.408  0.4766 -0.0501  1.5725
14965TIP3    H266311   0.124   5.322   0.289 -1.4845  1.0109  0.4492
14966TIP3   OH266312   4.156   6.477  14.253  0.2916  0.7112  0.0668
14966TIP3    H166313   4.142   6.564  14.215  1.1149  1.3552  1.1755
14966TIP3    H266314   4.127   6.487  14.344 -0.5016 -0.4535 -0.0386
14967TIP3   OH266315   6.456   4.145  11.276  0.0582 -0.0362  0.2488
14967TIP3    H166316   6.474   4.211  11.210 -1.4128  0.0948 -0.0529
14967TIP3    H266317   6.525   4.157  11.341  0.6068  0.8755 -0.4733
14968TIP3   OH266318   6.744   3.779   5.224 -0.5870 -0.6214 -0.0702
14968TIP3    H166319   6.660   3.804   5.264 -0.0964  0.8403  0.0994
14968TIP3    H266320   6.719   3.739   5.140 -1.4524  0.0082 -0.1280
14969TIP3   OH266321   6.562   5.157   1.664 -0.2059 -0.4032 -0.8131
14969TIP3    H166322   6.652   5.123   1.660  0.6988  1.7676 -0.2220
14969TIP3    H266323   6.546   5.170   1.758 -1.0114 -0.4337 -0.9430
14970TIP3   OH266324   0.567   3.510  16.877 -0.6664 -0.6426  0.4154
14970TIP3    H166325   0.549   3.600  16.903  0.4343 -0.5340  0.8213
14970TIP3    H266326   0.491   3.460  16.909 -0.7166 -0.0515  1.2417
14971TIP3   OH266327   0.725   2.846  16.040 -0.2307  0.3086 -0.4627
14971TIP3    H166328   0.737   2.835  15.946  1.1454  1.2022 -0.4345
14971TIP3    H266329   0.631   2.844  16.054 -0.4523  0.3195 -1.8885
14972TIP3   OH266330   3.345   0.933   1.560 -0.3970  0.5074 -0.3832
14972TIP3    H166331   3.339   0.990   1.636 -0.3701 -0.3916  0.3115
14972TIP3    H266332   3.276   0.868   1.573 -1.0582  0.9250 -1.6390
14973TIP3   OH266333   2.118   2.679  16.316 -0.2866 -0.0618 -0.6075
14973TIP3    H166334   2.049   2.636  16.264 -0.4940  0.5103 -0.8084
14973TIP3    H266335   2.184   2.705  16.251  0.5126 -1.2985 -0.3401
14974TIP3   OH266336   3.019   1.745  11.317 -0.0537  0.8646  0.0290
14974TIP3    H166337   3.109   1.764  11.346  0.5233 -0.8414 -0.5298
14974TIP3    H266338   3.003   1.807  11.246  0.5666  1.3768  0.3205
14975TIP3   OH266339   5.353   2.980  16.507  0.5246  0.2795  0.1757
14975TIP3    H166340   5.373   3.043  16.438  1.2444  0.1304  0.2449
14975TIP3    H266341   5.277   3.018  16.552 -0.0699  0.2877 -0.7991
14976TIP3   OH266342   2.546   4.659   0.330 -0.1739 -0.7384  0.1007
14976TIP3    H166343   2.462   4.612   0.335 -0.2870 -0.5527 -0.0360
14976TIP3    H266344   2.574   4.649   0.240 -0.6147  0.1639 -0.1452
14977TIP3   OH266345   3.847   0.226  15.124  0.1951 -0.0673 -0.3049
14977TIP3    H166346   3.853   0.319  15.149 -1.6305  0.1955 -0.7166
14977TIP3    H266347   3.773   0.193  15.175  1.3441 -1.5442  0.4714
14978TIP3   OH266348   4.874   1.704  14.107 -0.6999 -0.1128 -0.3055
14978TIP3    H166349   4.953   1.715  14.053  0.2963  1.0004  1.2716
14978TIP3    H266350   4.806   1.678  14.045  0.6427 -0.0202 -1.9022
14979TIP3   OH266351   2.503   1.693   2.688 -0.0601  0.0195 -0.3542
14979TIP3    H166352   2.429   1.664   2.742 -2.1218  1.3255 -2.2883
14979TIP3    H266353   2.528   1.778   2.724  0.0972 -0.1381 -0.0867
14980TIP3   OH266354   3.506   0.324   2.580 -0.5778  0.2663  0.1713
14980TIP3    H166355   3.541   0.390   2.639  0.8865 -0.7511  0.5241
14980TIP3    H266356   3.498   0.245   2.634 -0.7788 -0.2526 -0.5867
14981TIP3   OH266357   6.049   3.996   1.779 -0.5192  0.4569 -0.0039
14981TIP3    H166358   5.962   4.023   1.808 -0.7416  0.9231 -1.0676
14981TIP3    H266359   6.035   3.916   1.729 -0.6225  1.5649 -1.8424
14982TIP3   OH266360   5.419   2.801  12.373 -0.2642 -0.4665 -0.0173
14982TIP3    H166361   5.383   2.748  12.301 -0.4880 -0.2060 -0.0961
14982TIP3    H266362   5.508   2.767  12.385  0.4431  0.7069 -1.6459
14983TIP3   OH266363   4.443   1.032   0.929  0.2856  0.2932  0.0940
14983TIP3    H166364   4.428   1.124   0.907 -0.3324 -0.2993 -2.2655
14983TIP3    H266365   4.361   0.988   0.904  0.7765 -0.9829  0.6416
14984TIP3   OH266366   1.606   5.933  14.154 -0.1708  0.3386 -0.5650
14984TIP3    H166367   1.553   5.993  14.206 -0.1343 -0.2333  0.1498
14984TIP3    H266368   1.685   5.919  14.205  0.3045  0.5235 -1.2353
14985TIP3   OH266369   1.792   0.486  15.954 -0.1369  0.0825 -0.7215
14985TIP3    H166370   1.830   0.483  16.042 -0.9042 -1.2324 -0.4023
14985TIP3    H266371   1.849   0.431  15.901 -1.0150 -1.1232 -0.4591
14986TIP3   OH266372   1.682   3.302  15.009  0.1170  0.2911  0.4790
14986TIP3    H166373   1.708   3.377  15.063 -0.4427  0.9394 -0.1330
14986TIP3    H266374   1.605   3.332  14.961 -0.0875 -0.6655  0.1843
14987TIP3   OH266375   4.967   6.192  12.879 -0.2806  0.1066 -0.1342
14987TIP3    H166376   4.932   6.194  12.968 -0.1301  0.2684 -0.0769
14987TIP3    H266377   4.915   6.126  12.834 -0.8602  0.5555 -0.1386
14988TIP3   OH266378   4.474   3.887   4.555  0.1915 -0.0268  0.2098
14988TIP3    H166379   4.420   3.944   4.611  0.2527 -0.1645  0.4089
14988TIP3    H266380   4.448   3.798   4.580  0.1091 -0.0878 -0.0885
14989TIP3   OH266381   2.319   3.600   1.262  0.4770 -0.0682 -0.5724
14989TIP3    H166382   2.243   3.563   1.217  0.1862 -0.0749 -0.0716
14989TIP3    H266383   2.286   3.679   1.305  1.1449  0.9467 -1.8457
14990TIP3   OH266384   6.272   6.196   3.695  0.2047  0.3985 -0.3771
14990TIP3    H166385   6.177   6.198   3.712  0.1964 -1.2513 -0.0893
14990TIP3    H266386   6.307   6.136   3.760  1.0260 -1.3686 -2.3405
14991TIP3   OH266387   6.532   4.497   2.451  0.1612  0.0600  0.3524
14991TIP3    H166388   6.617   4.456   2.435 -0.6866 -2.2605  1.4303
14991TIP3    H266389   6.481   4.430   2.497 -1.2131  2.4592  2.5828
14992TIP3   OH266390   5.975   3.343   3.148  0.2773  0.4224 -0.1422
14992TIP3    H166391   5.994   3.358   3.241  2.7007 -0.6488 -0.3920
14992TIP3    H266392   6.049   3.382   3.102 -1.0530  1.2271 -1.6798
14993TIP3   OH266393   4.300   0.560  15.710  0.3106  0.5390 -0.2989
14993TIP3    H166394   4.357   0.518  15.773  0.0309 -1.3473 -1.2349
14993TIP3    H266395   4.345   0.550  15.626  0.3742  2.4214 -0.5224
14994TIP3   OH266396   1.976   0.216   5.702 -0.4278  0.2036 -0.2528
14994TIP3    H166397   2.008   0.256   5.783 -0.4024 -1.4202  0.5949
14994TIP3    H266398   1.924   0.141   5.732 -0.6800 -0.2488 -1.7446
14995TIP3   OH266399   5.780   1.147  13.175  0.2849  0.0803 -0.0695
14995TIP3    H166400   5.867   1.184  13.164  0.3103 -0.0427 -0.3085
14995TIP3    H266401   5.763   1.152  13.269  0.5175  0.1738 -0.0310
14996TIP3   OH266402   0.022   6.668  12.837  0.0089 -0.8611  0.2662
14996TIP3    H166403  -0.055   6.725  12.839  0.1306 -0.6922  0.1310
14996TIP3    H266404  -0.014   6.581  12.818 -0.2708 -1.0064  1.4204
14997TIP3   OH266405   6.141   1.579   3.229  0.4787 -0.1478 -0.3486
14997TIP3    H166406   6.233   1.558   3.247  0.0127 -2.5868 -0.4372
14997TIP3    H266407   6.113   1.632   3.303  2.2173  1.6305 -0.8716
14998TIP3   OH266408   2.891   6.622   4.322 -0.9192  0.3320 -0.1340
14998TIP3    H166409   2.906   6.528   4.319 -1.8298  0.1635  0.1303
14998TIP3    H266410   2.966   6.660   4.276 -0.2149 -0.4778  0.3019
14999TIP3   OH266411   3.352   3.969  11.183  0.2043  0.0794 -0.1532
14999TIP3    H166412   3.340   4.019  11.102 -1.4764 -2.6822 -1.7378
14999TIP3    H266413   3.306   4.021  11.249 -2.7560  0.0493 -2.0066
15000TIP3   OH266414   6.597   3.411   2.880  0.3360 -0.0460 -0.2144
15000TIP3    H166415   6.545   3.367   2.947  0.8817  0.3487  0.4860
15000TIP3    H266416   6.666   3.347   2.858 -0.0489 -0.3141 -0.6710
15001TIP3   OH266417   2.819   5.829  11.810  0.1770 -0.3588 -0.0477
15001TIP3    H166418   2.762   5.884  11.865  0.6167 -0.0237  0.0748
15001TIP3    H266419   2.885   5.795  11.870  0.1784 -0.6558 -0.2143
15002TIP3   OH266420   0.247   4.594  16.132  0.1872 -0.1073  0.4876
15002TIP3    H166421   0.320   4.624  16.185  0.2394  0.1689  0.2662
15002TIP3    H266422   0.200   4.674  16.108  1.2710  0.0223 -1.4945
15003TIP3   OH266423   3.755   4.263   5.728  0.3084 -0.1762  0.1101
15003TIP3    H166424   3.662   4.279   5.713  0.6572  0.4037 -1.6341
15003TIP3    H266425   3.761   4.244   5.822 -1.8021 -2.0399 -0.0593
15004TIP3   OH266426   0.088   4.659   2.460  0.2685 -0.0141 -0.4394
15004TIP3    H166427   0.144   4.731   2.487 -0.1449  0.8434 -1.7659
15004TIP3    H266428   0.145   4.603   2.406  0.3010 -0.0793 -0.3372
15005TIP3   OH266429   0.084   0.025  17.087 -0.4114 -0.1652  0.9361
15005TIP3    H166430   0.175  -0.002  17.075  0.7003  3.0928  1.1875
15005TIP3    H266431   0.035  -0.057  17.086  2.5381 -2.0888  1.2509
15006TIP3   OH266432   2.689   3.908   3.042  0.1264  0.4707 -0.1543
15006TIP3    H166433   2.682   3.983   3.101 -0.3008 -1.1396  1.9998
15006TIP3    H266434   2.636   3.840   3.084  3.3286 -2.2012 -0.0549
15007TIP3   OH266435   2.085   4.314   1.278 -0.0143  0.6334  0.3061
15007TIP3    H166436   2.097   4.353   1.364 -1.8816  0.1516  0.8183
15007TIP3    H266437   2.072   4.389   1.219 -1.3082  0.9001  0.8998
15008TIP3   OH266438   5.090   6.585  11.413  0.0868  0.1302  0.2155
15008TIP3    H166439   5.086   6.492  11.433 -1.4401  0.4794  1.8119
15008TIP3    H266440   5.120   6.626  11.494 -3.2476  1.3417  1.0280
15009TIP3   OH266441   2.768   2.109   1.383  0.3272  0.1673 -0.0058
15009TIP3    H166442   2.764   2.092   1.289  3.4252  0.0837 -0.2470
15009TIP3    H266443   2.799   2.200   1.389 -0.2560  0.3106  0.9470
15010TIP3   OH266444   6.204   5.933   0.577 -0.1844  0.1663 -0.1014
15010TIP3    H166445   6.264   5.930   0.503 -2.5227 -0.2295 -2.0925
15010TIP3    H266446   6.195   6.026   0.597  0.4845  0.2697 -0.2471
15011TIP3   OH266447   1.479   6.213  15.131 -0.6677  0.3270  0.2054
15011TIP3    H166448   1.546   6.177  15.190  0.4784  2.4746  0.3218
15011TIP3    H266449   1.402   6.226  15.187 -0.2025  0.5979  0.7982
15012TIP3   OH266450   5.243   6.278  13.578  0.0884  0.3149 -0.8566
15012TIP3    H166451   5.216   6.292  13.487  1.5616 -0.3509 -1.4111
15012TIP3    H266452   5.317   6.336  13.591  1.5240 -1.4359 -0.8949
15013TIP3   OH266453   4.561   3.015   1.902 -0.2544 -0.3514 -0.3395
15013TIP3    H166454   4.516   3.012   1.817 -2.0868  0.0128  0.5536
15013TIP3    H266455   4.522   3.090   1.946 -1.3417 -2.0558  1.8284
15014TIP3   OH266456   0.564   0.002  16.953 -0.5649 -0.4690  0.8635
15014TIP3    H166457   0.579   0.018  16.860 -1.3547  0.3306  0.8579
15014TIP3    H266458   0.474   0.030  16.967 -0.8334 -1.6845  1.6321
15015TIP3   OH266459   4.636   3.619  14.789  0.0734  0.6539  0.4313
15015TIP3    H166460   4.546   3.633  14.759  0.4224  2.0108 -0.0446
15015TIP3    H266461   4.651   3.525  14.778 -0.0355  0.9419 -3.0863
15016TIP3   OH266462   4.305   5.269   6.262 -0.0892  1.0186 -0.0115
15016TIP3    H166463   4.326   5.181   6.295 -0.4191  0.6192 -0.8283
15016TIP3    H266464   4.337   5.328   6.330  2.5612  0.4075 -0.6077
15017TIP3   OH266465   6.625   0.330   5.239  0.4333 -0.0578  0.6092
15017TIP3    H166466   6.656   0.407   5.288 -0.0870  1.6699 -1.5900
15017TIP3    H266467   6.543   0.359   5.199  1.9061 -0.4378 -3.1156
15018TIP3   OH266468   3.714   3.691  15.904 -0.1898 -0.3331  0.1579
15018TIP3    H166469   3.650   3.713  15.835  0.9095 -0.5169 -0.9510
15018TIP3    H266470   3.736   3.600  15.888 -0.6404 -0.6704  1.3804
15019TIP3   OH266471   6.789   3.713  14.850  0.0406  0.0649 -0.2844
15019TIP3    H166472   6.806   3.777  14.780  3.0905 -2.1014 -1.7472
15019TIP3    H266473   6.783   3.766  14.929  1.6659  2.2702 -1.5020
15020TIP3   OH266474   1.968   1.116  14.897  0.4406 -0.3538  0.0177
15020TIP3    H166475   1.939   1.189  14.843  1.7646  0.6192  0.5933
15020TIP3    H266476   2.056   1.140  14.925 -0.0090 -1.0651  2.1752
15021TIP3   OH266477   3.852   5.563  12.159 -0.2091  0.1492  0.9064
15021TIP3    H166478   3.913   5.489  12.155 -1.9153 -1.3238  1.1157
15021TIP3    H266479   3.806   5.552  12.242 -0.9635  1.0779  0.6327
15022TIP3   OH266480   5.218   2.351  11.725  0.1522 -0.1198  0.0155
15022TIP3    H166481   5.246   2.409  11.796 -2.0837 -0.0251  0.8812
15022TIP3    H266482   5.123   2.346  11.734 -0.2127 -0.1868 -2.9230
15023TIP3   OH266483   2.688   4.352  16.521  0.3511  0.3043  0.1934
15023TIP3    H166484   2.757   4.418  16.519  1.4656 -0.8327 -0.1252
15023TIP3    H266485   2.714   4.293  16.592  0.0621 -0.5110 -0.3702
15024TIP3   OH266486   1.124   2.042  15.780 -0.4010  0.0259 -0.2192
15024TIP3    H166487   1.055   2.052  15.846 -1.5693  0.4450 -1.4477
15024TIP3    H266488   1.076   2.041  15.696  1.1973  1.6993 -1.2107
15025TIP3   OH266489   0.192   4.177  12.999 -0.4174  0.2693 -0.2877
15025TIP3    H166490   0.153   4.242  12.941 -2.6428 -0.2406  0.5357
15025TIP3    H266491   0.133   4.102  12.994  0.4193 -0.5230  1.1217
15026TIP3   OH266492   2.380   0.401  15.929  0.7767  0.0111 -0.3291
15026TIP3    H166493   2.293   0.438  15.942  0.1376 -0.6825 -2.3856
15026TIP3    H266494   2.368   0.307  15.941  0.4950 -0.4831 -3.6750
15027TIP3   OH266495   1.606   0.981   4.336  0.3917 -0.3859  0.1155
15027TIP3    H166496   1.608   0.939   4.423  1.1123 -0.1248  0.2351
15027TIP3    H266497   1.561   1.064   4.351 -1.3866 -1.2553 -0.1979
15028TIP3   OH266498   1.291   0.400  16.148  0.6130 -0.5310  0.0824
15028TIP3    H166499   1.375   0.418  16.107 -0.1473  1.4825 -0.6984
15028TIP3    H266500   1.232   0.468  16.114 -1.4031 -2.0204  0.4024
15029TIP3   OH266501   6.492   1.874   0.542  0.0792  0.2649  0.3194
15029TIP3    H166502   6.448   1.792   0.564  0.4455 -0.0040  0.0679
15029TIP3    H266503   6.585   1.850   0.537  0.1213  0.5632 -0.3750
15030TIP3   OH266504   2.516   2.028  11.971 -0.0563  0.0691  0.7971
15030TIP3    H166505   2.461   1.965  11.924  0.6114 -0.2096  0.3700
15030TIP3    H266506   2.479   2.114  11.947  0.6622 -0.0237 -0.8119
15031TIP3   OH266507   5.318   1.363   4.713  0.2322  0.7146  0.4958
15031TIP3    H166508   5.391   1.415   4.747  0.8848  0.0663  0.1164
15031TIP3    H266509   5.314   1.287   4.770 -0.8662  1.2755  1.1866
15032TIP3   OH266510   2.991   0.381   1.353  0.1863  0.0935 -0.2355
15032TIP3    H166511   3.036   0.322   1.414  2.0658  1.7458  0.0804
15032TIP3    H266512   2.985   0.464   1.400 -0.3052  0.8042 -1.5152
15033TIP3   OH266513   6.289   2.816   5.082  0.5732 -0.4089 -0.0730
15033TIP3    H166514   6.309   2.893   5.135 -0.4732 -0.6076  0.6120
15033TIP3    H266515   6.216   2.774   5.126 -0.4078 -0.5108 -1.7268
15034TIP3   OH266516   1.917   1.096   4.794  0.0920 -0.3639  0.3888
15034TIP3    H166517   1.843   1.120   4.849 -1.1567 -1.1749 -0.8872
15034TIP3    H266518   1.986   1.157   4.820 -1.2893  1.0107  0.9844
15035TIP3   OH266519   5.840   0.465   5.497 -0.8158  0.4713  0.6002
15035TIP3    H166520   5.925   0.493   5.463 -1.0279  0.4845  0.0837
15035TIP3    H266521   5.833   0.508   5.582  0.3561 -0.6947  1.3341
15036TIP3   OH266522   2.178   2.386  15.677 -0.7790 -0.1675 -0.3607
15036TIP3    H166523   2.084   2.369  15.681 -0.5784 -1.6078 -1.0599
15036TIP3    H266524   2.207   2.336  15.601  0.5119  0.5071 -0.3271
15037TIP3   OH266525   5.591   3.873  13.669 -0.0782 -0.4092 -0.2131
15037TIP3    H166526   5.588   3.880  13.573 -0.5429  1.7968 -0.0945
15037TIP3    H266527   5.673   3.915  13.693 -0.8619  0.7851  0.4431
15038TIP3   OH266528   0.169   4.075  10.895  0.3488 -0.9766  0.1924
15038TIP3    H166529   0.115   4.002  10.865  0.6282 -1.3185  0.5087
15038TIP3    H266530   0.159   4.142  10.828  0.6520 -1.5752 -0.4627
15039TIP3   OH266531   3.623   0.031  10.966  0.5901  0.4204  0.4533
15039TIP3    H166532   3.711   0.064  10.985  0.9220 -0.8936  1.2826
15039TIP3    H266533   3.608   0.056  10.875  2.1889 -0.1081  0.0146
15040TIP3   OH266534   0.282   1.857   0.099  0.0208  0.0373  0.2686
15040TIP3    H166535   0.244   1.770   0.083  1.5717 -0.7351  0.6285
15040TIP3    H266536   0.304   1.889   0.012 -0.0478 -0.1611  0.1748
15041TIP3   OH266537   6.521   6.235   0.266  0.2942 -0.3911  0.3715
15041TIP3    H166538   6.574   6.219   0.344  0.6342 -1.2445 -0.0201
15041TIP3    H266539   6.526   6.330   0.253  1.4131 -0.4051  0.5740
15042TIP3   OH266540   0.238   2.367   0.478  0.7476 -0.2498 -0.3816
15042TIP3    H166541   0.238   2.280   0.439  0.4720 -2.1309  3.3993
15042TIP3    H266542   0.146   2.394   0.478  0.5245 -0.9796  0.4042
15043TIP3   OH266543   5.926   0.784   3.600 -0.4753 -0.6343 -0.0865
15043TIP3    H166544   5.869   0.751   3.670 -2.0569 -0.9710 -1.4569
15043TIP3    H266545   5.939   0.708   3.543 -1.3699  0.2304 -1.5035
15044TIP3   OH266546   6.349   5.137   4.539  0.4139 -0.2256  0.6474
15044TIP3    H166547   6.274   5.195   4.549  0.3808 -0.1126 -0.1616
15044TIP3    H266548   6.421   5.183   4.582 -0.0029 -0.4073  1.5683
15045TIP3   OH266549   5.414   2.214  11.594 -0.1830  0.3315 -0.5652
15045TIP3    H166550   5.392   2.242  11.505  0.0482 -1.3958 -1.1992
15045TIP3    H266551   5.335   2.233  11.645 -0.0447  2.0586 -0.9405
15046TIP3   OH266552   0.448   0.529  16.155 -0.6636 -0.6339 -0.5435
15046TIP3    H166553   0.368   0.560  16.112 -0.0949  0.6666 -0.6961
15046TIP3    H266554   0.418   0.458  16.212 -1.8674 -0.4415 -0.9030
15047TIP3   OH266555   1.506   4.717  15.721 -0.3757 -0.4048 -0.4883
15047TIP3    H166556   1.420   4.730  15.681 -0.7899 -0.1686  0.4764
15047TIP3    H266557   1.524   4.623  15.709 -1.0174 -0.5676 -0.1864
15048TIP3   OH266558   2.259   1.989  16.545  0.2516 -0.7171 -0.5035
15048TIP3    H166559   2.340   1.986  16.494 -0.2092  1.3163 -1.4681
15048TIP3    H266560   2.208   2.059  16.504 -0.1520  1.1192  2.7570
15049TIP3   OH266561   3.852   2.216  13.670  0.2549  0.2451 -0.3128
15049TIP3    H166562   3.928   2.266  13.701 -0.1015  0.3116  0.4835
15049TIP3    H266563   3.777   2.273  13.688 -0.0801 -0.2454 -0.1410
15050TIP3   OH266564   6.445   4.683   6.533  0.2997 -0.0332 -0.4949
15050TIP3    H166565   6.482   4.599   6.506  0.4389  0.4994 -2.0851
15050TIP3    H266566   6.521   4.737   6.555  0.2320 -0.2121  0.1746
15051TIP3   OH266567   6.633   0.564  12.759 -0.4152  0.6956 -0.7150
15051TIP3    H166568   6.595   0.476  12.750 -0.4295  0.5084  0.8888
15051TIP3    H266569   6.715   0.559  12.710 -0.2130 -0.3613 -0.3127
15052TIP3   OH266570   5.626   4.180  12.434 -0.2791  0.4094 -0.4048
15052TIP3    H166571   5.719   4.183  12.413 -0.2508  0.0924 -0.3388
15052TIP3    H266572   5.623   4.139  12.521 -0.3897  1.6563  0.1966
15053TIP3   OH266573   6.588   2.654   5.451 -0.2663  0.3456  0.2163
15053TIP3    H166574   6.504   2.691   5.422 -0.5761 -0.6032 -0.1157
15053TIP3    H266575   6.617   2.714   5.519 -1.0742  0.8507  0.1384
15054TIP3   OH266576   0.386   1.429  14.503  0.3069  0.1702 -0.5389
15054TIP3    H166577   0.402   1.479  14.423 -1.3308 -0.6923 -1.4471
15054TIP3    H266578   0.298   1.453  14.530  1.0546  0.9421  1.4371
15055TIP3   OH266579   5.365   3.557   0.492 -0.3214  0.3815  0.4562
15055TIP3    H166580   5.269   3.557   0.494 -0.3983 -1.6951 -0.3348
15055TIP3    H266581   5.388   3.467   0.469  1.8084  1.0054 -0.0764
15056TIP3   OH266582   3.129   6.220  11.524 -0.6243 -0.5720  0.2628
15056TIP3    H166583   3.181   6.262  11.592  0.4044  0.1517 -0.9358
15056TIP3    H266584   3.193   6.188  11.461 -1.6088  1.5614 -1.9615
15057TIP3   OH266585   0.164   6.401   3.132  0.2023 -0.7941 -0.0015
15057TIP3    H166586   0.114   6.432   3.056  2.2615  0.3663 -0.9726
15057TIP3    H266587   0.098   6.372   3.194 -1.5971 -1.2966 -2.0183
15058TIP3   OH266588   1.472   0.285  13.614  0.0117 -0.4755 -0.3116
15058TIP3    H166589   1.396   0.227  13.623 -0.9680  0.6196 -1.3246
15058TIP3    H266590   1.435   0.373  13.617  1.3068  0.0841 -0.4083
15059TIP3   OH266591   6.253   6.808  15.223  0.2439 -0.1985  0.1312
15059TIP3    H166592   6.322   6.835  15.284  1.0412 -0.7698 -0.5064
15059TIP3    H266593   6.184   6.873  15.236  1.3079  1.0017  0.0635
15060TIP3   OH266594   2.090   3.989   6.433  0.4505  0.0769 -0.3485
15060TIP3    H166595   2.116   4.080   6.444 -0.4025  0.2261  0.5176
15060TIP3    H266596   2.009   3.993   6.382  0.8391 -0.2560 -1.0143
15061TIP3   OH266597   3.481   3.855   2.486  0.2861 -0.2761  0.1544
15061TIP3    H166598   3.552   3.815   2.436  1.2568 -0.2961  1.4924
15061TIP3    H266599   3.514   3.858   2.576 -0.9484  0.8174  0.5962
15062TIP3   OH266600   0.368   3.979  16.766  0.0840 -0.3622 -0.7962
15062TIP3    H166601   0.456   3.951  16.740  1.3941  0.6874  2.1120
15062TIP3    H266602   0.344   4.045  16.701  1.8895  0.0291 -1.1320
15063TIP3   OH266603   3.423   3.360   1.748 -0.8725 -0.7381 -0.1072
15063TIP3    H166604   3.389   3.305   1.818 -0.1957 -0.8146  0.1763
15063TIP3    H266605   3.352   3.421   1.728 -1.0883 -0.7346  0.6263
15064TIP3   OH266606   3.874   4.230   2.364  0.0162 -0.4167  0.1455
15064TIP3    H166607   3.918   4.309   2.393  1.6422 -1.5753  1.0029
15064TIP3    H266608   3.869   4.239   2.269  0.6888  0.4478  0.1806
15065TIP3   OH266609   2.667   4.638  15.534  0.0217  0.4242  1.0654
15065TIP3    H166610   2.584   4.653  15.579 -0.2207  0.3488  0.6455
15065TIP3    H266611   2.642   4.615  15.445  0.4727 -0.2323  1.1025
15066TIP3   OH266612   2.816   4.870   0.679  0.0241  0.8163  0.1196
15066TIP3    H166613   2.728   4.889   0.710 -0.0983  0.6537 -0.1268
15066TIP3    H266614   2.864   4.952   0.690  0.1092  0.6404  1.1652
15067TIP3   OH266615   0.083   2.553   1.482  0.1457  0.2909  0.0607
15067TIP3    H166616  -0.006   2.586   1.473 -0.6997 -2.0447 -1.1578
15067TIP3    H266617   0.091   2.531   1.575 -1.4899 -1.6824 -0.1913
15068TIP3   OH266618   5.953   2.184  11.379 -0.0298 -0.9671  0.1517
15068TIP3    H166619   5.892   2.164  11.451 -1.4440 -0.2760 -0.8052
15068TIP3    H266620   5.957   2.280  11.378  0.4964 -0.9917 -0.2671
15069TIP3   OH266621   4.094   6.251   2.642  0.0820  0.0835  0.0928
15069TIP3    H166622   4.172   6.279   2.594 -0.7510  0.9269 -0.8276
15069TIP3    H266623   4.114   6.162   2.671  1.3362  0.2484 -0.2243
15070TIP3   OH266624   4.965   2.704   5.066 -0.5326 -0.0891 -0.3680
15070TIP3    H166625   4.894   2.661   5.114 -1.3983  1.7306  0.0725
15070TIP3    H266626   4.928   2.724   4.980 -0.1218 -0.2912 -0.5944
15071TIP3   OH266627   5.102   4.768  14.036 -0.2092  0.1243 -0.0977
15071TIP3    H166628   5.054   4.851  14.031 -1.2254 -0.4357  0.2122
15071TIP3    H266629   5.188   4.788  13.998 -0.1701  1.5142  0.6423
15072TIP3   OH266630   1.350   2.745  14.080 -0.1352 -0.7768 -0.1803
15072TIP3    H166631   1.407   2.742  14.157  1.6892 -0.4732 -1.4617
15072TIP3    H266632   1.325   2.838  14.073  2.6238 -0.0498 -1.9061
15073TIP3   OH266633   1.091   3.472  11.777 -0.0448 -0.1823 -0.5843
15073TIP3    H166634   1.070   3.455  11.685 -0.9262 -0.1274 -0.3950
15073TIP3    H266635   1.175   3.428  11.791 -0.2778 -0.8408 -1.2126
15074TIP3   OH266636   1.126   5.277   0.090 -0.1651  0.2393  0.3419
15074TIP3    H166637   1.166   5.193   0.113  1.0738  1.4364  3.0166
15074TIP3    H266638   1.034   5.257   0.077  0.1765 -1.5976  0.4443
15075TIP3   OH266639   2.924   6.074  11.937 -0.0840  0.3431  0.1997
15075TIP3    H166640   2.899   6.159  11.901  1.5684  0.4581 -0.7535
15075TIP3    H266641   2.893   6.010  11.873 -2.3371  0.0483  1.4371
15076TIP3   OH266642   5.818   2.029   1.206  0.1768 -0.1469 -0.6263
15076TIP3    H166643   5.754   2.099   1.192  0.7888  0.2709 -1.3572
15076TIP3    H266644   5.869   2.025   1.125  1.2369 -0.3151  0.0332
15077TIP3   OH266645   5.504   1.895   3.073 -0.3462 -0.2546 -0.3464
15077TIP3    H166646   5.528   1.816   3.121  1.2129  0.5404  0.2681
15077TIP3    H266647   5.512   1.966   3.137 -0.0072  0.5968 -1.2943
15078TIP3   OH266648   0.525   1.847   4.701  0.3328  0.2992 -0.1534
15078TIP3    H166649   0.497   1.845   4.793  2.5250  0.4236  0.5708
15078TIP3    H266650   0.517   1.939   4.675  2.2747  0.7885  0.8166
15079TIP3   OH266651   2.580   4.565   2.741 -0.4178  0.1805 -0.0404
15079TIP3    H166652   2.505   4.532   2.692 -0.4263  1.8856 -1.2449
15079TIP3    H266653   2.644   4.590   2.675  0.2314  1.0223  0.8679
15080TIP3   OH266654   0.053   2.759  15.117 -0.3918  0.1967  0.9639
15080TIP3    H166655   0.052   2.703  15.040  1.2667  0.7799  0.4740
15080TIP3    H266656   0.136   2.739  15.161 -0.2325  1.5213  1.3105
15081TIP3   OH266657   1.898   2.571   6.079  0.4399  0.0558 -0.0723
15081TIP3    H166658   1.944   2.524   6.149 -0.2326 -1.1863 -0.4307
15081TIP3    H266659   1.846   2.503   6.036 -2.2468  1.4930  0.7096
15082TIP3   OH266660   1.446   6.158  14.247  0.0526 -0.5756 -0.0951
15082TIP3    H166661   1.430   6.231  14.187  0.5375  0.0186  0.4885
15082TIP3    H266662   1.521   6.185  14.299  0.8523 -1.8945 -0.5045
15083TIP3   OH266663   4.350   6.240   3.661 -0.5586  0.1344 -0.3976
15083TIP3    H166664   4.342   6.307   3.729  1.3534  0.3652 -0.3655
15083TIP3    H266665   4.330   6.158   3.706 -0.3559  0.4028  0.1944
15084TIP3   OH266666   3.536   3.378  11.673  0.0256  0.1478 -0.0490
15084TIP3    H166667   3.474   3.449  11.658  0.0966  0.9559  2.8607
15084TIP3    H266668   3.622   3.414  11.650 -0.2543 -0.0612 -1.4806
15085TIP3   OH266669   3.816   2.557   5.091  0.4690  0.3122  0.3471
15085TIP3    H166670   3.879   2.519   5.030 -1.6879 -1.2875 -1.0455
15085TIP3    H266671   3.734   2.557   5.043 -1.3681 -1.0308  3.2121
15086TIP3   OH266672   5.049   5.061  14.338 -0.2953 -0.2818 -0.3414
15086TIP3    H166673   5.143   5.044  14.331 -0.2879 -0.3413 -0.0767
15086TIP3    H266674   5.043   5.151  14.369 -0.3314 -0.0961 -0.8630
15087TIP3   OH266675   3.741   0.874  14.495  0.2867 -0.1226 -0.0530
15087TIP3    H166676   3.830   0.898  14.468  0.5319 -0.4062  0.4935
15087TIP3    H266677   3.690   0.876  14.414  0.6658  0.6056 -0.2842
15088TIP3   OH266678   4.384   4.174   5.523 -0.2962 -0.3186 -0.0130
15088TIP3    H166679   4.347   4.254   5.559  0.8503  1.1240 -1.8479
15088TIP3    H266680   4.479   4.187   5.528 -0.0943 -1.0743 -1.3006
15089TIP3   OH266681   5.602   2.419  13.664 -0.2724  0.1940  0.6697
15089TIP3    H166682   5.666   2.415  13.736  2.7611 -1.2243 -1.8608
15089TIP3    H266683   5.592   2.328  13.635 -1.4560  0.7140 -0.6692
15090TIP3   OH266684   5.995   1.043  11.159 -0.6141  0.0231  0.4785
15090TIP3    H166685   6.090   1.050  11.166 -0.3694  0.2246 -2.0445
15090TIP3    H266686   5.970   1.113  11.098 -2.3134 -0.4065  0.6195
15091TIP3   OH266687   6.115   5.739  13.253 -0.2853  0.3708 -0.2988
15091TIP3    H166688   6.167   5.820  13.254  2.8559 -1.4921  0.2499
15091TIP3    H266689   6.122   5.705  13.342 -0.8857 -0.9004 -0.7230
15092TIP3   OH266690   5.875   0.878   2.598 -0.6242 -0.2944  0.4545
15092TIP3    H166691   5.794   0.928   2.594 -0.0757  0.5253 -0.9921
15092TIP3    H266692   5.873   0.822   2.520 -0.4927 -1.4039  1.2225
15093TIP3   OH266693   0.723   3.119   3.328 -0.3758  0.0264  0.1594
15093TIP3    H166694   0.795   3.058   3.310  0.2158  0.5475  0.6897
15093TIP3    H266695   0.647   3.079   3.287 -0.1350 -1.4035  1.0283
15094TIP3   OH266696   1.207   3.277   5.234  0.1691  0.7395  0.0810
15094TIP3    H166697   1.262   3.301   5.160  3.0360 -0.2638  1.7266
15094TIP3    H266698   1.163   3.196   5.206 -0.6599  1.6229 -1.3029
15095TIP3   OH266699   4.698   0.448  12.121  1.1670  0.4811  0.2534
15095TIP3    H166700   4.658   0.394  12.053  2.8986 -0.9138  0.2688
15095TIP3    H266701   4.651   0.424  12.201  0.6662  0.4080 -0.0623
15096TIP3   OH266702   1.960   1.719   5.440 -0.0852 -0.2292  0.3924
15096TIP3    H166703   1.901   1.785   5.403 -0.0482 -0.2160  0.3582
15096TIP3    H266704   1.978   1.751   5.528  0.7351  0.3199  0.0293
15097TIP3   OH266705   0.606   4.784   3.256  0.0162 -0.6853  0.1705
15097TIP3    H166706   0.682   4.738   3.222  0.2121  0.7941 -1.5517
15097TIP3    H266707   0.531   4.732   3.226  0.2023  0.3183 -2.3213
15098TIP3   OH266708   5.087   1.764  16.935 -0.0463  0.2323  0.0185
15098TIP3    H166709   5.071   1.671  16.919 -1.4506  0.4924 -0.2166
15098TIP3    H266710   5.182   1.774  16.926 -0.0325 -0.9084 -1.3495
15099TIP3   OH266711   1.574   0.487  14.975 -0.5051  0.4786  0.8995
15099TIP3    H166712   1.481   0.479  14.995 -0.6750 -1.4101 -0.3971
15099TIP3    H266713   1.598   0.403  14.937  1.2637  1.5912 -0.6509
15100TIP3   OH266714   0.943   5.874  15.343  0.0029 -0.3926  0.4519
15100TIP3    H166715   0.941   5.878  15.248 -1.6867 -2.3187  0.3321
15100TIP3    H266716   1.032   5.843  15.364 -0.2574 -1.9887 -0.6514
15101TIP3   OH266717   2.878   3.626  16.535 -0.1037 -0.1926  0.2686
15101TIP3    H166718   2.973   3.642  16.530  0.2716 -2.5150 -1.3319
15101TIP3    H266719   2.866   3.581  16.619  0.3344 -0.6017  0.1146
15102TIP3   OH266720   2.015   1.572  12.867 -0.3758 -0.9012 -0.6878
15102TIP3    H166721   2.035   1.666  12.873 -2.6090 -0.4153 -0.1473
15102TIP3    H266722   1.982   1.549  12.954  0.4602 -2.3172 -0.7065
15103TIP3   OH266723   6.588   0.160  16.854 -0.2468  0.2370 -1.1762
15103TIP3    H166724   6.538   0.235  16.887 -1.8940 -1.2448 -0.1167
15103TIP3    H266725   6.548   0.141  16.769 -2.1351 -1.3942 -0.0197
15104TIP3   OH266726   5.301   2.730   4.465 -0.1052 -0.5793 -0.1037
15104TIP3    H166727   5.350   2.794   4.516 -0.5470 -0.5440  0.2825
15104TIP3    H266728   5.297   2.767   4.377 -0.4083 -0.0445  0.1318
15105TIP3   OH266729   6.303   4.267  15.545  0.3701  0.1599  0.0417
15105TIP3    H166730   6.226   4.233  15.499  2.7095 -2.7234 -2.1091
15105TIP3    H266731   6.330   4.343  15.494  0.0673 -0.0182 -0.3933
15106TIP3   OH266732   2.853   5.183  15.542 -0.3235  0.4887 -0.4575
15106TIP3    H166733   2.769   5.210  15.505  1.3862  3.1532 -2.7185
15106TIP3    H266734   2.863   5.092  15.514 -1.7743  0.5787 -1.3790
15107TIP3   OH266735   5.354   0.396   5.598 -0.0666 -0.1393 -0.0563
15107TIP3    H166736   5.313   0.357   5.675 -1.7448  3.0260  0.8596
15107TIP3    H266737   5.288   0.456   5.564  2.6293  2.8908 -0.4445
15108TIP3   OH266738   1.234   0.694   2.847  0.4713  0.2909 -0.1353
15108TIP3    H166739   1.187   0.745   2.913  1.0969  0.6277  0.0600
15108TIP3    H266740   1.283   0.760   2.798 -0.9899  0.2104 -1.7970
15109TIP3   OH266741   4.764   2.177  11.059  0.1407  0.0860  0.0058
15109TIP3    H166742   4.704   2.132  11.117 -2.0684 -0.9479 -2.8409
15109TIP3    H266743   4.822   2.108  11.026 -1.4262 -0.2775 -2.1970
15110TIP3   OH266744   1.768   4.488   0.506 -0.0001  0.2772 -0.1624
15110TIP3    H166745   1.837   4.498   0.439  0.5002 -2.3601 -0.1255
15110TIP3    H266746   1.703   4.432   0.465 -0.4004 -0.1844  1.0666
15111TIP3   OH266747   5.565   0.435  14.149 -0.2607  0.1517  0.2037
15111TIP3    H166748   5.516   0.515  14.169 -0.7340 -0.1016  0.0934
15111TIP3    H266749   5.653   0.451  14.182 -0.4304  0.6066  0.4443
15112TIP3   OH266750   3.860   2.305   5.530 -0.3121 -0.2443  0.1751
15112TIP3    H166751   3.882   2.281   5.620 -1.0097  1.8318  0.9662
15112TIP3    H266752   3.945   2.325   5.489  0.0475 -1.6063  0.2021
15113TIP3   OH266753   6.461   4.227   5.541 -0.5660  0.5610  0.4988
15113TIP3    H166754   6.547   4.214   5.501 -1.4603  1.1837 -1.7824
15113TIP3    H266755   6.451   4.153   5.601  1.1315 -0.0794  0.0392
15114TIP3   OH266756   0.950   3.964  13.183  0.5378 -0.3162  0.3536
15114TIP3    H166757   1.041   3.992  13.176  0.2890  1.0588  1.8578
15114TIP3    H266758   0.918   4.007  13.263 -1.6491 -0.1159 -0.5421
15115TIP3   OH266759   1.577   4.852   2.496 -0.1065  0.2256  0.1352
15115TIP3    H166760   1.574   4.933   2.445 -1.5578  0.6167  0.7890
15115TIP3    H266761   1.532   4.788   2.442  1.5061 -0.3331 -0.6194
15116TIP3   OH266762   5.608   0.737  14.064  0.0930 -0.5841 -0.3233
15116TIP3    H166763   5.672   0.805  14.085  0.2055 -1.3167  2.0639
15116TIP3    H266764   5.660   0.662  14.037  0.0150 -0.0846 -1.9605
15117TIP3   OH266765   1.154   1.053   5.683 -0.0697  0.2361  0.5517
15117TIP3    H166766   1.204   1.135   5.684  0.8752 -0.2305 -1.6862
15117TIP3    H266767   1.191   1.004   5.610 -4.0800  0.0209 -1.5823
15118TIP3   OH266768   5.781   5.522  14.394  0.2862 -0.7671  0.1772
15118TIP3    H166769   5.844   5.544  14.463 -0.5532  1.6040  0.2596
15118TIP3    H266770   5.831   5.530  14.312  0.0772  1.5483  0.2105
15119TIP3   OH266771   0.131   1.168   0.969  0.6628 -0.2884  0.2336
15119TIP3    H166772   0.094   1.097   1.022 -1.4835  1.2664  0.9714
15119TIP3    H266773   0.152   1.236   1.033  0.9662  0.4407 -0.6238
15120TIP3   OH266774   1.774   1.354  14.194 -0.0004 -0.3617  0.4304
15120TIP3    H166775   1.792   1.295  14.121  0.7841  1.5569 -1.0295
15120TIP3    H266776   1.860   1.374  14.231 -0.2270 -0.0050  0.7791
15121TIP3   OH266777   5.623   1.102   3.995 -0.1830 -0.1484  0.7396
15121TIP3    H166778   5.669   1.186   4.002 -1.4943  0.8526 -1.3195
15121TIP3    H266779   5.628   1.080   3.902 -1.9679 -1.0682  0.8222
15122TIP3   OH266780   0.985   6.208  16.728 -0.1839 -0.3260  0.0646
15122TIP3    H166781   0.916   6.215  16.662 -1.8630  1.1008  1.8759
15122TIP3    H266782   0.985   6.292  16.772  2.1861 -0.5928  0.6972
15123TIP3   OH266783   1.034   3.279   1.468  0.5010 -0.1786 -0.0196
15123TIP3    H166784   1.037   3.204   1.408  0.8213  1.0923 -1.6695
15123TIP3    H266785   0.957   3.329   1.441  0.6988  0.4680  0.5741
15124TIP3   OH266786   0.711   4.001  11.436 -0.3400  0.2937 -0.3464
15124TIP3    H166787   0.771   3.982  11.364 -0.8176  0.3337 -0.7602
15124TIP3    H266788   0.768   4.016  11.512  0.1584  0.0888 -0.6773
15125TIP3   OH266789   2.008   1.560  16.556  0.1140  0.2073  0.0240
15125TIP3    H166790   1.996   1.603  16.471  0.9830  0.8758  0.2184
15125TIP3    H266791   2.005   1.467  16.537  1.4689  0.3336 -0.9485
15126TIP3   OH266792   4.002   4.283   5.875 -0.3260  0.1536  0.2626
15126TIP3    H166793   3.937   4.223   5.912  1.1987 -0.6107  1.8363
15126TIP3    H266794   3.958   4.368   5.872 -1.9929 -0.6807 -0.4837
15127TIP3   OH266795   6.634   6.385   6.138  0.0472  0.0108  0.5944
15127TIP3    H166796   6.674   6.457   6.187  0.3102 -1.2979  2.3999
15127TIP3    H266797   6.678   6.306   6.170 -1.6504 -1.1549  0.1963
15128TIP3   OH266798   5.188   1.525   2.196 -0.6720  0.0819 -0.1090
15128TIP3    H166799   5.202   1.618   2.213 -1.1140  0.0380  0.5204
15128TIP3    H266800   5.108   1.522   2.144 -0.2795  0.0941 -0.7280
15129TIP3   OH266801   3.841   6.189  10.727 -0.4470 -0.5702 -0.3014
15129TIP3    H166802   3.749   6.162  10.730 -0.7989  0.2052 -2.7823
15129TIP3    H266803   3.882   6.129  10.664  0.1492  0.7641 -1.2119
15130TIP3   OH266804   4.102   5.581  15.230  0.2875 -0.4498 -1.0559
15130TIP3    H166805   4.103   5.501  15.283 -1.6907  0.7280  0.8896
15130TIP3    H266806   4.170   5.636  15.269 -1.0035  0.3199  0.1824
15131TIP3   OH266807   0.582   6.426   4.297 -0.4312 -0.0453  0.6349
15131TIP3    H166808   0.647   6.441   4.365 -1.0630  1.2390  0.9822
15131TIP3    H266809   0.625   6.450   4.215  0.0176 -0.6832  0.6759
15132TIP3   OH266810   3.936   0.286  16.478 -0.3255 -0.0887  0.5474
15132TIP3    H166811   3.936   0.280  16.383 -0.8602  3.5442  0.1888
15132TIP3    H266812   4.026   0.310  16.501 -0.9358  2.5565  0.5024
15133TIP3   OH266813   4.389   0.203   4.909 -0.1599  0.0146  0.6374
15133TIP3    H166814   4.294   0.197   4.899 -0.2166  1.1021  0.3718
15133TIP3    H266815   4.425   0.167   4.828 -0.4290  1.8756 -0.3626
15134TIP3   OH266816   6.706   4.325  12.001  0.1887 -0.1579 -0.2128
15134TIP3    H166817   6.749   4.284  12.076  0.1941  0.1429 -0.0510
15134TIP3    H266818   6.651   4.255  11.965  0.8166 -0.5489 -0.4317
15135TIP3   OH266819   3.645   2.312  14.093  0.2825 -0.3179  0.0813
15135TIP3    H166820   3.591   2.392  14.091  1.5437  0.5766 -1.5559
15135TIP3    H266821   3.637   2.280  14.182 -0.3902  1.5755  0.7617
15136TIP3   OH266822   5.538   4.383   4.731  0.0378 -0.8300 -0.4975
15136TIP3    H166823   5.613   4.378   4.791 -0.1930 -1.6130 -0.2768
15136TIP3    H266824   5.467   4.418   4.785  0.6233  1.4976 -1.0893
15137TIP3   OH266825   2.399   2.289  12.447  0.3492 -0.0954 -0.1315
15137TIP3    H166826   2.341   2.228  12.402 -2.0148  1.3786  0.7551
15137TIP3    H266827   2.411   2.360  12.385  0.8056 -0.1609 -0.1196
15138TIP3   OH266828   1.052   3.565  14.944 -0.0272  0.1584  0.2272
15138TIP3    H166829   1.029   3.562  14.851 -0.0022  1.3545  0.1584
15138TIP3    H266830   1.118   3.635  14.949 -0.5028  0.5427  1.2386
15139TIP3   OH266831   4.149   2.028   4.859  0.2472  0.4735  0.2615
15139TIP3    H166832   4.099   2.096   4.813 -0.1737  1.9488  2.7226
15139TIP3    H266833   4.175   1.967   4.790 -3.7271  0.3643 -1.3674
15140TIP3   OH266834   2.308   6.463  11.241  0.1383  0.1767  0.3313
15140TIP3    H166835   2.403   6.471  11.235  0.1167 -0.3935 -1.2929
15140TIP3    H266836   2.293   6.377  11.281  0.3347 -0.6189 -1.2227
15141TIP3   OH266837   6.056   3.383   3.429 -0.5751 -0.0122  0.1062
15141TIP3    H166838   6.146   3.359   3.450 -0.4454  0.4217  0.0613
15141TIP3    H266839   6.003   3.314   3.468 -0.3014  0.4187  1.2911
15142TIP3   OH266840   1.738   1.662  12.750 -0.1282 -0.5783  0.1436
15142TIP3    H166841   1.792   1.584  12.743 -0.8303 -0.9446 -2.6330
15142TIP3    H266842   1.800   1.733  12.769  1.3141 -1.0997 -2.2001
15143TIP3   OH266843   3.173   5.320   3.669 -0.1736  0.1563  0.1030
15143TIP3    H166844   3.221   5.317   3.752 -1.0643 -1.0467  0.6097
15143TIP3    H266845   3.218   5.387   3.617 -0.0595  1.5143  1.8504
15144TIP3   OH266846   4.821   3.104   4.458 -0.0650  0.0662 -0.0066
15144TIP3    H166847   4.797   3.191   4.491  1.0457 -0.1698  1.5384
15144TIP3    H266848   4.776   3.097   4.374 -0.2309  2.1044 -0.1366
15145TIP3   OH266849   4.956   1.685   4.009  0.0934 -0.2907 -0.3152
15145TIP3    H166850   5.030   1.686   3.949 -0.3901 -2.3505 -1.0218
15145TIP3    H266851   4.885   1.644   3.960 -0.6701 -0.9748  1.2839
15146TIP3   OH266852   2.318   4.291   1.972 -0.1109 -0.6536 -0.2431
15146TIP3    H166853   2.307   4.362   2.036  1.1931  1.2387 -1.9650
15146TIP3    H266854   2.396   4.245   2.002 -1.1865 -1.7016  1.1078
15147TIP3   OH266855   0.412   2.303  12.897 -0.7316 -0.6843  0.6850
15147TIP3    H166856   0.375   2.380  12.939 -2.0275  0.0239 -1.5744
15147TIP3    H266857   0.341   2.239  12.896 -0.5260 -0.9148  0.1882
15148TIP3   OH266858   6.467   0.359  13.446 -0.2170 -0.1226 -0.4283
15148TIP3    H166859   6.506   0.272  13.458 -0.0389 -0.4319 -2.7901
15148TIP3    H266860   6.450   0.390  13.535  0.8528 -2.0512  0.5141
15149TIP3   OH266861   1.270   0.963   1.858  0.5389 -0.1281  0.1061
15149TIP3    H166862   1.197   0.973   1.796 -1.0643 -2.1009  1.5458
15149TIP3    H266863   1.237   1.002   1.939  1.3336 -0.4886  0.6066
15150TIP3   OH266864   1.171   3.744  14.501  0.5965 -0.4664  0.1561
15150TIP3    H166865   1.263   3.768  14.498  0.7805 -0.0701  4.0251
15150TIP3    H266866   1.124   3.828  14.502 -0.0086 -0.6565 -2.8110
15151TIP3   OH266867   1.833   1.938  14.717  0.7730  0.6390 -0.2433
15151TIP3    H166868   1.817   1.999  14.789  1.2994  0.1396  0.3147
15151TIP3    H266869   1.779   1.970  14.645 -1.5288 -0.1421  1.0636
15152TIP3   OH266870   2.137   0.507  16.052  0.1212 -0.1341 -0.0819
15152TIP3    H166871   2.188   0.532  16.129 -0.6049 -0.6143  0.5709
15152TIP3    H266872   2.077   0.440  16.084 -0.7158  0.2076 -0.8930
15153TIP3   OH266873   1.962   2.824  12.534 -0.5661 -0.2952  0.1749
15153TIP3    H166874   2.007   2.812  12.451  1.7319 -1.1774  1.4748
15153TIP3    H266875   1.887   2.880  12.513  0.1698 -0.1829 -2.3953
15154TIP3   OH266876   1.557   2.508   4.809 -0.2399  0.0080  0.3809
15154TIP3    H166877   1.620   2.441   4.835 -2.3501 -2.2117  0.1032
15154TIP3    H266878   1.559   2.507   4.713  0.1832  0.8404  0.3730
15155TIP3   OH266879   4.215   3.626   1.820 -0.3874  0.0798  0.3905
15155TIP3    H166880   4.258   3.707   1.793 -1.4610  0.6572  0.3186
15155TIP3    H266881   4.135   3.624   1.767  0.1184 -1.5676 -0.3536
15156TIP3   OH266882   1.432   3.564   4.167  0.1926  0.1219 -0.2159
15156TIP3    H166883   1.451   3.565   4.261 -0.3594  1.6670 -0.0863
15156TIP3    H266884   1.364   3.498   4.157  1.4594 -1.2979  0.1820
15157TIP3   OH266885   3.065   4.734  11.498 -0.5715 -0.3752  0.2851
15157TIP3    H166886   3.139   4.676  11.515 -0.2980 -0.1635 -0.1794
15157TIP3    H266887   3.103   4.809  11.453 -0.8492  0.3984  1.3146
15158TIP3   OH266888   6.178   5.942  14.805 -0.2272 -0.0484 -0.8166
15158TIP3    H166889   6.116   5.971  14.873  0.3458 -2.8065  1.0513
15158TIP3    H266890   6.124   5.894  14.743 -0.2631 -0.8010 -0.2199
15159TIP3   OH266891   4.650   4.919   3.518  0.3239 -0.2377 -0.0195
15159TIP3    H166892   4.643   4.947   3.610 -0.0532 -0.5467  0.0464
15159TIP3    H266893   4.644   5.001   3.468  0.4286 -0.0773  0.2243
15160TIP3   OH266894   0.364   4.425  14.928  0.0085 -0.0041  0.0231
15160TIP3    H166895   0.373   4.397  15.019 -1.2864  0.2308  0.2442
15160TIP3    H266896   0.303   4.362  14.889  1.0552 -0.4935 -0.8781
15161TIP3   OH266897   3.277   0.146  12.692  0.4702  0.0010  0.1762
15161TIP3    H166898   3.330   0.185  12.761  0.2459 -1.4356  1.2008
15161TIP3    H266899   3.201   0.204  12.684  0.8950  0.6169  0.5472
15162TIP3   OH266900   0.936   4.416  16.142  0.0945 -0.0544  0.2354
15162TIP3    H166901   0.866   4.384  16.084  0.5903 -1.5794  0.4468
15162TIP3    H266902   0.998   4.344  16.146  2.3379  1.7052 -0.9035
15163TIP3   OH266903   4.688   1.827  14.505  0.1928 -0.0413  0.0173
15163TIP3    H166904   4.771   1.845  14.459 -0.9447 -0.5687 -2.4035
15163TIP3    H266905   4.700   1.740  14.542  0.5360 -0.3585 -0.8117
15164TIP3   OH266906   3.891   2.729   2.808 -0.1873 -0.0130 -0.3059
15164TIP3    H166907   3.953   2.794   2.841 -1.9121  2.6879 -1.9653
15164TIP3    H266908   3.864   2.680   2.885  3.6795 -1.1914  0.5343
15165TIP3   OH266909   3.121   2.869   2.852  0.2860 -0.2417  0.1076
15165TIP3    H166910   3.211   2.838   2.839  0.0125  0.1347 -3.7891
15165TIP3    H266911   3.132   2.958   2.885  1.4292  0.1959 -1.3289
15166TIP3   OH266912   5.635   0.745  12.744 -0.9836 -0.7283 -0.0027
15166TIP3    H166913   5.626   0.789  12.659  0.3457  0.0601  0.2419
15166TIP3    H266914   5.564   0.781  12.797 -1.1583 -0.4171 -0.4412
15167TIP3   OH266915   0.975   1.506   0.142  0.0196  0.3153 -0.7217
15167TIP3    H166916   0.887   1.506   0.181  0.3148  0.8275 -0.0347
15167TIP3    H266917   1.021   1.436   0.188  0.7551  1.7197  0.8118
15168TIP3   OH266918   6.042   0.970  14.687  0.0892 -0.1367 -0.5649
15168TIP3    H166919   5.955   0.960  14.725  0.3738 -1.0332 -0.1383
15168TIP3    H266920   6.079   1.047  14.730 -0.1850 -0.2356 -0.1512
15169TIP3   OH266921   1.802   0.952  15.275 -0.4453  0.4561 -0.0280
15169TIP3    H166922   1.817   0.977  15.366 -0.3320  1.7287 -0.3827
15169TIP3    H266923   1.865   0.882  15.259 -0.6891 -0.0090  0.9552
15170TIP3   OH266924   2.409   4.363   2.654  0.0838  0.2616  0.1482
15170TIP3    H166925   2.461   4.306   2.710  0.6466  0.8191  0.2116
15170TIP3    H266926   2.323   4.367   2.696  0.4252  0.4690  0.8440
15171TIP3   OH266927   3.138   2.909  11.401  0.1858  0.0403  0.1253
15171TIP3    H166928   3.225   2.876  11.426 -0.1563 -0.5468  0.5702
15171TIP3    H266929   3.146   3.004  11.407  0.4477 -0.0485  1.3752
15172TIP3   OH266930   3.371   3.380  13.188  0.2743 -0.1469  0.0501
15172TIP3    H166931   3.328   3.319  13.127  1.0760  0.0684 -0.7494
15172TIP3    H266932   3.414   3.444  13.132  2.3144 -0.7909  0.7609
15173TIP3   OH266933   2.043   5.962   3.762 -0.0485  0.3958  0.4734
15173TIP3    H166934   2.135   5.985   3.747  0.8994 -3.1390 -0.3454
15173TIP3    H266935   1.994   6.035   3.726  2.4674  0.9967 -2.2016
15174TIP3   OH266936   3.215   6.619   4.665  0.5024  0.1156  0.5259
15174TIP3    H166937   3.159   6.695   4.648  1.2974  0.9290  1.4836
15174TIP3    H266938   3.156   6.544   4.656 -0.5046  0.8944  0.4747
15175TIP3   OH266939   2.816   1.643  13.242  0.7254 -0.5788 -0.0272
15175TIP3    H166940   2.740   1.585  13.243  0.7666 -0.6277  0.2231
15175TIP3    H266941   2.835   1.656  13.149 -1.0643  1.3674 -0.2043
15176TIP3   OH266942   1.817   0.744   1.265  0.1370  0.5622  0.7135
15176TIP3    H166943   1.824   0.811   1.333  1.6300 -0.5939  1.7739
15176TIP3    H266944   1.742   0.691   1.291 -1.0371  1.7576 -0.1182
15177TIP3   OH266945   4.461   0.925   2.781  0.1399 -0.4676 -0.0608
15177TIP3    H166946   4.544   0.878   2.791  0.0117 -0.7044 -0.1038
15177TIP3    H266947   4.485   1.018   2.789  0.4891 -0.5028 -0.6156
15178TIP3   OH266948   5.805   1.462  16.422  0.0910 -0.1091  0.4529
15178TIP3    H166949   5.822   1.374  16.388 -0.4840 -0.3855  0.8609
15178TIP3    H266950   5.841   1.461  16.511  0.0003  0.0323  0.4921
15179TIP3   OH266951   0.974   3.403  11.307  0.2810  0.2634 -0.2932
15179TIP3    H166952   0.946   3.353  11.230 -0.1655  1.6860 -1.0732
15179TIP3    H266953   1.069   3.392  11.309  0.1447 -1.1254 -0.0724
15180TIP3   OH266954   2.553   1.628  14.993  0.1795  0.0434 -0.0932
15180TIP3    H166955   2.519   1.539  15.002  1.1324 -0.3655 -0.4551
15180TIP3    H266956   2.504   1.665  14.920 -0.6414  0.0316  0.4374
15181TIP3   OH266957   0.701   5.119   6.678  0.4184 -0.0260  0.1147
15181TIP3    H166958   0.732   5.166   6.600  0.3587  0.4783  0.3941
15181TIP3    H266959   0.781   5.099   6.727  0.4033  0.2270  0.2438
15182TIP3   OH266960   3.845   4.130  13.570 -0.6248 -0.5059  0.1360
15182TIP3    H166961   3.801   4.138  13.485 -0.4922 -2.5847 -0.1901
15182TIP3    H266962   3.864   4.220  13.596  0.3579  0.1618 -2.5839
15183TIP3   OH266963   5.347   3.393  14.473  0.4875 -0.6244  0.6231
15183TIP3    H166964   5.331   3.487  14.468 -1.7160 -0.7817  2.7538
15183TIP3    H266965   5.263   3.353  14.453  1.0048 -2.0779  1.1758
15184TIP3   OH266966   2.000   4.222  14.515 -0.4564  0.3170 -0.6244
15184TIP3    H166967   2.058   4.248  14.443 -0.6052  2.3961 -0.0644
15184TIP3    H266968   1.941   4.157  14.476  2.2459 -1.9770 -1.1720
15185TIP3   OH266969   0.934   1.022   1.227  0.2119  0.2460 -0.0579
15185TIP3    H166970   0.944   1.031   1.133  1.2446  0.4828  0.0623
15185TIP3    H266971   0.841   1.041   1.243  0.2955  1.4710 -0.8819
15186TIP3   OH266972   5.780   6.565  11.628  0.1774  0.6271  0.3144
15186TIP3    H166973   5.734   6.485  11.601  1.2446 -0.1218  0.6922
15186TIP3    H266974   5.798   6.610  11.546 -0.1444  0.3325  0.0751
15187TIP3   OH266975   2.692   2.449  16.618 -0.3334  0.1488  0.1039
15187TIP3    H166976   2.766   2.476  16.672  0.3131  0.4410 -0.8879
15187TIP3    H266977   2.723   2.460  16.528 -1.3766 -0.3119 -0.3327
15188TIP3   OH266978   3.658   5.467  11.508 -0.1315 -0.0344 -0.3891
15188TIP3    H166979   3.683   5.515  11.587 -0.6261 -1.2630  0.5352
15188TIP3    H266980   3.564   5.483  11.499  0.0858  0.8698 -1.2920
15189TIP3   OH266981   3.575   0.405   2.906 -0.0687 -0.0583 -0.0246
15189TIP3    H166982   3.540   0.491   2.884  1.9605  0.2843 -2.4954
15189TIP3    H266983   3.500   0.345   2.899 -1.4123  1.4033  1.3046
15190TIP3   OH266984   1.616   5.066   2.288  0.1047 -0.0188  0.1322
15190TIP3    H166985   1.696   5.108   2.320  0.0332 -0.7229  1.3017
15190TIP3    H266986   1.623   5.071   2.193  0.9843  0.9597  0.2299
15191TIP3   OH266987   0.398   2.127  16.631 -0.3437 -0.1428  0.4280
15191TIP3    H166988   0.358   2.206  16.670  0.4003  0.8535 -0.7571
15191TIP3    H266989   0.324   2.067  16.621 -0.8438  0.1697  1.8375
15192TIP3   OH266990   4.983   4.562  10.935 -0.0700  0.1179  0.1129
15192TIP3    H166991   5.068   4.602  10.917 -0.8388  1.3131 -1.1110
15192TIP3    H266992   4.932   4.577  10.855 -1.6556  0.0684  1.0554
15193TIP3   OH266993   4.022   3.862   3.334 -0.0836 -0.3294  0.1973
15193TIP3    H166994   4.035   3.876   3.427  1.7494 -0.8420  0.0540
15193TIP3    H266995   3.961   3.932   3.307  1.4281  1.4831  1.2621
15194TIP3   OH266996   6.090   6.094   4.752 -0.3930  0.1915 -0.1267
15194TIP3    H166997   6.039   6.036   4.695  0.3107  0.3640 -0.9619
15194TIP3    H266998   6.032   6.112   4.826 -1.7937  0.8507 -1.3077
15195TIP3   OH266999   1.060   5.626  15.465  0.2323  0.5303  0.5537
15195TIP3    H167000   1.114   5.672  15.529  0.4610 -0.1539  0.8687
15195TIP3    H267001   1.117   5.616  15.388  0.3479  0.3573  0.6598
15196TIP3   OH267002   1.586   4.940   3.092 -0.1615  0.1473 -0.0522
15196TIP3    H167003   1.589   4.855   3.135 -1.1947  0.1038 -0.0395
15196TIP3    H267004   1.499   4.975   3.113  0.0953  1.0300 -0.3881
15197TIP3   OH267005   4.751   2.953  16.669 -0.1136 -0.0544  0.2987
15197TIP3    H167006   4.766   2.858  16.677  0.6173  0.0785  0.5733
15197TIP3    H267007   4.736   2.982  16.759  1.8334  0.4275  0.5189
15198TIP3   OH267008   5.011   5.554  10.780 -0.2763 -0.1367 -0.1165
15198TIP3    H167009   4.995   5.564  10.686  1.9101 -1.4177 -0.6963
15198TIP3    H267010   4.983   5.466  10.801  1.4086 -0.7249 -0.1484
15199TIP3   OH267011   6.019   5.449  16.848  0.0922  0.3851 -0.5090
15199TIP3    H167012   5.949   5.479  16.790 -0.0910  0.8501 -0.0589
15199TIP3    H267013   6.023   5.516  16.917  1.4373  0.7363 -0.8959
15200TIP3   OH267014   6.604   0.298   2.336 -0.1870  0.1475  0.4057
15200TIP3    H167015   6.518   0.290   2.295  0.5678 -0.0089 -1.2159
15200TIP3    H267016   6.606   0.228   2.402 -1.1630 -0.0676  0.2160
15201TIP3   OH267017   4.389   4.247   5.062  0.6424 -0.1510 -0.1171
15201TIP3    H167018   4.369   4.298   5.140  0.8505 -2.0458  1.2340
15201TIP3    H267019   4.477   4.212   5.077  1.3176  0.6077 -1.8896
15202TIP3   OH267020   2.526   2.619  11.743  0.2058 -0.6368 -0.1659
15202TIP3    H167021   2.437   2.618  11.708  0.5180  0.5354 -1.0385
15202TIP3    H267022   2.552   2.711  11.741  1.1740 -0.8650  0.7926
15203TIP3   OH267023   3.820   5.873  16.224  0.3134  0.3024 -0.3435
15203TIP3    H167024   3.902   5.916  16.199 -0.4746  0.9146 -2.0221
15203TIP3    H267025   3.797   5.819  16.149  0.3090 -1.6936  0.9982
15204TIP3   OH267026   4.272   2.893   0.438  0.1794  0.1949  0.1424
15204TIP3    H167027   4.360   2.869   0.466  1.4960  1.8674 -2.2031
15204TIP3    H267028   4.239   2.951   0.506  1.4746  0.6740  0.3818
15205TIP3   OH267029   4.113   3.678   0.375  0.1722 -0.0234  0.1419
15205TIP3    H167030   4.186   3.649   0.320  1.7264  1.8839  1.0743
15205TIP3    H267031   4.129   3.772   0.388 -1.5290  0.0931  1.7940
15206TIP3   OH267032   2.209   2.760  12.629 -0.3023 -0.2958 -0.2486
15206TIP3    H167033   2.247   2.828  12.685 -0.8255 -0.4154  0.2703
15206TIP3    H267034   2.127   2.799  12.597  0.0835 -0.1601 -1.0868
15207TIP3   OH267035   2.928   2.193  12.609 -0.0065  0.9053  0.1042
15207TIP3    H167036   3.017   2.226  12.601  0.5501 -0.1434  1.5581
15207TIP3    H267037   2.882   2.262  12.657  0.1654  1.1958 -0.1434
15208TIP3   OH267038   3.443   3.864  16.191  0.3009  0.0447 -0.6452
15208TIP3    H167039   3.457   3.771  16.173 -0.0265 -0.1606  0.1489
15208TIP3    H267040   3.374   3.889  16.130  0.1964 -0.2962 -0.6711
15209TIP3   OH267041   3.584   0.559  14.375 -0.0689  0.0089 -0.3621
15209TIP3    H167042   3.502   0.537  14.331 -0.8655 -0.5012  1.2800
15209TIP3    H267043   3.645   0.580  14.305 -1.8902  1.4219 -1.6079
15210TIP3   OH267044   4.643   6.376   6.433 -0.3705 -0.0524  0.0099
15210TIP3    H167045   4.704   6.391   6.360 -0.9561 -0.7208 -0.6448
15210TIP3    H267046   4.613   6.463   6.458  0.1734  0.2161 -0.2574
15211TIP3   OH267047   5.115   5.254   4.241 -0.2045  0.5620  0.2406
15211TIP3    H167048   5.112   5.221   4.331 -3.0245  0.2878  0.1269
15211TIP3    H267049   5.104   5.349   4.249  1.3955  0.7879  0.2158
15212TIP3   OH267050   6.700   2.320   1.479 -0.0017  0.5329  0.2868
15212TIP3    H167051   6.708   2.306   1.574  0.5132 -1.2803  0.0069
15212TIP3    H267052   6.719   2.413   1.468  1.1395  0.5406  1.8517
15213TIP3   OH267053   4.921   1.940  14.818  0.0075  0.0384 -0.0658
15213TIP3    H167054   4.834   1.913  14.847 -0.1338 -1.2231 -1.5147
15213TIP3    H267055   4.924   2.033  14.837 -1.3498 -0.0432  0.7471
15214TIP3   OH267056   0.607   3.477  12.662 -0.1316  0.1055  0.3336
15214TIP3    H167057   0.621   3.533  12.585 -2.1408  0.7986  0.4263
15214TIP3    H267058   0.528   3.427  12.641  1.7068 -2.9611  0.1570
15215TIP3   OH267059   1.373   4.154  16.320  0.1328 -0.7902 -0.2952
15215TIP3    H167060   1.344   4.193  16.403  1.4737  1.8775 -0.9549
15215TIP3    H267061   1.349   4.219  16.254  1.3030 -1.7043 -1.6732
15216TIP3   OH267062   5.614   3.396  11.185 -0.4930  0.3181 -0.2944
15216TIP3    H167063   5.576   3.339  11.117  1.6749 -1.1288 -0.3665
15216TIP3    H267064   5.678   3.450  11.138  1.1148 -0.7804  0.5682
15217TIP3   OH267065   2.756   3.066  12.644 -0.1743  0.7802  0.1153
15217TIP3    H167066   2.801   3.089  12.562 -1.3116  0.7246 -0.5549
15217TIP3    H267067   2.807   3.109  12.712 -0.8241  3.3247 -0.8780
15218TIP3   OH267068   4.246   6.348  16.627  0.0071 -0.5932 -0.0952
15218TIP3    H167069   4.250   6.428  16.574  0.1765 -0.6354 -0.1474
15218TIP3    H267070   4.224   6.279  16.564 -0.9098 -0.4679  0.0851
15219TIP3   OH267071   6.767   4.202  15.843  0.0156  0.9603 -0.0814
15219TIP3    H167072   6.694   4.140  15.840 -1.8321  2.9727  0.3588
15219TIP3    H267073   6.737   4.271  15.903  1.3968  2.9010 -1.5003
15220TIP3   OH267074   5.485   3.940   0.718 -0.3173 -0.0122  0.4809
15220TIP3    H167075   5.432   3.872   0.759  0.0513  0.2199  1.3718
15220TIP3    H267076   5.546   3.968   0.786  1.9601 -1.2761 -0.9201
15221TIP3   OH267077   6.717   2.601  11.641 -0.3232 -0.2728  0.1239
15221TIP3    H167078   6.658   2.610  11.566  0.5454  0.2027 -0.5064
15221TIP3    H267079   6.658   2.588  11.716 -1.3591  2.5568 -0.0981
15222TIP3   OH267080   1.083   0.027   3.126  0.4619  0.0385 -0.0317
15222TIP3    H167081   1.023  -0.016   3.187  1.0526  0.0883  0.6004
15222TIP3    H267082   1.166   0.031   3.174  0.8263  0.4495 -0.6898
15223TIP3   OH267083   2.634   6.625   6.367  0.0804 -0.0806 -0.2591
15223TIP3    H167084   2.693   6.583   6.430  0.4387  0.7545 -0.0202
15223TIP3    H267085   2.686   6.632   6.287  0.6710  1.4732  0.2074
15224TIP3   OH267086   1.794   6.240  16.955 -0.1177  0.2546  0.2206
15224TIP3    H167087   1.824   6.267  17.042 -0.4452  1.8136 -0.1120
15224TIP3    H267088   1.702   6.216  16.967  0.4414 -1.8346  0.7153
15225TIP3   OH267089   4.673   4.470  13.759  0.1012 -0.3225  0.4360
15225TIP3    H167090   4.675   4.517  13.842 -0.8532  0.0443  0.2606
15225TIP3    H267091   4.725   4.391  13.775  0.6190  0.1459  1.1245
15226TIP3   OH267092   1.150   1.695   4.540  0.2475  0.0107 -0.2353
15226TIP3    H167093   1.229   1.705   4.486 -0.1065  0.7638 -0.6253
15226TIP3    H267094   1.140   1.779   4.585  0.0154 -0.2939  0.2995
15227TIP3   OH267095   0.069   5.879   3.277 -0.4903  0.3241 -0.2575
15227TIP3    H167096   0.148   5.838   3.240  1.0177  1.9255  1.0126
15227TIP3    H267097   0.048   5.949   3.216 -1.8826 -0.9829 -1.3712
15228TIP3   OH267098   1.348   4.366   6.089  0.1731  0.3222 -0.1848
15228TIP3    H167099   1.327   4.437   6.150 -2.4339 -0.7650  0.3223
15228TIP3    H267100   1.280   4.370   6.023  1.4951 -0.1387 -1.6226
15229TIP3   OH267101   5.324   2.920  11.968  0.0156 -0.1227 -0.1911
15229TIP3    H167102   5.310   2.881  11.881 -0.8925 -0.3761  0.0568
15229TIP3    H267103   5.236   2.929  12.004  0.2626  1.3752  0.1069
15230TIP3   OH267104   2.563   2.582  15.615 -0.1622  0.2085  0.4955
15230TIP3    H167105   2.552   2.669  15.653  1.0300  0.2162  0.8739
15230TIP3    H267106   2.644   2.549  15.655  0.9173  0.0377 -1.7233
15231TIP3   OH267107   2.785   1.360  13.009 -0.0203 -0.4374  0.1739
15231TIP3    H167108   2.818   1.288  12.954  1.8150  0.4479  0.0362
15231TIP3    H267109   2.839   1.356  13.088 -0.0985  0.5984  0.2946
15232TIP3   OH267110   0.389   6.141  10.750 -0.2723  0.4150  0.2146
15232TIP3    H167111   0.457   6.074  10.758 -0.6254 -0.0296 -0.4406
15232TIP3    H267112   0.427   6.219  10.790 -0.3626 -0.5285  2.2410
15233TIP3   OH267113   6.565   2.880  13.961  0.2494  0.3485 -0.3805
15233TIP3    H167114   6.629   2.818  13.926 -0.8440 -0.3198 -1.2916
15233TIP3    H267115   6.564   2.864  14.055 -0.7991 -1.8461 -0.7021
15234TIP3   OH267116   2.234   3.787  10.846 -0.3651 -0.1032 -0.1082
15234TIP3    H167117   2.240   3.726  10.772 -0.1189 -0.1444 -0.0552
15234TIP3    H267118   2.214   3.871  10.805 -2.1086 -0.4631 -0.0835
15235TIP3   OH267119   1.288   1.242  16.128 -0.1827 -0.6862  0.0396
15235TIP3    H167120   1.293   1.338  16.118 -1.1900 -0.4994  1.1264
15235TIP3    H267121   1.365   1.219  16.178 -0.6735 -0.2365  1.0336
15236TIP3   OH267122   6.192   1.457  13.681  0.0183  0.3415  0.3005
15236TIP3    H167123   6.169   1.364  13.672 -1.6427  0.7273  0.0697
15236TIP3    H267124   6.280   1.457  13.716  0.6100 -1.3186 -1.0435
15237TIP3   OH267125   2.677   1.096  15.357  0.0889  0.3227  0.5305
15237TIP3    H167126   2.695   1.003  15.345  2.5498  0.4373  2.4802
15237TIP3    H267127   2.732   1.141  15.293 -0.9437  0.4825 -0.2726
15238TIP3   OH267128   1.156   4.732  17.060 -0.1048  0.1695 -0.7006
15238TIP3    H167129   1.231   4.790  17.072  1.3921 -1.9153  0.5205
15238TIP3    H267130   1.184   4.669  16.994 -1.3517  0.1850 -1.2844
15239TIP3   OH267131   0.224   4.363  16.302  0.4902 -0.5042 -0.2500
15239TIP3    H167132   0.301   4.307  16.304  0.5675 -0.4027 -0.3595
15239TIP3    H267133   0.243   4.428  16.233 -0.2084 -1.2270 -1.1529
15240TIP3   OH267134   1.092   3.461  12.174 -0.3957  0.7279 -0.3098
15240TIP3    H167135   1.038   3.413  12.111  0.1345  0.3083 -0.4479
15240TIP3    H267136   1.098   3.549  12.136  0.5728  0.2733 -1.2730
15241TIP3   OH267137   4.564   0.839   1.108 -0.0256  0.0252 -0.1119
15241TIP3    H167138   4.521   0.903   1.051 -0.0269 -0.6440 -0.8906
15241TIP3    H267139   4.510   0.838   1.187 -0.9900 -0.1991 -0.7444
15242TIP3   OH267140   1.153   1.087  15.238 -0.0209  0.5823 -0.1984
15242TIP3    H167141   1.075   1.126  15.277 -0.0667 -0.3966  0.7379
15242TIP3    H267142   1.134   0.994  15.235  1.3591  0.2398  0.6797
15243TIP3   OH267143   2.110   1.833  11.353  0.9496 -0.0324  0.0989
15243TIP3    H167144   2.036   1.884  11.320 -0.8144 -1.6739  1.2971
15243TIP3    H267145   2.154   1.891  11.415  0.0102  0.6156  0.1746
15244TIP3   OH267146   2.899   3.185   2.760 -0.2964  0.3055 -0.1418
15244TIP3    H167147   2.863   3.267   2.793  0.8062  1.6963 -2.1252
15244TIP3    H267148   2.908   3.129   2.837  0.0525  2.4840  1.4957
15245TIP3   OH267149   5.155   4.058  11.351  0.2024 -0.4234  0.1185
15245TIP3    H167150   5.099   4.109  11.410  0.5514  0.5331 -0.3605
15245TIP3    H267151   5.094   4.004  11.301 -0.0730 -1.6662  1.7008
15246TIP3   OH267152   6.553   4.060  16.066  0.4569 -0.6471  0.0458
15246TIP3    H167153   6.589   4.039  16.152  0.2067 -0.4721  0.1953
15246TIP3    H267154   6.577   3.986  16.010 -0.1116 -1.1551  0.4734
15247TIP3   OH267155   6.132   1.167  15.982 -0.7901  0.1776 -0.6468
15247TIP3    H167156   6.036   1.175  15.986 -0.8443 -0.6767  0.2106
15247TIP3    H267157   6.160   1.239  15.925 -1.7856  1.6365  0.6078
15248TIP3   OH267158   2.324   6.002   2.386 -0.2501  0.1496  0.1312
15248TIP3    H167159   2.340   5.920   2.339  0.6966  0.8851 -0.8624
15248TIP3    H267160   2.296   5.974   2.473  2.2340 -1.2766  0.5551
15249TIP3   OH267161   1.277   5.156  15.608  0.8513 -0.0997 -0.3649
15249TIP3    H167162   1.201   5.098  15.602 -0.3650  1.3727  0.3644
15249TIP3    H267163   1.346   5.101  15.643 -0.2405 -1.1502  0.2039
15250TIP3   OH267164   2.915   2.330  11.968 -0.1543 -0.4735  0.2050
15250TIP3    H167165   2.856   2.347  12.042 -1.9562  0.7337 -1.4390
15250TIP3    H267166   2.866   2.356  11.891  1.8103 -1.3633 -1.4411
15251TIP3   OH267167   1.826   3.422  13.968 -0.0794 -0.2525  0.0835
15251TIP3    H167168   1.735   3.442  13.945  0.2158  2.0572  0.7461
15251TIP3    H267169   1.866   3.395  13.885 -1.4906 -2.0605 -0.0851
15252TIP3   OH267170   3.233   6.047  15.440 -0.0607 -0.3943  0.2059
15252TIP3    H167171   3.294   5.983  15.476 -0.8286 -0.0941  2.1604
15252TIP3    H267172   3.157   5.995  15.411  0.3936 -0.5950 -0.6663
15253TIP3   OH267173   5.186   5.522   0.047  0.5819  0.2235  0.3837
15253TIP3    H167174   5.131   5.541   0.123  0.6546  0.3542  0.4045
15253TIP3    H267175   5.172   5.429   0.030  0.1290  0.3235  0.2072
15254TIP3   OH267176   1.013   2.708  12.865 -0.3126 -0.2553  0.3593
15254TIP3    H167177   1.053   2.791  12.893  1.1931 -0.6058 -0.6150
15254TIP3    H267178   0.921   2.716  12.890 -0.2996  1.9055 -0.1006
15255TIP3   OH267179   1.743   2.765   4.041  0.0070  0.0907  0.0775
15255TIP3    H167180   1.743   2.747   4.135 -0.1206 -1.4693 -0.1915
15255TIP3    H267181   1.819   2.821   4.027 -0.2302  0.7101  1.1599
15256TIP3   OH267182   4.378   4.295   4.596 -0.5375  0.2672  0.2710
15256TIP3    H167183   4.303   4.276   4.652 -1.0875  2.4732  0.4003
15256TIP3    H267184   4.363   4.243   4.517 -0.9263 -1.1480  1.2405
15257TIP3   OH267185   4.125   0.850  11.154  0.5518  0.1196 -0.1865
15257TIP3    H167186   4.055   0.880  11.097  0.6642 -2.1672 -1.6682
15257TIP3    H267187   4.081   0.793  11.218  0.7613  0.5701  0.3626
15258TIP3   OH267188   3.483   4.219  11.068 -0.1072 -0.6377  0.2909
15258TIP3    H167189   3.500   4.187  10.979 -0.6471 -0.9212  0.2838
15258TIP3    H267190   3.563   4.267  11.092  0.3188 -1.1418 -0.0836
15259TIP3   OH267191   1.502   4.831   4.790  0.1933 -0.3193 -0.5379
15259TIP3    H167192   1.414   4.857   4.819  0.8802  1.1424  0.3506
15259TIP3    H267193   1.560   4.893   4.833  1.7569 -1.8727 -0.3214
15260TIP3   OH267194   3.304   3.465   0.896  0.1727 -0.0919  0.1286
15260TIP3    H167195   3.317   3.372   0.915 -1.2679 -0.4009 -0.2731
15260TIP3    H267196   3.269   3.467   0.807 -0.4526  0.7896  0.3769
15261TIP3   OH267197   2.631   5.661  11.557 -0.1744  0.1061 -0.3897
15261TIP3    H167198   2.647   5.647  11.650 -0.7138  1.1206 -0.1363
15261TIP3    H267199   2.671   5.585  11.515 -0.4431 -0.6643  0.7025
15262TIP3   OH267200   6.528   1.044   1.897  0.2237 -0.2399  0.0145
15262TIP3    H167201   6.462   1.111   1.881  1.5223  0.7820 -1.3166
15262TIP3    H267202   6.508   1.011   1.984 -1.1913  1.0051  0.2010
15263TIP3   OH267203   2.016   5.942  14.004  0.3404  0.0052  0.1598
15263TIP3    H167204   2.102   5.981  13.989  0.7528 -1.5037 -1.8635
15263TIP3    H267205   1.954   6.010  13.975  0.8491  0.7568  0.7828
15264TIP3   OH267206   4.644   6.441  14.813  0.4077  0.4640  0.3142
15264TIP3    H167207   4.640   6.409  14.903 -3.6542 -2.7711 -0.6770
15264TIP3    H267208   4.676   6.367  14.762 -2.0222  0.3745 -1.2907
15265TIP3   OH267209   4.130   1.264   3.314 -0.4640  0.2603  0.1287
15265TIP3    H167210   4.174   1.183   3.286 -1.2897  0.1179 -0.8290
15265TIP3    H267211   4.053   1.269   3.257 -1.2385  0.9325  1.2160
15266TIP3   OH267212   3.185   6.129   4.586  0.2656  0.5136 -0.3383
15266TIP3    H167213   3.231   6.050   4.557  0.8089  0.8289 -0.3504
15266TIP3    H267214   3.095   6.100   4.601  0.6367 -0.2934  0.4327
15267TIP3   OH267215   2.884   3.794  15.645 -0.4374  0.1482  0.2966
15267TIP3    H167216   2.812   3.847  15.609  0.1489  1.7795  1.3949
15267TIP3    H267217   2.861   3.704  15.623 -0.5090  0.9234 -3.4719
15268TIP3   OH267218   0.772   2.649   0.423 -0.4260 -0.3725 -0.3113
15268TIP3    H167219   0.700   2.713   0.427  0.8662  1.5715 -3.7812
15268TIP3    H267220   0.821   2.663   0.504 -2.4433  0.0615  0.9183
15269TIP3   OH267221   4.900   5.964  12.749 -0.3021  0.0999 -0.1452
15269TIP3    H167222   4.934   5.904  12.816 -3.5328 -1.7691  0.0078
15269TIP3    H267223   4.913   5.917  12.667 -0.4481  0.3669 -0.3196
15270TIP3   OH267224   6.267   1.449   2.692  0.3521 -0.2306  0.1391
15270TIP3    H167225   6.282   1.517   2.627  1.2116 -0.5696 -0.0339
15270TIP3    H267226   6.173   1.452   2.710  0.2732  0.5168 -0.3919
15271TIP3   OH267227   5.984   4.413   4.630 -0.2432  0.8652 -0.3902
15271TIP3    H167228   5.980   4.457   4.546 -0.0365  2.2542  0.3021
15271TIP3    H267229   6.041   4.468   4.684 -1.2528  0.6104  1.0039
15272TIP3   OH267230   2.546   3.569  10.800  0.3951  0.6807 -0.3499
15272TIP3    H167231   2.589   3.495  10.756 -0.1210 -0.0303  0.3074
15272TIP3    H267232   2.464   3.580  10.751 -0.4568 -0.4933  0.7366
15273TIP3   OH267233   3.298   4.241  14.973 -0.2155 -0.2479  0.3050
15273TIP3    H167234   3.330   4.282  14.893  1.4399  0.0495  1.0883
15273TIP3    H267235   3.237   4.174  14.942  1.2754 -0.9458 -1.3009
15274TIP3   OH267236   2.816   2.586  15.716 -0.3792 -0.0780  0.2659
15274TIP3    H167237   2.878   2.514  15.724 -0.5114 -0.2356 -0.1236
15274TIP3    H267238   2.849   2.638  15.643  0.4221  0.9553  1.3272
15275TIP3   OH267239   0.050   1.723   1.451 -0.3991 -0.2865  0.3355
15275TIP3    H167240   0.094   1.788   1.397 -1.0166  3.5990  3.9718
15275TIP3    H267241  -0.042   1.729   1.425 -0.3860 -0.0456  0.3434
15276TIP3   OH267242   5.936   4.751   2.794  0.1038 -0.5598  0.2932
15276TIP3    H167243   5.945   4.718   2.705 -0.3875 -0.1307  0.0820
15276TIP3    H267244   5.854   4.713   2.826  0.3865 -0.8864  0.6410
15277TIP3   OH267245   1.915   4.629   4.648 -0.4009  0.0369  0.6946
15277TIP3    H167246   1.905   4.705   4.705  0.1676 -0.3264  1.2974
15277TIP3    H267247   2.002   4.596   4.668 -0.1953 -0.1070 -0.3896
15278TIP3   OH267248   2.235   1.650  14.501 -1.1541 -0.2942 -0.0919
15278TIP3    H167249   2.230   1.595  14.423 -1.1586  0.9625 -1.0132
15278TIP3    H267250   2.212   1.592  14.573 -0.0641 -1.7675 -0.8776
15279TIP3   OH267251   0.890   4.086  10.675 -0.1814 -0.7153 -0.1763
15279TIP3    H167252   0.827   4.029  10.718  0.8910 -2.2815 -0.5683
15279TIP3    H267253   0.975   4.052  10.702  0.5247  1.2514  0.2326
15280TIP3   OH267254   1.670   0.571  16.537  0.1264  0.2752 -0.2025
15280TIP3    H167255   1.628   0.526  16.464 -1.2274  0.3069  0.5215
15280TIP3    H267256   1.602   0.575  16.605  1.3725  0.1845  1.0857
15281TIP3   OH267257   1.743   1.795   2.540  0.2932 -0.3254  0.1713
15281TIP3    H167258   1.759   1.821   2.449 -0.1981  1.8257  0.6536
15281TIP3    H267259   1.681   1.722   2.533  0.3794 -0.2958 -1.2120
15282TIP3   OH267260   0.336   5.255  14.110 -0.0009 -0.0620 -0.2712
15282TIP3    H167261   0.365   5.345  14.127 -0.3417  0.3824 -1.8972
15282TIP3    H267262   0.265   5.241  14.173  0.2384  0.7143  0.1882
15283TIP3   OH267263   1.832   0.776   3.605  0.6653  0.5697  0.6873
15283TIP3    H167264   1.891   0.737   3.670  2.6658  0.8570 -0.8784
15283TIP3    H267265   1.828   0.713   3.534 -1.8285  0.0805  1.1777
15284TIP3   OH267266   0.726   2.665  11.942 -0.0656 -0.6284  0.0604
15284TIP3    H167267   0.820   2.681  11.949  0.3198 -2.4370 -0.3737
15284TIP3    H267268   0.694   2.668  12.032  0.2351  0.7764  0.1414
15285TIP3   OH267269   0.626   4.618   4.236 -0.9004  0.4872 -0.5141
15285TIP3    H167270   0.547   4.576   4.270  0.1534 -1.0069  0.1661
15285TIP3    H267271   0.692   4.605   4.304  0.0137  1.5343 -1.1576
15286TIP3   OH267272   5.066   1.782  16.028 -0.6723 -0.1090  0.2192
15286TIP3    H167273   5.006   1.854  16.010  0.1299  0.5281  0.0123
15286TIP3    H267274   5.023   1.704  15.993 -1.0806  0.4411 -0.5125
15287TIP3   OH267275   3.751   0.296   4.120 -0.7567 -0.1051  0.2108
15287TIP3    H167276   3.816   0.366   4.111 -0.1889 -0.5404  0.8391
15287TIP3    H267277   3.667   0.341   4.116 -0.4407  0.4412 -0.8944
15288TIP3   OH267278   6.375   3.048  16.154 -0.4110  0.4142 -0.2130
15288TIP3    H167279   6.390   2.957  16.128  1.9099  0.9970 -1.1561
15288TIP3    H267280   6.299   3.044  16.212 -0.4684 -2.0874 -0.3472
15289TIP3   OH267281   2.438   3.244  14.893 -0.5690 -0.0656 -0.0767
15289TIP3    H167282   2.528   3.265  14.918 -0.5561 -0.2264  0.0124
15289TIP3    H267283   2.388   3.250  14.974 -0.0471 -3.3588  0.6325
15290TIP3   OH267284   6.795   5.869   0.400 -0.1339  0.0668 -0.8600
15290TIP3    H167285   6.761   5.781   0.415 -0.5698  0.1121 -1.5740
15290TIP3    H267286   6.868   5.877   0.462 -1.3195 -0.0672  0.6049
15291TIP3   OH267287   5.245   5.197  16.795  0.2620  0.1611  0.3463
15291TIP3    H167288   5.189   5.160  16.727  0.8467 -0.6166  0.2742
15291TIP3    H267289   5.322   5.228  16.748  1.4659 -1.9379  0.7854
15292TIP3   OH267290   5.364   1.833  16.950 -0.3417 -0.1419 -0.1711
15292TIP3    H167291   5.351   1.909  17.007 -1.6815  1.7843 -2.8337
15292TIP3    H267292   5.408   1.769  17.006  1.1829  2.6642  2.1523
15293TIP3   OH267293   6.740   5.613  15.229 -0.2757  0.6321  0.4133
15293TIP3    H167294   6.793   5.549  15.275 -2.1652 -0.1009  1.7368
15293TIP3    H267295   6.766   5.697  15.266  1.2572  0.5121 -0.3451
15294TIP3   OH267296   2.600   2.708   4.410 -0.0913 -0.6684 -0.0251
15294TIP3    H167297   2.612   2.803   4.412 -3.1239 -0.1833  0.2566
15294TIP3    H267298   2.653   2.676   4.483 -0.0776  0.9868  0.7537
15295TIP3   OH267299   1.596   2.627  12.669 -0.3455  0.1557  0.4812
15295TIP3    H167300   1.586   2.714  12.630 -1.5178 -0.0632  0.2453
15295TIP3    H267301   1.622   2.645  12.760  0.5812  0.7127  0.1179
15296TIP3   OH267302   6.410   2.196  14.152 -0.0281 -0.1507 -0.0522
15296TIP3    H167303   6.397   2.288  14.174  0.2751 -0.6399  2.5434
15296TIP3    H267304   6.366   2.148  14.223  1.1659 -1.9780 -0.4675
15297TIP3   OH267305   3.613   1.343  12.231 -0.1839 -0.2795 -0.0405
15297TIP3    H167306   3.601   1.253  12.201 -1.7183 -0.3000  0.5652
15297TIP3    H267307   3.614   1.395  12.151  0.0043 -0.7499 -0.3499
15298TIP3   OH267308   0.204   2.916   4.641 -0.0127  0.4456 -0.2486
15298TIP3    H167309   0.131   2.890   4.697  0.1315 -2.2392 -1.1731
15298TIP3    H267310   0.276   2.936   4.701 -0.3504 -0.7702  0.5822
15299TIP3   OH267311   2.130   0.739  11.904  0.2452 -0.2964  0.6578
15299TIP3    H167312   2.188   0.798  11.952  1.2928 -0.0982 -0.8061
15299TIP3    H267313   2.135   0.656  11.951  2.0388 -0.3947  0.3565
15300TIP3   OH267314   4.778   4.390   2.219  0.1615 -0.5166 -0.0493
15300TIP3    H167315   4.746   4.461   2.276 -0.9851 -0.7362 -0.3969
15300TIP3    H267316   4.740   4.409   2.134  0.6120 -1.0508 -0.3753
15301TIP3   OH267317   2.887   0.559  11.956 -0.2447  0.1975 -0.2216
15301TIP3    H167318   2.864   0.471  11.927 -0.1152  0.7415 -2.0593
15301TIP3    H267319   2.926   0.546  12.043  2.0019 -1.8533 -1.4135
15302TIP3   OH267320   2.353   6.153  13.207 -0.1588 -0.4313  0.3594
15302TIP3    H167321   2.425   6.176  13.266 -0.1090  1.2598 -0.3283
15302TIP3    H267322   2.292   6.226  13.215 -0.0079 -0.0108 -1.9060
15303TIP3   OH267323   1.754   5.544  15.987  0.1150 -0.1334  0.1242
15303TIP3    H167324   1.669   5.588  15.978 -0.3516 -0.7894  1.1050
15303TIP3    H267325   1.736   5.453  15.963  0.4331 -0.3737  0.7832
15304TIP3   OH267326   2.268   0.476   2.525 -0.4549 -0.1754  0.3263
15304TIP3    H167327   2.312   0.417   2.465 -2.1129  0.0120 -1.1447
15304TIP3    H267328   2.221   0.538   2.469 -0.9088  0.9077  1.8154
15305TIP3   OH267329   0.694   4.232   4.156 -0.1265 -0.1092  0.3128
15305TIP3    H167330   0.653   4.243   4.242 -2.1131 -2.4091 -0.2343
15305TIP3    H267331   0.765   4.169   4.173 -0.4407 -0.4692  0.3153
15306TIP3   OH267332   6.169   6.451  14.279  0.1732 -0.1598  0.4144
15306TIP3    H167333   6.186   6.541  14.308  0.7077 -0.8243  2.3173
15306TIP3    H267334   6.082   6.431  14.314  1.1366 -1.2293  2.3208
15307TIP3   OH267335   3.719   3.454  16.201 -0.6749 -0.0123  0.5057
15307TIP3    H167336   3.772   3.531  16.182 -0.0648 -0.8697 -1.5511
15307TIP3    H267337   3.771   3.404  16.264  0.4254 -0.2459 -0.5527
15308TIP3   OH267338   1.263   0.230  15.552 -0.1154 -0.3121 -0.3854
15308TIP3    H167339   1.284   0.212  15.643 -1.1509  0.1437 -0.0303
15308TIP3    H267340   1.274   0.325  15.544  0.1436 -0.3736 -0.7862
15309TIP3   OH267341   3.720   1.014   2.407  0.0452 -0.2605 -0.3132
15309TIP3    H167342   3.779   1.089   2.401 -0.6571  0.2086 -2.7116
15309TIP3    H267343   3.697   0.995   2.316 -3.2795 -0.5658  0.4684
15310TIP3   OH267344   6.441   3.212   0.429 -0.2041 -0.6652 -0.5406
15310TIP3    H167345   6.416   3.227   0.521  0.6758  0.0028 -0.4056
15310TIP3    H267346   6.510   3.276   0.412 -1.7412  0.6296 -2.2808
15311TIP3   OH267347   5.844   6.118   4.899  0.3601  0.1633  0.7548
15311TIP3    H167348   5.866   6.209   4.916 -1.1758  0.7720 -0.2324
15311TIP3    H267349   5.776   6.097   4.963  0.3899 -0.1466  0.6864
15312TIP3   OH267350   0.765   5.799   2.207  0.0771 -0.8344 -0.1474
15312TIP3    H167351   0.705   5.769   2.276 -0.1126  1.6578  0.8824
15312TIP3    H267352   0.740   5.748   2.130 -2.1722 -1.1491  0.7103
15313TIP3   OH267353   4.977   3.000   1.756 -0.3731  0.2652  0.5111
15313TIP3    H167354   4.918   3.061   1.710 -0.4617  0.5470  0.9944
15313TIP3    H267355   5.019   2.951   1.686  0.0683  1.2162  0.0876
15314TIP3   OH267356   5.813   1.728  10.252 -0.1124 -0.2382 -0.0595
15314TIP3    H167357   5.719   1.711  10.251 -0.3286  0.8614 -0.0003
15314TIP3    H267358   5.822   1.813  10.208  0.8230 -0.2294  0.1334
15315TIP3   OH267359   3.052   6.393   4.195 -0.5471 -0.0642 -0.1758
15315TIP3    H167360   3.034   6.384   4.101 -0.2281  1.3639 -0.4037
15315TIP3    H267361   3.119   6.462   4.200 -1.9155  1.2566  1.1805
15316TIP3   OH267362   4.615   1.979  14.843 -0.2579 -0.2928  0.0993
15316TIP3    H167363   4.559   2.045  14.802  0.5184  0.2397 -0.1479
15316TIP3    H267364   4.596   1.898  14.796 -0.5933 -0.0511 -0.1861
15317TIP3   OH267365   2.047   4.245  15.259 -0.2985  1.1385  0.2494
15317TIP3    H167366   2.043   4.159  15.216 -1.9644  0.6727  1.2582
15317TIP3    H267367   2.137   4.252  15.288 -0.0771 -0.1874 -0.0240
15318TIP3   OH267368   5.868   3.420  15.319  0.1911 -0.5828  0.1606
15318TIP3    H167369   5.799   3.353  15.317  1.7697 -2.3042  0.4649
15318TIP3    H267370   5.945   3.374  15.353  1.3530  1.4172  0.3873
15319TIP3   OH267371   1.425   1.961  14.835 -0.2648  0.2580  0.5532
15319TIP3    H167372   1.439   1.866  14.828 -0.1060  0.2176  1.3341
15319TIP3    H267373   1.418   1.991  14.744  3.7376  0.1152  0.0081
15320TIP3   OH267374   2.225   6.077  13.915 -0.4140 -0.0675 -0.0066
15320TIP3    H167375   2.204   6.131  13.991 -2.0917 -0.0759 -0.4351
15320TIP3    H267376   2.304   6.117  13.878 -0.8598  1.2780  0.4640
15321TIP3   OH267377   1.297   6.435  16.930 -0.5644 -0.3501 -0.2672
15321TIP3    H167378   1.375   6.429  16.875 -0.4252 -2.6628  0.0788
15321TIP3    H267379   1.224   6.428  16.869 -0.5417  1.3536 -0.5435
15322TIP3   OH267380   1.488   0.117  13.881  0.8885 -0.0690  0.2551
15322TIP3    H167381   1.547   0.050  13.848  0.7768  0.0155 -0.1211
15322TIP3    H267382   1.443   0.150  13.803  1.0403  0.5349  0.4207
15323TIP3   OH267383   2.091   1.604  12.122  0.1931  0.7544  0.0469
15323TIP3    H167384   2.022   1.589  12.058  0.4758 -0.9746  0.0982
15323TIP3    H267385   2.053   1.579  12.206  0.0472  2.3566  0.4887
15324TIP3   OH267386   2.900   6.281   5.541 -0.1871  0.1464  0.2810
15324TIP3    H167387   2.969   6.319   5.596  0.3259  0.3523 -0.4844
15324TIP3    H267388   2.847   6.356   5.514  0.2120  0.1919 -0.3881
15325TIP3   OH267389   1.890   4.744   5.054 -0.2280 -0.6425 -0.5916
15325TIP3    H167390   1.820   4.722   4.992  0.8948 -1.2092 -1.7026
15325TIP3    H267391   1.970   4.742   5.001  1.0827 -3.4267  1.2781
15326TIP3   OH267392   4.193   1.069  14.130  0.0982  0.1397 -0.7118
15326TIP3    H167393   4.166   0.993  14.078  0.2516 -0.0445 -0.5262
15326TIP3    H267394   4.114   1.123  14.137 -0.3750 -0.6440  0.2596
15327TIP3   OH267395   1.876   3.416  16.231 -0.2581 -0.0423  0.4379
15327TIP3    H167396   1.786   3.393  16.255 -0.8132 -0.7859 -2.1002
15327TIP3    H267397   1.877   3.415  16.135  2.1872  1.0972  0.3657
15328TIP3   OH267398   0.883   4.821   0.937 -0.1270  0.2496 -0.1138
15328TIP3    H167399   0.834   4.871   1.003 -0.2314 -0.9602  0.7541
15328TIP3    H267400   0.822   4.755   0.907 -0.3958  1.3502 -2.1650
15329TIP3   OH267401   0.806   2.619   3.538 -0.0503  0.0302  0.0254
15329TIP3    H167402   0.806   2.623   3.634 -0.3469  1.0919 -0.0085
15329TIP3    H267403   0.743   2.686   3.511  0.3433  0.0375 -0.9249
15330TIP3   OH267404   0.552   4.949   5.696 -0.6976  0.2017  0.6322
15330TIP3    H167405   0.635   4.901   5.694 -0.7634  0.0827  0.7176
15330TIP3    H267406   0.559   5.006   5.772 -0.5595  0.4390  0.4456
15331TIP3   OH267407   1.472   0.032   2.474 -0.0655 -0.2852 -0.5179
15331TIP3    H167408   1.418  -0.046   2.478 -0.2846 -0.0990  0.7306
15331TIP3    H267409   1.560   0.000   2.451 -0.4759 -0.7053 -1.5283
15332TIP3   OH267410   6.727   1.014   2.751  0.2696  0.7364  0.2261
15332TIP3    H167411   6.787   1.086   2.770 -0.5845  1.5370 -0.0202
15332TIP3    H267412   6.768   0.968   2.676  0.7135  1.0838  0.2504
15333TIP3   OH267413   5.850   1.868  13.081  0.7722 -0.1847 -0.6158
15333TIP3    H167414   5.806   1.847  13.164 -0.0372  1.8233 -0.4984
15333TIP3    H267415   5.814   1.805  13.018 -0.8023  0.1481 -0.0814
15334TIP3   OH267416   2.115   4.947  16.056 -0.2709  0.1781  0.6209
15334TIP3    H167417   2.183   4.991  16.106 -0.1811 -0.4391  1.0408
15334TIP3    H267418   2.037   4.953  16.111  0.5429 -3.3237  2.3954
15335TIP3   OH267419   3.921   5.895   1.176 -0.1467  0.4801  0.9517
15335TIP3    H167420   3.904   5.919   1.267  0.4712 -1.0369  1.5032
15335TIP3    H267421   3.895   5.802   1.170  0.4998  0.3512 -0.2285
15336TIP3   OH267422   2.012   5.547  11.719  0.2588 -0.4244 -0.4482
15336TIP3    H167423   1.982   5.564  11.630  0.1783 -1.8281 -0.7118
15336TIP3    H267424   2.108   5.555  11.713  0.2824 -0.8742 -0.7567
15337TIP3   OH267425   5.966   5.205   1.687  0.5306  0.2340 -0.3348
15337TIP3    H167426   6.042   5.153   1.715  1.3596  1.0081 -1.0867
15337TIP3    H267427   5.894   5.173   1.741  1.6629  0.3878  1.3283
15338TIP3   OH267428   2.342   2.646   5.166  0.3585 -0.4950  0.5556
15338TIP3    H167429   2.437   2.632   5.156  0.3258  0.3035 -1.5021
15338TIP3    H267430   2.303   2.562   5.141  0.4538  0.3865 -3.1367
15339TIP3   OH267431   2.501   2.890  16.061  0.2057 -0.2357  0.7117
15339TIP3    H167432   2.566   2.822  16.042 -0.3590 -0.5592 -0.1610
15339TIP3    H267433   2.531   2.966  16.012  0.6378  0.0296  1.3861
15340TIP3   OH267434   1.211   6.155  16.576  0.1062 -0.5039 -0.5934
15340TIP3    H167435   1.120   6.158  16.607  0.1989  0.5738 -0.4040
15340TIP3    H267436   1.209   6.203  16.493  0.3865 -1.0218 -0.9006
15341TIP3   OH267437   1.367   1.994   5.377  0.1803 -0.5691  0.0144
15341TIP3    H167438   1.309   2.061   5.412 -0.4530 -1.7275  1.2857
15341TIP3    H267439   1.308   1.931   5.335  0.8620  0.3902 -2.5891
15342TIP3   OH267440   2.914   6.593   2.165  0.2326 -0.6503  0.4411
15342TIP3    H167441   2.840   6.624   2.113  1.3307  0.0495 -0.7813
15342TIP3    H267442   2.915   6.498   2.152 -0.1750 -0.6084  0.0855
15343TIP3   OH267443   0.286   6.049   0.776 -0.5485  0.3844 -0.3160
15343TIP3    H167444   0.234   6.073   0.853  0.2639  0.3030  0.2703
15343TIP3    H267445   0.347   6.122   0.765  0.1938 -0.1854 -0.0963
15344TIP3   OH267446   0.388   6.807   5.685  0.7481 -0.4784  0.1923
15344TIP3    H167447   0.355   6.717   5.685  0.3740 -0.3410  0.2964
15344TIP3    H267448   0.359   6.844   5.602 -1.7465  0.5028  1.3817
15345TIP3   OH267449   2.109   5.093   4.564 -0.8178 -0.0317 -0.4549
15345TIP3    H167450   2.081   5.002   4.565 -2.3949  0.4105 -1.0796
15345TIP3    H267451   2.036   5.141   4.526  1.6087  0.9568 -4.5668
15346TIP3   OH267452   1.430   3.199   1.069  0.5430 -0.1547 -0.0139
15346TIP3    H167453   1.363   3.245   1.018 -0.7638 -3.6852 -1.8072
15346TIP3    H267454   1.506   3.197   1.011  1.9983  2.7300  1.5319
15347TIP3   OH267455   3.046   4.729   1.685  0.0300  0.7568 -0.4313
15347TIP3    H167456   3.004   4.743   1.600  0.2890 -0.2868 -0.7506
15347TIP3    H267457   3.122   4.674   1.665  1.2160  2.1001  0.2101
15348TIP3   OH267458   0.252   6.306   2.264 -0.3456 -0.1551  0.0952
15348TIP3    H167459   0.279   6.393   2.235 -1.6393  0.4342  0.5736
15348TIP3    H267460   0.281   6.300   2.355 -1.7088  0.4614  0.5957
15349TIP3   OH267461   0.406   3.478  12.220 -0.2689  0.3899 -0.1554
15349TIP3    H167462   0.387   3.495  12.313  1.5132  2.6886 -0.1190
15349TIP3    H267463   0.352   3.540  12.173 -0.4926 -0.1487 -0.6149
15350TIP3   OH267464   3.562   5.472   0.989  0.8145 -0.1957  0.1174
15350TIP3    H167465   3.552   5.562   1.019  0.1397 -0.8381  2.0165
15350TIP3    H267466   3.484   5.455   0.936 -0.4868 -0.4379  2.0034
15351TIP3   OH267467   1.017   2.406   1.282 -0.9141 -0.0167  0.0105
15351TIP3    H167468   1.004   2.418   1.188  0.1165  0.5215 -0.0778
15351TIP3    H267469   1.109   2.383   1.291 -0.4136  2.1062  1.0450
15352TIP3   OH267470   0.898   2.680   0.178 -0.0941  0.7364 -0.0460
15352TIP3    H167471   0.934   2.608   0.126  1.3670  0.1299  1.7056
15352TIP3    H267472   0.849   2.637   0.248  0.3972  1.4449  0.7465
15353TIP3   OH267473   6.543   3.682  17.033  0.5078 -0.3315 -0.2066
15353TIP3    H167474   6.605   3.655  16.965  1.4379 -0.9683  0.8530
15353TIP3    H267475   6.540   3.777  17.027  2.3329 -0.2049  0.3149
15354TIP3   OH267476   5.400   5.854  14.383 -0.0610  0.5124  0.1677
15354TIP3    H167477   5.421   5.853  14.290 -2.8042 -0.9236 -0.5688
15354TIP3    H267478   5.464   5.795  14.422 -0.0606 -0.4502 -1.1907
15355TIP3   OH267479   4.228   4.111   2.995  0.7023  0.3227  0.0787
15355TIP3    H167480   4.141   4.093   2.961  0.6398  0.5422  0.1271
15355TIP3    H267481   4.273   4.026   2.991 -0.3859 -0.4662  2.6701
15356TIP3   OH267482   2.517   2.521  16.220  0.6530  0.6071  0.1757
15356TIP3    H167483   2.496   2.578  16.294 -0.5694 -1.1502  1.2612
15356TIP3    H267484   2.435   2.512  16.172  1.4206  1.6846 -1.4119
15357TIP3   OH267485   1.309   1.857  14.253  0.6787  0.3535 -0.5375
15357TIP3    H167486   1.305   1.824  14.343  1.4123  3.1507  0.6073
15357TIP3    H267487   1.238   1.811  14.208 -1.0658  0.3768  1.9893
15358TIP3   OH267488   4.890   2.365  13.296 -0.4045 -0.2614  0.0658
15358TIP3    H167489   4.933   2.447  13.323  0.9815 -1.2264  0.9706
15358TIP3    H267490   4.803   2.370  13.334  0.0108  0.3675  0.9787
15359TIP3   OH267491   2.544   3.324  16.403 -0.0120 -0.1743  0.1057
15359TIP3    H167492   2.633   3.300  16.376 -0.8777 -0.3792 -2.9075
15359TIP3    H267493   2.496   3.241  16.402 -0.1240 -0.2272  2.6525
15360TIP3   OH267494   1.579   4.116  16.555  0.1997  0.1548 -0.1970
15360TIP3    H167495   1.572   4.096  16.462  2.9440 -2.4080  0.0153
15360TIP3    H267496   1.663   4.160  16.564  0.7931 -1.1909  1.2471
15361TIP3   OH267497   1.523   3.549   1.033  0.1019  0.1083 -0.2234
15361TIP3    H167498   1.457   3.503   0.981  0.0845 -0.5317  0.3476
15361TIP3    H267499   1.536   3.632   0.987  0.5416 -0.6879 -1.6212
15362TIP3   OH267500   5.667   4.918   4.950 -0.2913  0.0973 -0.0853
15362TIP3    H167501   5.663   5.009   4.979 -1.2723 -0.1177  0.5458
15362TIP3    H267502   5.577   4.897   4.926  0.0134 -0.5717 -0.6790
15363TIP3   OH267503   3.433   6.158  13.572  0.5429 -0.4897 -0.3894
15363TIP3    H167504   3.521   6.124  13.590  0.9558  0.8864  0.3587
15363TIP3    H267505   3.398   6.180  13.658  0.6186  1.6417 -0.8346
15364TIP3   OH267506   6.220   1.847  13.794  0.1657  0.0695 -0.0531
15364TIP3    H167507   6.199   1.881  13.881 -2.4830 -1.3830 -0.0229
15364TIP3    H267508   6.173   1.764  13.789  1.1565 -0.4231 -2.4839
15365TIP3   OH267509   0.047   0.479  13.332  0.0712  0.3437  0.1204
15365TIP3    H167510  -0.028   0.515  13.379 -0.9858 -1.0108 -0.4714
15365TIP3    H267511   0.112   0.461  13.400 -1.5430 -1.8805  1.1619
15366TIP3   OH267512   1.529   6.610   2.769  0.1156 -0.0382 -0.1160
15366TIP3    H167513   1.449   6.660   2.788  1.2127  2.1774 -1.0444
15366TIP3    H267514   1.504   6.552   2.697 -0.7279  0.3983 -0.1900
15367TIP3   OH267515   5.140   5.587  13.683  0.0756 -0.1062  0.4094
15367TIP3    H167516   5.142   5.493  13.702 -1.8789 -0.3100 -0.1784
15367TIP3    H267517   5.115   5.593  13.591  0.7959  1.0121  0.2551
15368TIP3   OH267518   2.514   2.988   3.953 -0.4122  0.5004  0.1034
15368TIP3    H167519   2.436   2.979   4.007 -1.3542  2.7010 -0.7934
15368TIP3    H267520   2.515   3.080   3.926  2.4350  0.5339 -0.0258
15369TIP3   OH267521   4.414   0.980   2.217 -0.0215  0.4396 -0.0445
15369TIP3    H167522   4.461   0.916   2.164 -0.1448  1.2701 -1.2069
15369TIP3    H267523   4.474   1.054   2.224 -0.2065  0.5367  0.5708
15370TIP3   OH267524   2.921   5.246  13.188 -0.5544 -0.0016 -0.2041
15370TIP3    H167525   2.953   5.232  13.277 -2.7982  0.2889  0.7064
15370TIP3    H267526   2.945   5.166  13.141  2.2843  0.5590  0.0625
15371TIP3   OH267527   2.093   0.155  14.536 -0.0125 -0.6570  0.3853
15371TIP3    H167528   2.161   0.220  14.554  0.8300 -0.6937 -2.2716
15371TIP3    H267529   2.011   0.204  14.540  0.4034  0.0279  0.7327
15372TIP3   OH267530   4.965   0.429  15.256  0.1625 -0.9166  0.1501
15372TIP3    H167531   5.002   0.485  15.189  1.4276 -0.9279  0.8079
15372TIP3    H267532   4.875   0.413  15.228 -0.0526  0.9662 -0.3421
15373TIP3   OH267533   5.524   1.526  12.426 -0.1706 -0.0675  0.4885
15373TIP3    H167534   5.542   1.508  12.333 -1.2766 -2.2513  0.6402
15373TIP3    H267535   5.610   1.518  12.468  0.2823  0.5646 -0.2729
15374TIP3   OH267536   3.867   1.444  13.359 -0.4298 -0.3490 -0.2755
15374TIP3    H167537   3.904   1.507  13.420 -0.1685 -0.0259 -0.7569
15374TIP3    H267538   3.944   1.403  13.318 -0.6010 -0.3684 -0.5791
15375TIP3   OH267539   0.890   5.794   4.189 -0.0366 -0.2827 -1.1277
15375TIP3    H167540   0.906   5.873   4.138 -0.5593  0.3755 -0.3113
15375TIP3    H267541   0.881   5.724   4.124  0.3705  0.3422 -1.8636
15376TIP3   OH267542   1.235   5.090  12.476  0.4239 -0.0247  0.5074
15376TIP3    H167543   1.160   5.139  12.510  0.0044 -0.1297 -0.2358
15376TIP3    H267544   1.262   5.034  12.549 -0.4181 -0.2062  0.6974
15377TIP3   OH267545   2.705   0.016   5.291  0.1455 -0.7192  0.0814
15377TIP3    H167546   2.778   0.072   5.318  1.6710 -0.9063 -3.1511
15377TIP3    H267547   2.672  -0.021   5.372  3.0084  0.1621  1.8138
15378TIP3   OH267548   1.262   1.827   0.916  0.0273  0.5295  0.3574
15378TIP3    H167549   1.218   1.850   0.997 -1.0963 -0.9938  0.2284
15378TIP3    H267550   1.350   1.863   0.925 -0.3459  1.1309  1.8674
15379TIP3   OH267551   6.346   6.045   3.475  0.4054 -0.5729 -0.1554
15379TIP3    H167552   6.322   6.128   3.517 -1.3369 -1.2209  0.2369
15379TIP3    H267553   6.362   5.986   3.549  0.9460 -0.7789 -0.4333
15380TIP3   OH267554   0.043   4.291  13.390  0.1754  0.5101 -0.5433
15380TIP3    H167555   0.133   4.263  13.371 -0.0649 -0.2007 -0.6847
15380TIP3    H267556  -0.004   4.276  13.308 -0.8382 -2.4052  0.4302
15381TIP3   OH267557   3.634   3.198   1.265  0.4390  0.2065 -0.0353
15381TIP3    H167558   3.601   3.193   1.176  0.1213 -0.4692  0.1175
15381TIP3    H267559   3.567   3.247   1.313 -0.0478 -0.6185  0.1350
15382TIP3   OH267560   0.262   5.478   3.291  0.0362 -0.5748 -0.2088
15382TIP3    H167561   0.253   5.574   3.289  2.4799 -0.2926 -1.7419
15382TIP3    H267562   0.193   5.449   3.350 -1.7108  2.0169 -0.7836
15383TIP3   OH267563   4.202   5.915   2.954  0.4193  0.7498  0.1015
15383TIP3    H167564   4.214   5.991   3.012 -0.6457  0.1037  1.2016
15383TIP3    H267565   4.109   5.893   2.961  0.2555  0.6363 -1.8722
15384TIP3   OH267566   0.228   5.946  11.728 -0.0345  0.0588 -0.3620
15384TIP3    H167567   0.206   5.946  11.634 -0.8545 -2.0143 -0.2169
15384TIP3    H267568   0.254   5.856  11.747  0.9171  0.6336  1.2535
15385TIP3   OH267569   0.398   4.047   0.654 -0.3052  0.2881 -0.1105
15385TIP3    H167570   0.402   3.971   0.712  0.1575  0.9345  0.7300
15385TIP3    H267571   0.486   4.085   0.659  0.5621 -1.0043 -3.1541
15386TIP3   OH267572   0.782   1.067   0.964 -0.2624  0.1034 -0.3720
15386TIP3    H167573   0.802   1.152   0.924  1.4573 -0.6541 -1.2367
15386TIP3    H267574   0.781   1.006   0.890 -0.2250 -0.8249  0.3764
15387TIP3   OH267575   4.729   6.039  10.346  0.4573  0.5489 -0.2229
15387TIP3    H167576   4.788   6.051  10.421  0.2839  1.2688 -0.1967
15387TIP3    H267577   4.786   6.006  10.276  0.7382  0.4699  0.0400
15388TIP3   OH267578   4.364   6.792  13.181  0.1808  0.0625  0.1447
15388TIP3    H167579   4.396   6.702  13.175 -0.6727 -0.2134 -0.6837
15388TIP3    H267580   4.410   6.829  13.256  1.4300 -0.6925 -0.2080
15389TIP3   OH267581   6.663   0.825  11.342 -0.3601  0.4974 -0.1716
15389TIP3    H167582   6.646   0.877  11.264  3.3530  1.8143 -0.2973
15389TIP3    H267583   6.758   0.812  11.342 -0.5197 -1.6968  2.7742
15390TIP3   OH267584   6.093   5.771  14.343  0.4746 -0.1337 -0.2497
15390TIP3    H167585   6.079   5.847  14.287 -0.3308 -1.0969 -1.4081
15390TIP3    H267586   6.185   5.749  14.330  0.2458 -0.4917 -1.4280
15391TIP3   OH267587   0.914   3.481  12.683 -0.4688  0.3433  0.3062
15391TIP3    H167588   0.898   3.480  12.778  0.3288 -1.0380  0.4483
15391TIP3    H267589   0.838   3.436  12.646 -1.9892  2.9230  0.0179
15392TIP3   OH267590   1.565   6.070   3.811 -0.0294  0.1542 -0.1574
15392TIP3    H167591   1.599   5.980   3.815 -0.1079  0.1269 -0.0930
15392TIP3    H267592   1.643   6.125   3.819 -0.0328  0.0932  0.3628
15393TIP3   OH267593   1.770   4.677   6.155  0.2857 -0.2772  0.1720
15393TIP3    H167594   1.678   4.700   6.161  0.3666  0.3035 -0.6260
15393TIP3    H267595   1.810   4.719   6.231  0.0112  0.0914  0.1154
15394TIP3   OH267596   1.537   2.772  15.801 -0.1065 -0.1365  0.3934
15394TIP3    H167597   1.577   2.816  15.726 -0.5653 -0.9564 -0.3486
15394TIP3    H267598   1.610   2.759  15.862  0.7668 -1.4575 -0.8672
15395TIP3   OH267599   3.761   3.458  13.001 -0.4577 -0.6061 -0.2139
15395TIP3    H167600   3.761   3.546  12.964 -0.1152 -0.7955 -0.6810
15395TIP3    H267601   3.826   3.410  12.949  2.3472 -0.0972  2.5266
15396TIP3   OH267602   1.525   3.290  14.357  0.0903  0.3452 -0.2961
15396TIP3    H167603   1.489   3.378  14.349  0.9421  0.7088 -0.2693
15396TIP3    H267604   1.618   3.304  14.375  0.4388 -0.5536 -1.2651
15397TIP3   OH267605   6.344   6.806   1.368 -0.1834 -0.5162  0.3492
15397TIP3    H167606   6.355   6.809   1.273 -0.3714 -3.2330  0.1492
15397TIP3    H267607   6.251   6.822   1.381 -0.3604 -1.1637 -0.0425
15398TIP3   OH267608   4.864   4.255  15.757  0.3780 -0.8049  0.4830
15398TIP3    H167609   4.793   4.301  15.801 -1.1014 -2.4135 -0.1378
15398TIP3    H267610   4.890   4.314  15.686 -0.1115 -0.0717  0.8917
15399TIP3   OH267611   3.733   5.890   2.501  0.7424 -0.0159 -0.0079
15399TIP3    H167612   3.699   5.980   2.505  1.7642  0.4877 -1.5952
15399TIP3    H267613   3.735   5.870   2.408 -1.0888 -2.3859  0.3692
15400TIP3   OH267614   3.506   0.249   6.340 -0.6604  0.1052  0.2699
15400TIP3    H167615   3.430   0.305   6.327 -1.0964 -0.5646 -0.1610
15400TIP3    H267616   3.475   0.182   6.402  0.0380  0.6854  1.2629
15401TIP3   OH267617   0.650   6.576  14.563  0.1743  0.0492 -0.8029
15401TIP3    H167618   0.625   6.656  14.517  1.1678  0.7842 -0.1040
15401TIP3    H267619   0.745   6.576  14.561  0.1930 -1.4100 -1.2611
15402TIP3   OH267620   6.532   4.186   1.273  0.2254  0.0603  0.4468
15402TIP3    H167621   6.560   4.272   1.242  0.4618  0.9903  3.0208
15402TIP3    H267622   6.585   4.124   1.223 -0.8341  1.2763 -2.3779
15403TIP3   OH267623   3.857   4.816   3.370  0.1533 -0.2249 -0.0840
15403TIP3    H167624   3.923   4.838   3.304  0.1568 -1.8466 -0.6641
15403TIP3    H267625   3.908   4.799   3.449  0.2451  0.5175  0.0291
15404TIP3   OH267626   4.937   3.486   5.165  0.5365  0.7546  0.2835
15404TIP3    H167627   5.001   3.505   5.097  1.0903 -2.1989 -0.1674
15404TIP3    H267628   4.914   3.394   5.152 -1.5089  0.8516  2.3458
15405TIP3   OH267629   5.775   1.380  12.917  0.5084 -0.2445 -0.5425
15405TIP3    H167630   5.757   1.461  12.869  2.9464  1.6651  1.4718
15405TIP3    H267631   5.741   1.311  12.861 -2.7271  2.1745 -1.8626
15406TIP3   OH267632   3.839   5.500  14.653 -0.4596 -0.4569  0.0927
15406TIP3    H167633   3.763   5.515  14.710 -1.2627 -2.3100 -0.4297
15406TIP3    H267634   3.842   5.405  14.642  2.1388 -0.4678  0.3312
15407TIP3   OH267635   0.928   3.796   5.408 -0.3452  0.1194 -0.1714
15407TIP3    H167636   1.011   3.783   5.454 -1.5081 -1.3749  1.6446
15407TIP3    H267637   0.933   3.886   5.376  1.7820  0.2134  0.2624
15408TIP3   OH267638   5.870   2.241   4.609  0.7438 -0.4849 -0.1477
15408TIP3    H167639   5.866   2.320   4.662  1.5494 -2.5771  3.3555
15408TIP3    H267640   5.783   2.232   4.572 -0.3597  0.3806  2.0738
15409TIP3   OH267641   4.719   3.656   3.000 -0.0152 -0.5441  0.3604
15409TIP3    H167642   4.655   3.620   2.939 -0.5123 -0.2460  0.6876
15409TIP3    H267643   4.672   3.658   3.084  1.3771 -3.1094  1.3110
15410TIP3   OH267644   0.798   3.934  14.758  0.3586 -0.0705 -0.4491
15410TIP3    H167645   0.739   3.862  14.738 -1.1194  1.0570 -0.2813
15410TIP3    H267646   0.844   3.906  14.837 -1.4484 -0.1376  0.6181
15411TIP3   OH267647   2.751   3.818  12.129  0.5516 -0.1658 -0.1840
15411TIP3    H167648   2.701   3.769  12.064 -0.1856  0.1560  0.1338
15411TIP3    H267649   2.842   3.804  12.104  0.4499 -2.7154  0.5966
15412TIP3   OH267650   6.697   4.699   0.069 -0.2227 -0.2657  0.4700
15412TIP3    H167651   6.673   4.758  -0.003 -0.8692  0.7100  1.4463
15412TIP3    H267652   6.790   4.714   0.083 -0.3037  0.2489  0.4586
15413TIP3   OH267653   2.295   0.770  15.163  0.0656  0.3638 -0.2631
15413TIP3    H167654   2.280   0.681  15.132 -1.3680  0.7247 -0.7148
15413TIP3    H267655   2.390   0.780  15.163  0.3003 -1.4892  0.7992
15414TIP3   OH267656   3.612   3.851   0.985 -0.3009  0.2727  0.0645
15414TIP3    H167657   3.644   3.766   0.955  0.7375  0.5790  0.2911
15414TIP3    H267658   3.553   3.880   0.915 -1.0781 -0.8509  0.2197
15415TIP3   OH267659   6.463   6.632   3.403 -0.2907  0.3575 -0.3944
15415TIP3    H167660   6.439   6.646   3.494 -0.2770 -2.4059  0.1084
15415TIP3    H267661   6.422   6.705   3.356 -0.1720  1.9239  1.7997
15416TIP3   OH267662   4.321   0.768  11.877 -0.4656  0.0328  0.3174
15416TIP3    H167663   4.229   0.748  11.893 -0.2296 -0.4022  1.1631
15416TIP3    H267664   4.320   0.855  11.838 -1.3277 -0.4953 -0.9216
15417TIP3   OH267665   5.358   5.962   3.660  0.6196  0.0670 -0.2164
15417TIP3    H167666   5.330   6.030   3.721  0.0465 -0.8213  0.5449
15417TIP3    H267667   5.329   5.993   3.575  0.2068  0.6849  0.1380
15418TIP3   OH267668   3.531   2.627   4.860  0.7333  0.4788 -0.2755
15418TIP3    H167669   3.563   2.717   4.868 -1.3461  1.3051 -0.7021
15418TIP3    H267670   3.584   2.589   4.790  1.5247  1.4248 -0.2127
15419TIP3   OH267671   5.676   0.095  12.004 -0.2006  0.0587  0.6184
15419TIP3    H167672   5.685   0.066  11.913  0.7394  0.8488  0.4503
15419TIP3    H267673   5.646   0.186  11.997  3.4296  1.4330  0.9697
15420TIP3   OH267674   4.885   6.555  14.952 -0.2110 -0.1877  0.2428
15420TIP3    H167675   4.873   6.460  14.952 -0.3318 -0.1751  0.4703
15420TIP3    H267676   4.855   6.582  15.039 -2.2748  0.3210 -0.5632
15421TIP3   OH267677   0.083   6.694  13.112  0.1895  0.6966 -0.5200
15421TIP3    H167678   0.094   6.665  13.021  0.0954  0.8137 -0.5683
15421TIP3    H267679   0.128   6.627  13.163  0.2479  0.6320 -0.6530
15422TIP3   OH267680   3.933   0.437   1.949 -0.0977  0.0830  0.2003
15422TIP3    H167681   3.903   0.386   1.875 -0.0904 -1.3554  1.1404
15422TIP3    H267682   3.869   0.507   1.959  0.6793  1.1979 -2.0140
15423TIP3   OH267683   0.905   1.756   3.259 -0.5863 -0.2585 -0.5930
15423TIP3    H167684   0.886   1.799   3.176  2.4774  1.0585 -0.7604
15423TIP3    H267685   0.847   1.797   3.323  1.1699  3.2870 -1.0295
15424TIP3   OH267686   2.381   0.735   5.255 -0.1656 -0.0550  0.2723
15424TIP3    H167687   2.451   0.798   5.238 -1.5301  0.8849 -2.5254
15424TIP3    H267688   2.393   0.668   5.187  0.6559 -2.4009  2.5749
15425TIP3   OH267689   0.592   0.772  17.088 -0.2007 -0.3204  0.8098
15425TIP3    H167690   0.605   0.703  17.023 -0.0670  0.6929 -0.2835
15425TIP3    H267691   0.518   0.742  17.141 -0.7601 -0.8767 -0.2547
15426TIP3   OH267692   5.103   4.546   3.593  0.0127 -0.7570  0.5224
15426TIP3    H167693   5.046   4.481   3.635  2.1731 -1.4776  2.4968
15426TIP3    H267694   5.077   4.543   3.500 -4.5524  0.4942  1.5050
15427TIP3   OH267695   0.969   2.969  16.025 -0.6568 -0.5764  0.4759
15427TIP3    H167696   0.880   3.002  16.015 -0.1052  1.0812  0.7495
15427TIP3    H267697   0.980   2.954  16.119 -0.5952 -0.6102  0.4650
15428TIP3   OH267698   6.725   2.891  11.261 -0.1128 -0.1764 -0.7247
15428TIP3    H167699   6.665   2.957  11.226 -0.3217 -0.3861 -0.7693
15428TIP3    H267700   6.747   2.836  11.185 -0.5546 -0.6251 -0.5371
15429TIP3   OH267701   4.227   5.834  14.011  0.6555 -0.5201 -0.0679
15429TIP3    H167702   4.186   5.896  13.951  1.4235  0.3980  0.3072
15429TIP3    H267703   4.160   5.814  14.075  0.7004  0.8209  0.4405
15430TIP3   OH267704   1.378   4.995  13.335 -0.4141  0.0456  0.6839
15430TIP3    H167705   1.426   5.070  13.368 -0.1311  0.3369 -0.3547
15430TIP3    H267706   1.403   4.989  13.243 -1.6588 -0.3514  0.3552
15431TIP3   OH267707   1.802   5.206   4.050  0.7858 -0.3194 -0.3500
15431TIP3    H167708   1.786   5.240   3.962 -1.2489 -0.6142 -0.1475
15431TIP3    H267709   1.800   5.111   4.040  2.9510 -0.4059 -0.3402
15432TIP3   OH267710   1.322   3.313  11.782  0.3205 -0.6287  0.2658
15432TIP3    H167711   1.323   3.240  11.843  1.7673 -1.9458 -1.2277
15432TIP3    H267712   1.393   3.294  11.721  1.1999  2.3864  0.1863
15433TIP3   OH267713   0.088   3.719   1.870  0.1188  0.8935  0.2811
15433TIP3    H167714   0.095   3.712   1.965 -0.7463  1.6417  0.4144
15433TIP3    H267715   0.086   3.813   1.852 -2.0773  0.8236 -0.2365
15434TIP3   OH267716   3.432   1.635   1.435  0.0411  0.0784 -0.6747
15434TIP3    H167717   3.504   1.658   1.376 -0.2860 -0.1313 -1.1617
15434TIP3    H267718   3.355   1.676   1.395 -0.1671  0.0130 -0.3418
15435TIP3   OH267719   4.292   5.219  13.552  0.1827  0.1762  0.7428
15435TIP3    H167720   4.328   5.139  13.515 -0.6184 -1.1972  2.7989
15435TIP3    H267721   4.272   5.274  13.475  1.1977 -1.3533 -0.6801
15436TIP3   OH267722   3.585   2.312  17.039  0.3613 -0.6503 -0.3156
15436TIP3    H167723   3.514   2.251  17.022 -0.2250 -0.3369  0.9336
15436TIP3    H267724   3.650   2.293  16.970 -0.4041 -1.7227 -0.7639
15437TIP3   OH267725   4.574   2.389  13.645  0.2592 -0.3515 -0.3390
15437TIP3    H167726   4.519   2.467  13.646  1.5738  0.6096  0.2746
15437TIP3    H267727   4.590   2.372  13.552  0.2311  0.3206 -0.4714
15438TIP3   OH267728   1.675   1.554   1.874 -0.1114 -0.7369  0.2361
15438TIP3    H167729   1.678   1.546   1.779 -1.5847 -0.2505  0.1329
15438TIP3    H267730   1.602   1.499   1.902 -1.5481  1.3012  0.7696
15439TIP3   OH267731   3.729   6.356   2.902  0.2734  0.7275  0.0097
15439TIP3    H167732   3.732   6.298   2.826 -0.4741 -0.4261  0.8230
15439TIP3    H267733   3.734   6.444   2.866  1.4445  0.1699 -1.2638
15440TIP3   OH267734   3.026   1.802  12.351 -0.2416  0.2446 -0.0282
15440TIP3    H167735   3.078   1.779  12.428  0.6404  1.3419 -0.2739
15440TIP3    H267736   3.012   1.896  12.359 -1.0316  0.1899 -0.6839
15441TIP3   OH267737   1.304   1.893   3.847 -0.6751 -0.8836  0.5520
15441TIP3    H167738   1.343   1.839   3.778  0.8132 -0.9287  1.3995
15441TIP3    H267739   1.378   1.933   3.892 -1.7041  3.1259 -0.9540
15442TIP3   OH267740   4.421   3.381   1.336  0.3406 -0.1815  0.3728
15442TIP3    H167741   4.406   3.430   1.416  1.7869  2.1811 -0.6854
15442TIP3    H267742   4.342   3.395   1.284 -1.1474 -2.7550  1.7600
15443TIP3   OH267743   0.074   1.203  13.545 -0.2600 -0.3916 -0.3775
15443TIP3    H167744   0.111   1.258  13.614 -0.3417 -0.5928 -0.1705
15443TIP3    H267745   0.141   1.200  13.477 -1.5844  2.9235 -2.0609
15444TIP3   OH267746   0.226   4.177  11.152 -0.1399 -0.1634 -0.2679
15444TIP3    H167747   0.135   4.148  11.161 -0.6886  0.6543 -2.4743
15444TIP3    H267748   0.251   4.149  11.064  1.5284  0.2025  0.0639
15445TIP3   OH267749   5.351   5.881   4.171  0.3197  0.8675  1.0194
15445TIP3    H167750   5.396   5.851   4.092 -1.8367 -0.8863  0.3501
15445TIP3    H267751   5.387   5.827   4.241 -1.6393 -1.6551  0.2426
15446TIP3   OH267752   2.398   2.391   3.179 -0.4945 -0.2049 -0.2087
15446TIP3    H167753   2.338   2.340   3.234  1.5470 -1.4681  0.9658
15446TIP3    H267754   2.403   2.477   3.222  2.1898 -1.6039  2.6400
15447TIP3   OH267755   4.569   2.508  11.435  0.4038  0.4578  0.5023
15447TIP3    H167756   4.564   2.424  11.389 -2.2700  0.8062 -0.0187
15447TIP3    H267757   4.601   2.485  11.523 -0.6846 -1.1981  0.5222
15448TIP3   OH267758   0.348   4.731   4.868 -0.2115  0.2198 -0.5556
15448TIP3    H167759   0.347   4.816   4.823 -0.9692  0.2219 -0.5450
15448TIP3    H267760   0.403   4.676   4.813 -0.4354  0.4686 -1.0360
15449TIP3   OH267761   6.403   1.810  12.474  0.1291  0.2628 -0.0849
15449TIP3    H167762   6.388   1.717  12.461 -0.1128  0.4994 -1.6774
15449TIP3    H267763   6.428   1.818  12.567 -0.2761 -1.3091  0.1813
15450TIP3   OH267764   5.856   5.149  12.004  0.6343 -0.4618  0.5741
15450TIP3    H167765   5.787   5.086  11.985 -0.8740  1.1165  0.6040
15450TIP3    H267766   5.814   5.216  12.058  1.5173  1.7333 -1.2814
15451TIP3   OH267767   5.794   0.495  16.929  0.4315  0.0651  0.4836
15451TIP3    H167768   5.739   0.567  16.961  0.7193 -1.0837  3.9304
15451TIP3    H267769   5.747   0.416  16.955  1.4388 -0.9796 -0.7969
15452TIP3   OH267770   4.677   3.626   5.475  0.2684 -0.2632 -0.3428
15452TIP3    H167771   4.686   3.695   5.540  1.9636 -0.9482  0.2115
15452TIP3    H267772   4.736   3.652   5.403  1.5715 -1.4595  0.2297
15453TIP3   OH267773   2.032   6.482  15.180  0.4983  0.2191 -0.1192
15453TIP3    H167774   2.094   6.496  15.253  1.6268  2.0254 -1.3454
15453TIP3    H267775   1.967   6.551  15.191  0.2011 -0.0185 -0.3784
15454TIP3   OH267776   1.376   3.898   2.345  0.1666  0.5095  0.0637
15454TIP3    H167777   1.411   3.820   2.389  1.0253  0.9445  0.1649
15454TIP3    H267778   1.306   3.929   2.404 -0.1282 -0.1310  0.0596
15455TIP3   OH267779   6.610   2.212  13.137  0.5376  0.0875 -0.3256
15455TIP3    H167780   6.556   2.289  13.153 -0.2874 -0.3716 -0.8537
15455TIP3    H267781   6.700   2.245  13.139  0.1552  1.4376 -2.4586
15456TIP3   OH267782   0.353   0.970   2.005  0.0172 -0.0491  0.0907
15456TIP3    H167783   0.277   0.911   2.005 -0.0616  0.0504  0.1548
15456TIP3    H267784   0.332   1.035   1.939  0.6445 -0.7697 -0.8317
15457TIP3   OH267785   6.069   4.814  13.434  0.8403  0.5333 -0.1223
15457TIP3    H167786   6.085   4.889  13.377  0.7577  0.0236 -0.8299
15457TIP3    H267787   6.110   4.740  13.388  1.0509  0.1699  0.6352
15458TIP3   OH267788   2.905   2.227   5.354 -0.3084 -0.1697  0.0360
15458TIP3    H167789   2.937   2.255   5.268  0.3336 -1.4183 -0.1539
15458TIP3    H267790   2.905   2.131   5.349 -0.3223 -0.2521  1.4054
15459TIP3   OH267791   6.565   5.162  11.846  0.1531 -0.4051  0.0214
15459TIP3    H167792   6.524   5.159  11.932  2.4915 -1.1129  1.1825
15459TIP3    H267793   6.576   5.255  11.828 -0.7998 -0.2382  0.2360
15460TIP3   OH267794   5.948   1.281  16.266  0.0696 -0.1702 -0.4135
15460TIP3    H167795   5.894   1.202  16.274  1.4753 -1.1409 -0.0591
15460TIP3    H267796   5.916   1.324  16.187 -1.8644 -0.1570  0.3223
15461TIP3   OH267797   5.895   2.706   4.597 -0.0827  0.0977  0.0102
15461TIP3    H167798   5.827   2.732   4.534  0.1052 -1.0104 -0.6869
15461TIP3    H267799   5.975   2.702   4.545 -0.2140 -2.4327 -0.1213
15462TIP3   OH267800   0.083   0.936  12.906 -0.2516  0.4103  0.1691
15462TIP3    H167801   0.047   1.013  12.863 -0.9351 -0.2640 -0.5047
15462TIP3    H267802   0.176   0.938  12.885 -0.5587  0.1257 -1.3402
15463TIP3   OH267803   2.477   1.908   4.794  0.0075  0.1174 -0.2054
15463TIP3    H167804   2.550   1.941   4.742  0.9152 -1.5402 -0.0414
15463TIP3    H267805   2.477   1.962   4.873  0.0619  1.1442 -0.8936
15464TIP3   OH267806   6.786   5.989   4.766  0.1022  0.1054 -0.2259
15464TIP3    H167807   6.828   6.023   4.845 -1.0657  2.6845 -0.5979
15464TIP3    H267808   6.822   5.901   4.755 -0.1907 -0.6381  3.5215
15465TIP3   OH267809   5.358   1.206  12.729 -0.2443  0.4000  0.0704
15465TIP3    H167810   5.267   1.221  12.755 -0.0842 -0.3707  1.1268
15465TIP3    H267811   5.397   1.294  12.729 -0.5535  0.5715  1.3763
15466TIP3   OH267812   2.916   3.069   3.010 -0.0385  0.6003 -0.0175
15466TIP3    H167813   2.940   3.060   3.102  0.4525 -1.6208 -0.3063
15466TIP3    H267814   2.826   3.100   3.012 -0.3599 -0.3272  1.2386
15467TIP3   OH267815   3.912   4.757   4.739  0.4600  0.3355  0.5577
15467TIP3    H167816   3.888   4.698   4.810 -1.8221 -0.0929 -0.4784
15467TIP3    H267817   3.832   4.767   4.688  1.7419  1.4556 -1.3711
15468TIP3   OH267818   1.938   3.669   2.056 -0.4372 -0.5674 -0.5981
15468TIP3    H167819   1.918   3.735   1.990  1.2664  0.4217 -0.1789
15468TIP3    H267820   1.915   3.711   2.139  0.2887 -0.6116 -0.3621
15469TIP3   OH267821   3.981   4.043  15.103 -0.1686 -0.4387 -0.1298
15469TIP3    H167822   4.062   4.093  15.094  0.4459 -0.9513  1.9205
15469TIP3    H267823   4.009   3.959  15.140 -1.4548 -1.3058 -1.0628
15470TIP3   OH267824   3.341   2.081   1.789  0.8578  0.2465 -0.0836
15470TIP3    H167825   3.255   2.044   1.806  1.3370 -0.3499  1.0992
15470TIP3    H267826   3.322   2.161   1.739 -0.3357 -0.1377 -0.2915
15471TIP3   OH267827   1.228   3.725  11.384  0.3350 -0.5341 -0.0047
15471TIP3    H167828   1.286   3.686  11.448  0.4591 -0.7496 -0.2462
15471TIP3    H267829   1.173   3.784  11.434  0.6956 -0.4029  0.2426
15472TIP3   OH267830   4.953   4.940   1.253 -0.2287 -0.5031 -0.3639
15472TIP3    H167831   4.934   4.893   1.334 -2.1895  1.0660  0.1484
15472TIP3    H267832   4.913   4.887   1.184 -4.0297  1.0952  0.3809
15473TIP3   OH267833   3.644   6.806   1.938  0.0510  0.2301 -0.0245
15473TIP3    H167834   3.612   6.893   1.914  0.5438  0.4068 -0.0472
15473TIP3    H267835   3.634   6.754   1.858  1.0663  0.6429 -0.4417
15474TIP3   OH267836   0.451   5.084  14.804  0.0695  0.8507 -0.1911
15474TIP3    H167837   0.474   5.122  14.889 -0.9409  0.2797  0.3631
15474TIP3    H267838   0.458   5.157  14.742  1.6377  1.0786  0.2180
15475TIP3   OH267839   6.656   2.079  13.607 -0.2742  0.4131  0.1521
15475TIP3    H167840   6.601   2.147  13.569 -0.1575 -0.1445 -1.0527
15475TIP3    H267841   6.597   2.029  13.663 -0.9291  0.0474 -0.8413
15476TIP3   OH267842   1.393   0.820  15.666  0.5482  0.0254  0.0686
15476TIP3    H167843   1.463   0.806  15.603 -0.5360  1.8018 -1.6401
15476TIP3    H267844   1.331   0.748  15.649  0.4581  0.2607 -0.6309
15477TIP3   OH267845   0.726   1.514  12.311 -0.3108 -0.1922 -0.7154
15477TIP3    H167846   0.654   1.547  12.256 -0.6159  1.2759  0.5149
15477TIP3    H267847   0.709   1.550  12.398  1.1913 -0.9336 -0.0768
15478TIP3   OH267848   6.758   1.426  15.060  0.4438 -0.3160 -0.4249
15478TIP3    H167849   6.700   1.399  14.988  0.6154  1.7530 -1.4239
15478TIP3    H267850   6.814   1.351  15.076 -1.3521 -1.7787 -0.6050
15479TIP3   OH267851   1.589   5.415   1.173 -0.0880  0.4848 -0.3001
15479TIP3    H167852   1.627   5.415   1.085  0.3072  0.1141 -0.1315
15479TIP3    H267853   1.557   5.505   1.185  1.3652  1.0252 -0.1826
15480TIP3   OH267854   5.321   5.349  12.644 -0.0775 -0.9977  0.2109
15480TIP3    H167855   5.366   5.340  12.560  0.0695 -0.2703  0.2077
15480TIP3    H267856   5.390   5.373  12.706 -0.5421  0.9660  0.0474
15481TIP3   OH267857   2.008   4.869   6.060 -0.6657 -0.1412 -0.0993
15481TIP3    H167858   2.077   4.820   6.105 -0.3801 -0.8057 -1.2154
15481TIP3    H267859   1.926   4.825   6.085 -0.5046 -0.5310 -0.2537
15482TIP3   OH267860   5.695   2.672   0.695  0.5250  0.2170  0.1309
15482TIP3    H167861   5.718   2.651   0.605  0.2257  1.3800 -0.2315
15482TIP3    H267862   5.645   2.597   0.726  1.9014 -0.8571 -0.1672
15483TIP3   OH267863   2.426   0.335   3.890  0.0504  0.4240  0.0723
15483TIP3    H167864   2.370   0.399   3.932 -0.2953  1.4744 -1.8835
15483TIP3    H267865   2.437   0.266   3.955 -2.8609  0.5492  0.8064
15484TIP3   OH267866   6.160   4.244   1.799  0.2683 -0.1970 -0.2378
15484TIP3    H167867   6.107   4.249   1.719 -0.8940 -0.4440  0.4949
15484TIP3    H267868   6.244   4.284   1.775 -0.6704  1.3445 -1.0896
15485TIP3   OH267869   3.002   6.807   4.655 -0.0058  0.6115  0.7105
15485TIP3    H167870   2.918   6.768   4.629  1.0533 -0.8957 -0.6982
15485TIP3    H267871   2.986   6.846   4.741 -2.5811  1.9157 -0.2659
15486TIP3   OH267872   2.460   3.611  14.419 -0.1980 -0.1060  0.8246
15486TIP3    H167873   2.443   3.696  14.459 -1.0604  0.2796 -0.2901
15486TIP3    H267874   2.374   3.571  14.410 -0.0225 -0.2280 -0.4944
15487TIP3   OH267875   4.400   1.588   2.004 -0.0318  0.1041  0.9123
15487TIP3    H167876   4.448   1.555   1.928  1.9339  0.4406  1.9397
15487TIP3    H267877   4.363   1.509   2.045  1.1692 -0.3920  1.0793
15488TIP3   OH267878   5.829   0.765  12.035 -1.1362  0.0911  0.3732
15488TIP3    H167879   5.918   0.798  12.021 -0.6821 -0.4033  1.9047
15488TIP3    H267880   5.773   0.842  12.027 -0.5877  0.4003 -0.6390
15489TIP3   OH267881   3.279   3.220   4.247 -0.0291  0.2852 -0.6332
15489TIP3    H167882   3.364   3.229   4.288 -0.2838  0.9941 -0.2566
15489TIP3    H267883   3.268   3.299   4.194 -0.4493  0.2029 -0.6804
15490TIP3   OH267884   4.589   2.415  12.577 -0.1532  0.1993 -0.5020
15490TIP3    H167885   4.621   2.432  12.666  2.1335  0.4755 -1.3358
15490TIP3    H267886   4.545   2.330  12.584  1.6205 -0.6931  0.5448
15491TIP3   OH267887   0.661   4.103   2.609  0.0645 -0.5158 -0.1081
15491TIP3    H167888   0.705   4.025   2.575 -0.1006 -0.1742 -1.1308
15491TIP3    H267889   0.724   4.141   2.671  0.7573 -0.6577 -0.7091
15492TIP3   OH267890   4.785   2.252  14.559  0.0831 -0.0847  0.0329
15492TIP3    H167891   4.757   2.169  14.598  0.1877 -0.1535 -0.0390
15492TIP3    H267892   4.818   2.229  14.473  1.8628 -0.2440  0.7033
15493TIP3   OH267893   5.153   2.507   4.499 -0.0745 -0.0454 -0.2794
15493TIP3    H167894   5.197   2.589   4.523 -0.7800  0.7119 -1.4695
15493TIP3    H267895   5.224   2.445   4.481  0.4880  0.6736 -0.5689
15494TIP3   OH267896   1.902   2.824  16.878  0.7382 -0.9135 -0.0311
15494TIP3    H167897   1.894   2.799  16.786  2.7732  0.4579 -0.6421
15494TIP3    H267898   1.914   2.919  16.877 -1.2670 -0.5590  1.8307
15495TIP3   OH267899   3.168   6.182   3.584 -0.3585  0.4697 -0.3270
15495TIP3    H167900   3.121   6.152   3.662  1.2951 -0.3217  0.4100
15495TIP3    H267901   3.208   6.265   3.612 -0.9204  0.9166 -0.8132
15496TIP3   OH267902   6.411   1.498  12.549  0.0362 -0.2036  0.5274
15496TIP3    H167903   6.474   1.511  12.619 -0.4156  0.5501  0.8137
15496TIP3    H267904   6.374   1.411  12.565 -0.2633  0.0799  1.3867
15497TIP3   OH267905   2.005   4.872   0.027 -0.2330 -0.0563 -0.0830
15497TIP3    H167906   2.016   4.831  -0.058  1.1956  3.5169 -1.8612
15497TIP3    H267907   1.943   4.943   0.011 -0.5099  0.2471  2.0609
15498TIP3   OH267908   5.087   4.526   0.297 -0.3123 -0.0192 -0.2247
15498TIP3    H167909   5.028   4.482   0.358 -1.5519  0.4374 -1.0500
15498TIP3    H267910   5.051   4.614   0.287 -1.1648 -0.5575 -2.8309
15499TIP3   OH267911   1.133   2.941  14.974  0.2209 -0.0173 -0.6862
15499TIP3    H167912   1.075   2.872  14.943 -1.6678  1.3534 -0.3976
15499TIP3    H267913   1.113   2.949  15.067  0.2776  1.0317 -0.7540
15500TIP3   OH267914   4.787   3.917  13.421 -0.2511  0.4505  0.1441
15500TIP3    H167915   4.762   3.887  13.334 -0.4620  1.8943 -0.3318
15500TIP3    H267916   4.775   3.841  13.477  0.4457 -0.6826 -1.1751
15501TIP3   OH267917   4.372   3.570  11.857 -0.3199 -0.2663 -0.4201
15501TIP3    H167918   4.458   3.558  11.818  0.3388  0.9222  0.6111
15501TIP3    H267919   4.355   3.487  11.903 -0.4712 -1.1170 -1.9424
15502TIP3   OH267920   3.339   5.790   5.979  0.2576  0.6432 -0.1831
15502TIP3    H167921   3.389   5.716   5.945 -0.9091 -1.8873  3.0740
15502TIP3    H267922   3.273   5.807   5.911  0.3003 -1.5921 -0.8610
15503TIP3   OH267923   5.111   2.975  11.780  0.3046  0.5025 -0.2460
15503TIP3    H167924   5.088   2.961  11.872  0.8739 -1.8355 -0.3830
15503TIP3    H267925   5.058   3.050  11.753 -0.6094  0.6349  1.7183
15504TIP3   OH267926   1.809   6.619  15.217  0.3800 -0.4786  0.9032
15504TIP3    H167927   1.783   6.695  15.164 -2.5551 -3.4635 -2.4527
15504TIP3    H267928   1.782   6.642  15.306 -3.5212  1.2702 -0.5003
15505TIP3   OH267929   5.518   0.455  11.723  0.5625  0.2908 -0.5486
15505TIP3    H167930   5.580   0.526  11.742 -0.0746  0.9371 -0.8549
15505TIP3    H267931   5.574   0.383  11.695  1.1701  0.9639 -1.1361
15506TIP3   OH267932   6.551   0.523  16.502  0.0690 -0.2010 -0.1116
15506TIP3    H167933   6.619   0.589  16.512  1.0422 -1.3833  1.4364
15506TIP3    H267934   6.469   0.571  16.515  0.7086  0.8370  0.1835
15507TIP3   OH267935   1.245   2.388   4.922  0.5730 -0.5523 -0.1162
15507TIP3    H167936   1.218   2.414   4.834  0.4734  0.3255  0.1554
15507TIP3    H267937   1.328   2.343   4.910  0.2287 -1.0401 -0.7216
15508TIP3   OH267938   3.500   4.981   4.118 -0.3111  0.1014 -0.3172
15508TIP3    H167939   3.425   4.950   4.168  0.9213 -2.5938  0.0735
15508TIP3    H267940   3.462   5.024   4.042 -2.3255 -2.0354 -0.6397
15509TIP3   OH267941   5.388   1.324  12.074  0.3332 -0.4224 -0.0546
15509TIP3    H167942   5.466   1.370  12.107  0.1743 -0.0560 -0.1810
15509TIP3    H267943   5.356   1.381  12.004 -0.5689 -0.1186  0.5961
15510TIP3   OH267944   0.533   0.787   1.168  0.0912 -0.2366 -0.1694
15510TIP3    H167945   0.596   0.715   1.176  1.2792  0.7780 -0.1170
15510TIP3    H267946   0.462   0.764   1.228  0.1148 -1.6763 -0.6394
15511TIP3   OH267947   3.364   3.188   0.774  0.3657  0.1063  0.3223
15511TIP3    H167948   3.334   3.240   0.699  1.0733  0.6888  0.4399
15511TIP3    H267949   3.442   3.142   0.741 -0.8200 -1.7022 -0.1024
15512TIP3   OH267950   5.290   1.057  11.566  0.1325 -0.4824  0.3533
15512TIP3    H167951   5.361   1.024  11.621 -0.5129 -1.0551  0.8592
15512TIP3    H267952   5.232   1.101  11.627 -0.6513 -1.2199  0.1504
15513TIP3   OH267953   5.666   1.189  10.470  0.1926 -0.0283 -0.4399
15513TIP3    H167954   5.715   1.128  10.525  1.1113  0.8261 -0.2942
15513TIP3    H267955   5.584   1.142  10.451 -0.1885 -0.3387  1.6881
15514TIP3   OH267956   0.049   6.327   3.385  0.4453  0.1105 -0.1567
15514TIP3    H167957   0.016   6.256   3.439  0.2050 -0.5705 -1.1687
15514TIP3    H267958  -0.030   6.370   3.351  0.5872  0.9103  0.4982
15515TIP3   OH267959   3.182   5.135  11.061 -0.1303 -0.2252 -0.4955
15515TIP3    H167960   3.232   5.056  11.081  1.0781  0.3386 -1.1674
15515TIP3    H267961   3.095   5.102  11.037 -0.1768 -1.2142  0.8979
15516TIP3   OH267962   5.369   1.711  12.829 -0.0669 -0.3371  0.2655
15516TIP3    H167963   5.388   1.711  12.922 -0.0207  0.6759  0.2710
15516TIP3    H267964   5.394   1.799  12.799  0.2827 -0.7712 -0.7768
15517TIP3   OH267965   0.890   5.514  12.313  0.2606  0.7470  0.4163
15517TIP3    H167966   0.925   5.455  12.247  2.1780  1.3258  0.8512
15517TIP3    H267967   0.798   5.528  12.287  0.8870  0.8011 -1.9936
15518TIP3   OH267968   6.502   2.328  13.551 -0.1161 -0.2667  0.1707
15518TIP3    H167969   6.565   2.365  13.490  0.0675 -1.8766 -0.6886
15518TIP3    H267970   6.424   2.384  13.544  0.1409 -0.0459 -1.0488
15519TIP3   OH267971   2.070   6.481  11.367  0.5680 -0.8787  0.2241
15519TIP3    H167972   2.081   6.427  11.446  0.4916 -0.2547  0.6701
15519TIP3    H267973   2.155   6.478  11.324  1.5958  1.2307  1.9282
15520TIP3   OH267974   2.628   2.549   1.007  0.5587  0.0573 -0.0898
15520TIP3    H167975   2.657   2.518   0.921 -0.5281 -2.0277  0.2181
15520TIP3    H267976   2.532   2.554   0.999  0.4872  0.3188  0.8523
15521TIP3   OH267977   4.757   2.072  12.677 -0.3080 -0.6836  0.5389
15521TIP3    H167978   4.724   2.104  12.761 -1.8282  1.8147 -0.8768
15521TIP3    H267979   4.852   2.064  12.690 -0.4062  0.4024  2.2584
15522TIP3   OH267980   2.475   4.802   2.871  0.1702  0.2154 -0.3342
15522TIP3    H167981   2.523   4.804   2.953  0.4063  3.2921 -0.4169
15522TIP3    H267982   2.513   4.729   2.822  1.2121 -0.5824  1.5905
15523TIP3   OH267983   5.675   4.274  11.818  0.4196  0.3349 -0.0596
15523TIP3    H167984   5.594   4.246  11.774  1.2673  0.4487 -1.7908
15523TIP3    H267985   5.647   4.343  11.878 -0.8751 -0.1739 -0.0517
15524TIP3   OH267986   2.773   3.025  16.479  0.5393  0.1756  0.2474
15524TIP3    H167987   2.843   3.051  16.419  1.3236  0.4309  1.2439
15524TIP3    H267988   2.801   2.940  16.512 -0.3427 -0.3962 -0.4150
15525TIP3   OH267989   2.079   2.140  12.986  0.7325  0.7310 -0.0332
15525TIP3    H167990   2.045   2.059  12.948  3.3966 -0.8483  0.6506
15525TIP3    H267991   2.135   2.177  12.918  1.5830  0.5661  0.5633
15526TIP3   OH267992   1.479   0.019   0.079 -0.2923  0.2860 -0.3688
15526TIP3    H167993   1.439   0.023   0.166  1.7479  0.3079  0.6254
15526TIP3    H267994   1.424  -0.042   0.030 -1.4081  0.1631  0.9714
15527TIP3   OH267995   0.089   4.078  11.514 -0.1536  0.4472  0.4631
15527TIP3    H167996   0.070   4.039  11.428 -0.0567  0.8210  0.2667
15527TIP3    H267997   0.058   4.168  11.506 -0.4218  0.3989  0.9273
15528TIP3   OH267998   0.627   4.304   4.427  0.1429  0.2404  0.4045
15528TIP3    H167999   0.673   4.238   4.480 -1.2901 -0.6579  0.5841
15528TIP3    H268000   0.563   4.342   4.487  2.2079  3.2767  0.8909
15529TIP3   OH268001   2.911   3.486   0.002 -0.2196  0.5422 -0.3361
15529TIP3    H168002   2.978   3.509  -0.063  0.6911  2.3110  1.1409
15529TIP3    H268003   2.830   3.479  -0.049  0.8994 -0.7934 -2.0342
15530TIP3   OH268004   1.590   3.653   6.222  0.5549  0.3639 -0.0115
15530TIP3    H168005   1.633   3.586   6.168  1.6451  1.6095 -0.7553
15530TIP3    H268006   1.656   3.678   6.286 -0.0848  0.2498  0.7021
15531TIP3   OH268007   5.314   4.086  12.662  0.2112 -0.4378 -0.1049
15531TIP3    H168008   5.339   4.079  12.754 -0.8871  2.1375  0.4968
15531TIP3    H268009   5.370   4.155  12.627 -0.8888  0.1693 -0.7307
15532TIP3   OH268010   5.909   0.829  11.013 -0.5482 -0.0764 -0.2903
15532TIP3    H168011   5.831   0.869  10.973  1.9361  1.5480 -4.1467
15532TIP3    H268012   5.952   0.901  11.058 -0.6879 -0.7196  0.9076
15533TIP3   OH268013   2.019   0.409  14.046  0.1214  0.5207 -0.2253
15533TIP3    H168014   2.062   0.445  14.123  2.0625  0.9564 -1.4384
15533TIP3    H268015   1.962   0.479  14.014 -0.8766  0.2540  0.8965
15534TIP3   OH268016   6.238   2.400   2.914 -0.0965 -0.4563  0.4943
15534TIP3    H168017   6.223   2.478   2.861  0.6389  0.7495  1.9794
15534TIP3    H268018   6.244   2.433   3.004 -0.0014 -2.2597  1.1907
15535TIP3   OH268019   3.295   5.853  11.521 -0.2826  1.0107 -0.1829
15535TIP3    H168020   3.260   5.915  11.585 -0.3259  1.0630 -0.2589
15535TIP3    H268021   3.278   5.767  11.560  1.3901  1.0790  0.7929
15536TIP3   OH268022   2.951   1.088   5.887  0.2291 -0.0383  0.2344
15536TIP3    H168023   2.997   1.007   5.912 -0.0291 -0.0920  0.5420
15536TIP3    H268024   3.021   1.148   5.861  0.5831  0.2652  1.7747
15537TIP3   OH268025   0.156   2.045  15.010  0.3044  0.2457 -0.4754
15537TIP3    H168026   0.171   2.131  15.049  0.0176  0.7416 -1.4262
15537TIP3    H268027   0.221   2.039  14.940  1.1927 -0.8693  0.3980
15538TIP3   OH268028   4.294   1.180  16.113  0.2043 -0.2774 -0.0164
15538TIP3    H168029   4.388   1.161  16.113 -0.0077 -1.4191  0.8439
15538TIP3    H268030   4.274   1.197  16.021  1.2444 -0.0829 -0.2249
15539TIP3   OH268031   2.033   0.874   5.508 -0.0522  0.7192  0.0393
15539TIP3    H168032   1.939   0.879   5.526 -0.1769  1.9469 -0.8398
15539TIP3    H268033   2.070   0.952   5.550  0.9141 -0.7307  2.0674
15540TIP3   OH268034   5.548   3.685   0.974 -0.5905 -0.3152  0.5830
15540TIP3    H168035   5.528   3.655   0.885 -2.2482 -0.3048  0.9097
15540TIP3    H268036   5.642   3.672   0.984 -0.5606 -1.3441 -0.7918
15541TIP3   OH268037   5.161   5.692   4.625  0.1249  0.3764  0.0963
15541TIP3    H168038   5.135   5.606   4.658  2.8862 -0.1705  1.1401
15541TIP3    H268039   5.102   5.753   4.669 -0.8731 -0.8613  0.5494
15542TIP3   OH268040   2.617   3.082   1.342  1.1515 -0.3388 -0.2635
15542TIP3    H168041   2.686   3.115   1.399 -0.6352  0.4632  1.5772
15542TIP3    H268042   2.571   3.017   1.396 -0.0046 -0.2786 -1.1425
15543TIP3   OH268043   0.407   0.328   2.678 -0.2645  0.4364 -0.0200
15543TIP3    H168044   0.481   0.382   2.650 -0.9771  2.1318  1.1513
15543TIP3    H268045   0.416   0.322   2.774 -0.7949 -0.6540 -0.0169
15544TIP3   OH268046   5.072   0.604  17.087 -0.1694 -0.0173  0.5954
15544TIP3    H168047   5.149   0.633  17.135 -1.4822  1.6975  1.8109
15544TIP3    H268048   5.030   0.541  17.146  0.0681 -0.5971  0.1421
15545TIP3   OH268049   5.323   2.730   3.427 -0.3658 -0.1000 -0.1753
15545TIP3    H168050   5.384   2.660   3.449 -0.2082  0.1796  0.3185
15545TIP3    H268051   5.376   2.795   3.381  0.0856  0.8225  1.5418
15546TIP3   OH268052   5.659   4.408   1.130  0.3815 -0.3758 -0.0490
15546TIP3    H168053   5.665   4.382   1.222 -1.1534 -0.6890 -0.0104
15546TIP3    H268054   5.692   4.498   1.129 -0.0819 -0.1756  0.9075
15547TIP3   OH268055   0.356   5.867  16.621  0.5304  0.2378 -0.0894
15547TIP3    H168056   0.284   5.855  16.684 -0.9549 -3.1905 -2.1887
15547TIP3    H268057   0.388   5.955  16.640 -2.0251  0.6979  3.1662
15548TIP3   OH268058   2.426   1.790  15.969 -0.2812 -0.7257 -0.0233
15548TIP3    H168059   2.385   1.718  16.016  0.6444 -1.8451 -0.8652
15548TIP3    H268060   2.395   1.782  15.879 -1.2893  0.8155  0.1526
15549TIP3   OH268061   6.174   5.252   5.903 -0.0729 -0.1713 -0.3535
15549TIP3    H168062   6.251   5.226   5.854  0.9097  2.5339 -0.4403
15549TIP3    H268063   6.116   5.291   5.838 -0.2892  0.3119  0.1178
15550TIP3   OH268064   6.265   3.357   3.788  0.2943  0.0659  0.2690
15550TIP3    H168065   6.331   3.423   3.807 -0.9303  0.8725  1.9737
15550TIP3    H268066   6.184   3.406   3.772 -0.3508 -0.9655  0.2097
15551TIP3   OH268067   1.692   3.597  16.824  0.3183 -0.1772 -0.6849
15551TIP3    H168068   1.645   3.516  16.846  1.2356 -0.1742  1.5525
15551TIP3    H268069   1.626   3.651  16.779 -1.4268 -0.7669  0.9883
15552TIP3   OH268070   1.183   4.510   4.901 -0.1638  0.1178  0.1815
15552TIP3    H168071   1.095   4.532   4.930 -1.1120  1.5196 -3.2175
15552TIP3    H268072   1.239   4.578   4.939 -0.7945  0.1813  1.0194
15553TIP3   OH268073   1.314   2.592  16.506  0.6054 -0.0351  0.1252
15553TIP3    H168074   1.236   2.631  16.466  1.0335  0.9143  0.1799
15553TIP3    H268075   1.374   2.666  16.518  1.0755 -0.5616  1.1194
15554TIP3   OH268076   1.067   0.521   0.086 -0.1467  0.4577  0.2515
15554TIP3    H168077   1.003   0.481   0.145 -1.0282  2.1110  0.5072
15554TIP3    H268078   1.014   0.576   0.028  1.0070  1.9183  0.5009
15555TIP3   OH268079   0.981   2.139   1.733 -0.5535  0.3093  0.1484
15555TIP3    H168080   0.963   2.158   1.641 -0.8685 -2.4748 -0.4479
15555TIP3    H268081   1.073   2.115   1.735 -0.2278  1.5170  0.8240
15556TIP3   OH268082   6.390   2.049  16.442 -0.0818 -0.8684 -0.2943
15556TIP3    H168083   6.410   2.118  16.378 -1.1494 -1.4143 -1.2690
15556TIP3    H268084   6.346   2.095  16.514  0.0573 -0.3972 -0.5047
15557TIP3   OH268085   0.816   0.987  13.420  0.1942  0.2811 -0.0434
15557TIP3    H168086   0.822   1.081  13.437  0.3789  0.0923  1.0516
15557TIP3    H268087   0.882   0.949  13.478 -0.0052 -0.5396 -0.3504
15558TIP3   OH268088   0.727   0.220   6.308 -0.8247  0.6423 -0.1221
15558TIP3    H168089   0.701   0.172   6.386 -0.2610  0.8015  0.1644
15558TIP3    H268090   0.778   0.157   6.257 -0.1253  0.9207  0.2317
15559TIP3   OH268091   0.596   0.640  12.922 -0.0030  0.5122 -0.4877
15559TIP3    H168092   0.598   0.662  13.016  0.2305 -2.9835  0.4686
15559TIP3    H268093   0.504   0.650  12.898  0.0828  2.4021 -0.2277
15560TIP3   OH268094   2.416   2.804   6.310  0.1288 -0.1049 -0.2393
15560TIP3    H168095   2.349   2.751   6.268  1.8365 -1.8154 -0.9899
15560TIP3    H268096   2.375   2.835   6.391 -1.7587 -0.4569 -1.0048
15561TIP3   OH268097   2.577   0.223   4.510 -0.2980 -0.1982  0.1624
15561TIP3    H168098   2.489   0.260   4.515 -0.3398 -0.4119  2.1186
15561TIP3    H268099   2.628   0.289   4.464 -1.3490  0.1736 -0.5158
15562TIP3   OH268100   4.836   4.980  15.571 -0.1889 -0.1536  0.5808
15562TIP3    H168101   4.920   4.967  15.615 -0.3920 -0.2034  0.9540
15562TIP3    H268102   4.848   4.941  15.485  0.3094  0.2092  0.4803
15563TIP3   OH268103   1.934   2.579   2.203 -0.2540 -0.1041  0.1137
15563TIP3    H168104   1.959   2.500   2.252  1.2502  1.6974  2.4986
15563TIP3    H268105   1.985   2.573   2.122 -0.8993 -1.9925 -0.2165
15564TIP3   OH268106   6.471   5.724  15.295  0.1915  0.1167 -0.6306
15564TIP3    H168107   6.552   5.689  15.258  0.5632 -0.3173  0.5500
15564TIP3    H268108   6.463   5.680  15.380 -1.2604  0.1849 -0.7128
15565TIP3   OH268109   5.352   2.620  10.612  0.5731 -0.1950 -0.3482
15565TIP3    H168110   5.375   2.572  10.533  3.4381 -0.8977  0.7760
15565TIP3    H268111   5.416   2.692  10.616 -1.6410  1.9205 -0.3498
15566TIP3   OH268112   0.921   1.801  12.689  0.3025  0.4428 -0.1678
15566TIP3    H168113   0.879   1.870  12.741  3.7764  3.2060 -0.6953
15566TIP3    H268114   0.924   1.835  12.600  2.7925  0.0353 -0.3041
15567TIP3   OH268115   6.787   3.395  11.039  0.0681  0.1968 -0.0644
15567TIP3    H168116   6.805   3.442  10.958 -1.0451  0.9210  0.0812
15567TIP3    H268117   6.863   3.338  11.052 -0.0262 -0.4155 -1.9460
15568TIP3   OH268118   3.356   2.280   4.650 -0.3999  0.2199  0.5175
15568TIP3    H168119   3.342   2.322   4.735  2.3176  0.6187  0.8473
15568TIP3    H268120   3.340   2.187   4.667  1.0170  0.1627  1.7470
15569TIP3   OH268121   4.242   5.981   2.684 -0.3238 -0.7393 -0.1250
15569TIP3    H168122   4.238   5.968   2.779 -0.4017  1.9194  0.3088
15569TIP3    H268123   4.195   5.906   2.648 -1.4996 -1.1299  2.0224
15570TIP3   OH268124   4.575   1.146  13.081  0.1677  0.3843  0.2921
15570TIP3    H168125   4.566   1.061  13.125 -0.2805 -0.1630 -0.8133
15570TIP3    H268126   4.530   1.134  12.998 -1.6891  2.3376  0.9227
15571TIP3   OH268127   2.711   5.821   4.327  0.0489 -0.4804 -0.5010
15571TIP3    H168128   2.621   5.788   4.331 -0.5527  1.1049 -0.5303
15571TIP3    H268129   2.739   5.827   4.418  0.8656 -2.8053 -0.5289
15572TIP3   OH268130   3.693   1.976  12.293 -0.2159 -0.0443  0.2323
15572TIP3    H168131   3.774   1.931  12.266  0.2407  0.7984  0.1666
15572TIP3    H268132   3.662   2.018  12.213 -0.3496  0.1961  0.4109
15573TIP3   OH268133   1.334   4.757  12.924 -0.1753  0.1229 -0.5999
15573TIP3    H168134   1.289   4.805  12.854  0.7701  0.9125 -0.6890
15573TIP3    H268135   1.275   4.685  12.945 -1.4744  1.1046 -0.7354
15574TIP3   OH268136   3.142   2.580   5.355  0.2614  0.5568  0.0063
15574TIP3    H168137   3.212   2.643   5.370 -0.7368  1.8603 -0.6021
15574TIP3    H268138   3.088   2.585   5.433  0.9812 -0.6665  0.6051
15575TIP3   OH268139   0.917   1.945  12.449 -0.2191 -0.1002 -0.1837
15575TIP3    H168140   0.996   1.897  12.427 -0.1057 -1.5494  2.8778
15575TIP3    H268141   0.941   2.000  12.523 -2.1168 -0.9061  1.1176
15576TIP3   OH268142   2.587   1.592   2.101  0.5450  0.7719 -0.6868
15576TIP3    H168143   2.618   1.512   2.059 -0.5288  0.0619 -0.1569
15576TIP3    H268144   2.505   1.567   2.143  0.2461  2.1290 -0.4242
15577TIP3   OH268145   3.001   5.024  11.668  0.1868 -0.7974  0.4353
15577TIP3    H168146   3.039   4.964  11.605 -2.8564 -2.5782  0.0878
15577TIP3    H268147   3.046   5.004  11.750  1.6201 -1.0575 -0.3787
15578TIP3   OH268148   1.250   6.609   2.831  0.8758  0.0389 -0.4482
15578TIP3    H168149   1.180   6.658   2.789  0.6646 -0.0461 -0.1951
15578TIP3    H268150   1.264   6.652   2.915  0.8050 -0.2306 -0.2964
15579TIP3   OH268151   0.976   3.070   3.916 -0.4451  0.5477  0.4288
15579TIP3    H168152   1.011   3.021   3.841 -2.8556  0.6262 -0.8426
15579TIP3    H268153   0.883   3.046   3.920 -0.9384  2.4180  1.8895
15580TIP3   OH268154   0.098   3.050  11.509  0.0180 -0.3353  0.5597
15580TIP3    H168155   0.091   2.968  11.557 -1.4584  0.5824  2.0233
15580TIP3    H268156   0.027   3.104  11.544 -0.2272  0.9039 -1.6897
15581TIP3   OH268157   4.432   3.257   4.063  0.4438 -0.2309  0.3252
15581TIP3    H168158   4.355   3.298   4.022  0.9608  0.1867 -0.2320
15581TIP3    H268159   4.411   3.257   4.156 -0.2722 -0.1962  0.1755
15582TIP3   OH268160   6.449   2.709  11.124 -0.2672  0.4778 -0.3424
15582TIP3    H168161   6.453   2.683  11.032  2.2936  0.2049 -0.2315
15582TIP3    H268162   6.464   2.803  11.123 -0.2626  0.4783 -0.2123
15583TIP3   OH268163   3.654   1.536   1.571 -0.6139  0.1664 -0.3056
15583TIP3    H168164   3.689   1.463   1.519  0.7565 -0.6763  1.6507
15583TIP3    H268165   3.561   1.517   1.579 -0.5462 -0.5620 -1.0344
15584TIP3   OH268166   0.397   4.772  14.014  0.6115 -0.3456 -0.5578
15584TIP3    H168167   0.405   4.866  14.030 -1.6832 -0.1131 -0.4569
15584TIP3    H268168   0.335   4.765  13.942  0.2190 -1.8051 -0.1204
15585TIP3   OH268169   5.136   3.062   1.261 -0.1434 -0.0837 -1.0367
15585TIP3    H168170   5.204   3.126   1.280  0.1102 -0.5196 -0.4406
15585TIP3    H268171   5.058   3.095   1.306  0.5644 -1.3385  1.2541
15586TIP3   OH268172   4.697   6.137  14.377 -0.4898 -0.5837  0.3142
15586TIP3    H168173   4.683   6.158  14.285 -1.0151  0.2872  0.5866
15586TIP3    H268174   4.787   6.104  14.380 -0.3746 -0.3658 -0.4649
15587TIP3   OH268175   2.076   3.346   1.152  0.0457  0.4646  0.8568
15587TIP3    H168176   2.064   3.269   1.097  1.4642  1.0447 -0.3400
15587TIP3    H268177   2.005   3.405   1.127  0.9296  0.9071 -0.7628
15588TIP3   OH268178   4.393   0.424   6.063  0.5379 -0.1109  0.1870
15588TIP3    H168179   4.305   0.386   6.066  0.5627 -0.0981  2.0251
15588TIP3    H268180   4.397   0.479   6.141  1.8779  0.5832 -0.3599
15589TIP3   OH268181   5.445   3.850  12.600 -0.0446  0.3367  0.4226
15589TIP3    H168182   5.372   3.911  12.594 -0.5308 -0.3266 -1.0212
15589TIP3    H268183   5.520   3.905  12.623 -0.4860  1.4899 -0.7291
15590TIP3   OH268184   3.530   0.969   5.604  0.1333  0.1599 -0.9554
15590TIP3    H168185   3.472   0.982   5.529  0.7306 -0.5798 -1.5658
15590TIP3    H268186   3.618   0.972   5.567  0.5198  1.6247  0.0112
15591TIP3   OH268187   1.211   2.742   5.700  0.3919 -0.6711 -0.3447
15591TIP3    H168188   1.152   2.815   5.716  0.0087 -0.6971 -1.5616
15591TIP3    H268189   1.276   2.776   5.638  1.0663 -0.9453  0.1918
15592TIP3   OH268190   3.555   6.386  14.246 -0.0973  0.5845 -0.2372
15592TIP3    H168191   3.479   6.329  14.237 -1.4995  2.3983 -0.5069
15592TIP3    H268192   3.580   6.406  14.156  0.2043  0.6173 -0.1458
15593TIP3   OH268193   0.806   1.005   3.493  0.0477 -0.2090 -0.5453
15593TIP3    H168194   0.866   1.064   3.447  0.2133  0.4576  0.4947
15593TIP3    H268195   0.740   1.063   3.530  0.7544 -0.5358  1.3465
15594TIP3   OH268196   5.056   1.924  10.285  0.5630  0.1436  0.8680
15594TIP3    H168197   5.074   1.849  10.229  0.6056 -0.6876  1.9488
15594TIP3    H268198   5.137   1.976  10.283 -0.3222  1.5713 -1.9053
15595TIP3   OH268199   6.430   0.279   3.317  0.3617 -0.3886  0.4451
15595TIP3    H168200   6.470   0.268   3.403  0.8308  0.2865  0.3256
15595TIP3    H268201   6.381   0.198   3.302  1.1156 -0.9417  0.8976
15596TIP3   OH268202   2.046   0.173   4.673 -0.1878  0.6206  0.3682
15596TIP3    H168203   2.073   0.090   4.711  3.0281  1.3846  0.0291
15596TIP3    H268204   2.025   0.228   4.748  0.4744  0.3667  0.7446
15597TIP3   OH268205   5.918   5.373  12.346 -0.4425 -0.0339  0.6192
15597TIP3    H168206   5.976   5.443  12.377 -1.8394  1.2195  0.5365
15597TIP3    H268207   5.835   5.418  12.327  0.0116 -0.7587 -4.2617
15598TIP3   OH268208   5.557   1.932  14.382 -0.1115 -1.1588 -0.1595
15598TIP3    H168209   5.527   1.850  14.344 -0.4482 -0.5784 -1.1831
15598TIP3    H268210   5.580   1.987  14.307 -2.3336  0.6055  0.3557
15599TIP3   OH268211   0.111   2.633  14.105 -0.6177  0.8362  0.2762
15599TIP3    H168212   0.195   2.590  14.086 -1.3439 -0.5557  0.0667
15599TIP3    H268213   0.048   2.585  14.052 -1.2418  3.4318 -1.4817
15600TIP3   OH268214   0.249   5.802  14.257  0.0242 -0.1917  0.2593
15600TIP3    H168215   0.251   5.868  14.187 -0.9652 -0.5182 -0.1055
15600TIP3    H268216   0.260   5.852  14.337 -1.0260  0.4788  0.0096
15601TIP3   OH268217   0.793   1.186  13.809 -0.0157 -0.1480 -0.4924
15601TIP3    H168218   0.785   1.093  13.830 -1.9867 -0.0340 -0.6039
15601TIP3    H268219   0.816   1.188  13.716  0.1525 -0.5185 -0.4584
15602TIP3   OH268220   1.918   2.250   5.341  0.1886 -0.3313  0.3064
15602TIP3    H168221   1.902   2.209   5.426  0.2420  1.0758  1.0390
15602TIP3    H268222   2.007   2.284   5.348 -0.1197  0.5609  0.0281
15603TIP3   OH268223   6.219   0.720  16.163 -0.1885  0.0992  0.0374
15603TIP3    H168224   6.306   0.756  16.146 -0.2758 -0.1166 -0.9389
15603TIP3    H268225   6.166   0.751  16.089 -0.9692  0.3278  0.6843
15604TIP3   OH268226   4.935   3.958   2.943 -0.0437  0.4354 -0.1585
15604TIP3    H168227   4.940   3.868   2.913  4.2613  0.1104  0.8484
15604TIP3    H268228   4.945   3.952   3.038  0.9545  1.9448 -0.1292
15605TIP3   OH268229   4.984   0.600   1.472  0.1907  0.2680 -0.2505
15605TIP3    H168230   5.033   0.681   1.485 -1.2777  1.3093 -0.9225
15605TIP3    H268231   4.933   0.615   1.393 -0.5521 -1.0933 -0.0624
15606TIP3   OH268232   6.509   3.872   0.596 -0.4968  0.1295 -0.8987
15606TIP3    H168233   6.476   3.854   0.508  0.6472 -0.6705 -1.1798
15606TIP3    H268234   6.589   3.922   0.583 -0.4792  0.2699 -0.3003
15607TIP3   OH268235   5.224   0.487   3.672  0.4286 -0.2586 -0.1426
15607TIP3    H168236   5.316   0.463   3.662  0.7539  0.4543  0.9849
15607TIP3    H268237   5.206   0.546   3.599  0.9190 -0.2321 -0.2455
15608TIP3   OH268238   3.010   3.497  13.564 -0.0296  0.5223 -0.6400
15608TIP3    H168239   3.018   3.567  13.629 -1.9358 -0.4369  0.6832
15608TIP3    H268240   3.088   3.508  13.509  0.4696  2.7811  0.3858
15609TIP3   OH268241   4.450   1.960  15.492  0.2920 -0.0141  0.4348
15609TIP3    H168242   4.513   1.891  15.469  0.5897 -0.2328  1.8368
15609TIP3    H268243   4.486   2.000  15.570 -0.7978  0.5512  0.6567
15610TIP3   OH268244   6.249   1.364   3.498 -0.2712  0.3264  0.3234
15610TIP3    H168245   6.341   1.363   3.525  0.0103  0.1716 -0.6124
15610TIP3    H268246   6.228   1.457   3.485 -0.4915  0.4299  1.2809
15611TIP3   OH268247   2.157   0.792  13.104 -0.0513 -0.0362 -0.0573
15611TIP3    H168248   2.105   0.830  13.034 -1.6250 -1.0668  0.4995
15611TIP3    H268249   2.141   0.698  13.098  1.6182 -0.3853  0.2774
15612TIP3   OH268250   6.746   5.470   3.254 -0.0789  0.1605  0.1361
15612TIP3    H168251   6.802   5.429   3.188 -0.5273  2.3996 -1.7856
15612TIP3    H268252   6.783   5.443   3.338  4.1115  1.7129 -1.0019
15613TIP3   OH268253   4.009   0.395   3.116  0.8055 -0.2518  0.6382
15613TIP3    H168254   4.026   0.425   3.026 -0.9537  0.8734  0.6418
15613TIP3    H268255   4.060   0.314   3.124  2.7842  0.7978 -0.6047
15614TIP3   OH268256   6.347   4.081  17.093 -0.0463 -0.1074  0.3213
15614TIP3    H168257   6.331   3.992  17.126 -1.7491 -0.0320 -0.1832
15614TIP3    H268258   6.389   4.067  17.009 -1.6049 -0.5362 -0.4354
15615TIP3   OH268259   2.210   2.182  16.178 -0.1806 -0.2161  0.0983
15615TIP3    H168260   2.284   2.241  16.158 -1.3391  1.3759  0.3012
15615TIP3    H268261   2.143   2.205  16.114 -0.5492 -1.6101 -0.0508
15616TIP3   OH268262   2.041   2.507  12.937  0.7569 -0.0795  0.0501
15616TIP3    H168263   1.997   2.590  12.920  0.1027 -0.6195 -1.0342
15616TIP3    H268264   2.130   2.532  12.963 -0.3083  1.0667  2.9617
15617TIP3   OH268265   4.623   4.505   0.075 -0.2175 -0.9766 -0.3519
15617TIP3    H168266   4.565   4.460   0.015  0.2099 -2.2308  0.1460
15617TIP3    H268267   4.635   4.444   0.148  0.3523 -0.0434  0.3666
15618TIP3   OH268268   4.814   3.760  10.367 -0.1059  0.0809 -0.2425
15618TIP3    H168269   4.744   3.709  10.326  0.9552 -0.1546 -1.8402
15618TIP3    H268270   4.894   3.728  10.327  1.1167 -0.5932  2.5032
15619TIP3   OH268271   0.821   1.797   0.177 -0.0011  0.0387  0.0744
15619TIP3    H168272   0.831   1.705   0.153 -0.4631 -0.0192  0.0852
15619TIP3    H268273   0.782   1.795   0.265  1.7022  0.2487  0.8819
15620TIP3   OH268274   0.146   2.163  13.615 -0.3052 -0.1912 -0.1966
15620TIP3    H168275   0.051   2.161  13.624 -0.2048 -0.2526  1.1457
15620TIP3    H268276   0.167   2.085  13.563 -0.9616 -0.4136 -0.1395
15621TIP3   OH268277   6.110   2.310   0.569  0.5936 -0.2736 -0.5531
15621TIP3    H168278   6.130   2.397   0.605 -0.5793 -1.1325  2.5039
15621TIP3    H268279   6.191   2.261   0.578  0.4561 -0.3200  0.5325
15622TIP3   OH268280   5.882   1.429  14.698 -0.1450  0.5168  0.2872
15622TIP3    H168281   5.817   1.382  14.646 -0.8508  1.4776  0.2617
15622TIP3    H268282   5.835   1.506  14.730  1.0611  1.3823  0.0399
15623TIP3   OH268283   0.558   0.483  12.146 -0.0546 -0.4690  0.3458
15623TIP3    H168284   0.634   0.442  12.188 -0.5575 -2.9572 -0.9506
15623TIP3    H268285   0.485   0.461  12.203 -0.0531  0.5096  0.7390
15624TIP3   OH268286   2.311   3.707  13.286 -0.7347 -0.1091  0.2416
15624TIP3    H168287   2.336   3.699  13.194 -3.3674  0.4017 -0.5974
15624TIP3    H268288   2.344   3.793  13.313 -0.8893  0.2141 -0.5706
15625TIP3   OH268289   2.718   4.451   4.875 -0.2176 -0.1854 -0.0774
15625TIP3    H168290   2.705   4.360   4.901  2.9870 -0.2557  1.8315
15625TIP3    H268291   2.690   4.455   4.783  2.2833 -3.9077 -1.2273
15626TIP3   OH268292   0.598   1.540  16.090 -0.0627 -0.4267 -0.3454
15626TIP3    H168293   0.664   1.604  16.117 -0.7231  0.5938 -1.0268
15626TIP3    H268294   0.522   1.559  16.146 -0.1837 -0.7825 -0.3853
15627TIP3   OH268295   6.380   5.720   3.546 -0.1967 -0.2476  0.1542
15627TIP3    H168296   6.438   5.654   3.584  0.7087 -0.0428 -0.8185
15627TIP3    H268297   6.432   5.760   3.476 -0.7351  1.4480  0.6603
15628TIP3   OH268298   4.099   6.770   2.548 -0.4378  0.3745 -0.0862
15628TIP3    H168299   4.136   6.689   2.583 -1.9135 -1.1064 -1.7178
15628TIP3    H268300   4.026   6.790   2.607 -0.0303  0.5596  0.3579
15629TIP3   OH268301   1.196   5.875  14.673  0.2864  0.4501  0.2619
15629TIP3    H168302   1.259   5.840  14.736  0.3833  1.4318  0.7262
15629TIP3    H268303   1.230   5.847  14.588 -0.0531 -1.2001  0.6473
15630TIP3   OH268304   6.797   0.946   4.642 -0.1061 -0.1101 -0.2014
15630TIP3    H168305   6.815   0.852   4.653  1.0926  0.2143  1.0153
15630TIP3    H268306   6.754   0.971   4.724 -0.8124  0.3314 -0.6976
15631TIP3   OH268307   2.352   0.400  12.313  0.4332 -0.9980  0.3533
15631TIP3    H168308   2.268   0.359  12.338 -0.4489 -0.4702 -1.5157
15631TIP3    H268309   2.333   0.493  12.309  1.8525 -0.5524  2.4054
15632TIP3   OH268310   2.557   1.612   4.224  0.0018 -0.3444  0.0546
15632TIP3    H168311   2.650   1.624   4.243  0.6914 -0.1293 -2.9641
15632TIP3    H268312   2.556   1.550   4.151 -2.0739  1.1674 -1.2910
15633TIP3   OH268313   5.380   2.925   0.151 -0.8729  0.2597 -0.1280
15633TIP3    H168314   5.446   2.875   0.103  1.0317  1.3567  1.1893
15633TIP3    H268315   5.431   2.989   0.202 -3.1067  3.0171 -1.1033
15634TIP3   OH268316   6.611   5.749   5.318  0.0903  0.3085  0.7150
15634TIP3    H168317   6.640   5.827   5.270  0.1716  0.2624  0.6898
15634TIP3    H268318   6.691   5.699   5.334 -0.1821 -0.7902 -1.0574
15635TIP3   OH268319   4.724   1.397   2.604  0.3204 -0.4010 -0.1652
15635TIP3    H168320   4.650   1.344   2.633  0.9796 -1.6490 -0.6724
15635TIP3    H268321   4.734   1.376   2.511  0.1740  1.1699 -0.5731
15636TIP3   OH268322   3.675   1.254   5.645  0.1268  0.2488  0.5384
15636TIP3    H168323   3.598   1.298   5.610 -0.1077 -0.7565 -0.2389
15636TIP3    H268324   3.666   1.261   5.740 -0.3506  1.0952  0.4341
15637TIP3   OH268325   4.000   6.055   1.655  0.4522  0.0619  0.2853
15637TIP3    H168326   3.949   6.004   1.719  0.1231  0.1993  0.1354
15637TIP3    H268327   4.084   6.010   1.651 -0.4248 -1.5867 -1.1880
15638TIP3   OH268328   0.425   3.646  14.258  0.2166 -0.1580  0.5488
15638TIP3    H168329   0.421   3.585  14.331 -2.3475  0.0435  0.6762
15638TIP3    H268330   0.483   3.716  14.289 -1.1355  0.1570  2.6689
15639TIP3   OH268331   5.075   5.087   3.992  0.1999  0.0369 -0.2395
15639TIP3    H168332   5.087   5.159   4.054 -1.5296 -1.1435  1.5820
15639TIP3    H268333   5.108   5.010   4.038  0.4793 -0.6203 -1.5051
15640TIP3   OH268334   3.081   1.313  16.164  0.0638 -0.6519 -0.0625
15640TIP3    H168335   3.089   1.316  16.259 -0.9575  0.5585  0.0131
15640TIP3    H268336   3.156   1.364  16.132  0.9809 -1.9063  0.0363
15641TIP3   OH268337   0.888   2.970   5.023 -0.2987  0.0243  0.1464
15641TIP3    H168338   0.845   3.000   4.944  3.1404  0.3971 -1.7494
15641TIP3    H268339   0.819   2.924   5.072 -2.7858  0.6525 -2.5286
15642TIP3   OH268340   1.917   5.007   5.126 -0.2007  0.7633 -0.8375
15642TIP3    H168341   1.831   5.040   5.153  1.1661  2.4045  1.8570
15642TIP3    H268342   1.901   4.915   5.104 -2.5173  0.8109  0.3284
15643TIP3   OH268343   6.497   4.243  16.364  0.0775  0.4076  0.6226
15643TIP3    H168344   6.443   4.173  16.327  1.5568  0.0100 -0.8973
15643TIP3    H268345   6.491   4.231  16.458 -1.0579 -0.7130  0.4309
15644TIP3   OH268346   4.979   2.163   4.542 -0.1552  0.0832  0.0579
15644TIP3    H168347   5.003   2.154   4.450  0.6581  2.9554 -0.1029
15644TIP3    H268348   4.961   2.256   4.554 -2.8780 -0.5880  2.2325
15645TIP3   OH268349   3.588   2.772  10.933  0.3293  0.1571  0.2641
15645TIP3    H168350   3.524   2.776  10.861  0.7421  1.2686 -0.0616
15645TIP3    H268351   3.597   2.862  10.963  0.5719 -0.2141  1.3685
15646TIP3   OH268352   4.391   1.058  10.867  0.0687  0.2204 -0.1568
15646TIP3    H168353   4.363   0.975  10.907 -0.4934  0.0678 -0.8479
15646TIP3    H268354   4.363   1.125  10.929  2.0156 -0.1809  1.2330
15647TIP3   OH268355   2.372   5.445   0.264  0.1480 -0.1626 -0.5001
15647TIP3    H168356   2.394   5.432   0.356  1.4114  0.6679 -0.6469
15647TIP3    H268357   2.340   5.535   0.259 -1.3971 -0.6979 -0.6450
15648TIP3   OH268358   2.848   6.562   0.984 -0.0486 -0.2700  0.0905
15648TIP3    H168359   2.850   6.584   0.891  0.8330  0.7871  0.3282
15648TIP3    H268360   2.865   6.645   1.028 -0.1592 -0.8105  1.1866
15649TIP3   OH268361   4.552   1.391  13.862 -0.4427  0.0777 -0.1973
15649TIP3    H168362   4.601   1.317  13.898  1.4236  1.3364 -0.0213
15649TIP3    H268363   4.568   1.387  13.768  1.2468  1.2861 -0.0039
15650TIP3   OH268364   1.228   6.375   2.573 -0.8149  0.0820  0.5048
15650TIP3    H168365   1.224   6.324   2.654 -0.6267  0.9841  1.0864
15650TIP3    H268366   1.257   6.312   2.507 -1.5314 -0.8065  1.0091
15651TIP3   OH268367   4.306   3.487  13.318 -0.5162  0.1001 -0.3878
15651TIP3    H168368   4.355   3.437  13.253 -0.0017  0.3329 -0.1908
15651TIP3    H268369   4.238   3.427  13.349  0.7623 -0.8951  0.6341
15652TIP3   OH268370   5.759   0.577   5.735 -0.6560 -0.1708 -0.2022
15652TIP3    H168371   5.683   0.572   5.792  0.6093 -0.6376  1.5193
15652TIP3    H268372   5.787   0.669   5.741 -0.5782 -0.1985 -0.1329
15653TIP3   OH268373   5.342   0.458   1.474  0.1849  0.1715  0.2952
15653TIP3    H168374   5.356   0.547   1.444 -0.8284 -0.3902 -2.0944
15653TIP3    H268375   5.430   0.419   1.476  0.7432  1.4041  2.2327
15654TIP3   OH268376   4.077   6.239   1.981  0.2974 -0.8945 -0.2142
15654TIP3    H168377   3.986   6.259   2.005 -0.5046 -2.7568 -1.4786
15654TIP3    H268378   4.092   6.151   2.016  1.2553 -1.0269 -0.9180
15655TIP3   OH268379   4.744   5.727   0.981 -0.5089 -0.3352 -0.4303
15655TIP3    H168380   4.723   5.720   0.888 -0.0955 -0.6076 -0.5039
15655TIP3    H268381   4.786   5.644   1.002 -0.4295 -0.1960 -0.0431
15656TIP3   OH268382   6.390   0.846  13.448  0.7091 -0.4324 -0.4415
15656TIP3    H168383   6.366   0.921  13.393 -2.3690 -1.1151 -0.1991
15656TIP3    H268384   6.420   0.885  13.530  0.0835  0.5640 -0.6645
15657TIP3   OH268385   2.463   3.798  14.998  0.7077 -0.2585 -0.4609
15657TIP3    H168386   2.424   3.782  14.912  3.4378 -0.5992 -1.7233
15657TIP3    H268387   2.493   3.712  15.027 -0.7651 -0.2643  1.2097
15658TIP3   OH268388   2.596   2.881   1.526 -0.2435  0.0668 -0.2588
15658TIP3    H168389   2.613   2.787   1.514 -1.1219 -0.0398 -0.7432
15658TIP3    H268390   2.617   2.898   1.618  1.7162 -0.2004 -0.6111
15659TIP3   OH268391   2.140   4.070   3.686  0.0937  0.0186  0.1153
15659TIP3    H168392   2.050   4.084   3.656  0.1163  0.0262  0.0504
15659TIP3    H268393   2.137   3.984   3.728  0.4245 -0.7523 -1.3716
15660TIP3   OH268394   6.197   0.436  12.155  0.5151  0.3465  0.0376
15660TIP3    H168395   6.147   0.421  12.235  0.0428 -1.6816 -0.5623
15660TIP3    H268396   6.284   0.400  12.174 -0.1888 -2.1106 -0.9400
15661TIP3   OH268397   4.138   6.475  12.673 -0.0922  0.3192  0.4282
15661TIP3    H168398   4.077   6.446  12.741  1.2365 -0.9357  1.1248
15661TIP3    H268399   4.221   6.486  12.719  0.3918  1.2926 -0.6517
15662TIP3   OH268400   1.524   1.275   4.353  0.1343  0.0169 -0.0087
15662TIP3    H168401   1.611   1.314   4.355  1.0263 -1.8583 -0.0546
15662TIP3    H268402   1.499   1.277   4.261  0.1611  0.4989 -0.0058
15663TIP3   OH268403   5.671   0.751  16.129 -0.1903  0.0634 -0.4043
15663TIP3    H168404   5.665   0.816  16.199 -1.1620 -1.5890  1.1502
15663TIP3    H268405   5.621   0.789  16.057  2.0805  2.4847 -0.8834
15664TIP3   OH268406   6.050   3.349  14.237  0.3915  0.2017 -0.5540
15664TIP3    H168407   6.056   3.268  14.185 -0.0991  0.3773 -0.8904
15664TIP3    H268408   6.043   3.418  14.172 -1.6471  0.3153 -0.2717
15665TIP3   OH268409   5.521   5.788  16.590 -0.5794 -0.0845  0.1257
15665TIP3    H168410   5.520   5.693  16.580  0.8050 -0.0221 -0.9893
15665TIP3    H268411   5.611   5.808  16.617 -0.6752  0.9658 -0.2918
15666TIP3   OH268412   6.481   0.420   5.964 -0.4225 -0.0678 -0.0708
15666TIP3    H168413   6.493   0.396   6.055  1.4952  0.3773 -0.1527
15666TIP3    H268414   6.527   0.352   5.915 -0.7100  0.1568 -0.6644
15667TIP3   OH268415   6.302   2.385  14.367 -0.7778 -0.5545 -0.1326
15667TIP3    H168416   6.228   2.333  14.398  0.3211 -1.8050  0.4688
15667TIP3    H268417   6.356   2.399  14.445 -0.5384  0.6612 -0.4860
15668TIP3   OH268418   3.407   5.969  16.897 -0.0778  0.6890  0.0012
15668TIP3    H168419   3.313   5.971  16.915  0.1456 -0.3091  1.4260
15668TIP3    H268420   3.448   5.976  16.983  1.1542  0.7017 -0.5669
15669TIP3   OH268421   6.646   4.762   3.411 -0.0984 -0.2416  0.1567
15669TIP3    H168422   6.592   4.777   3.333 -1.1227  2.6580  1.3007
15669TIP3    H268423   6.584   4.765   3.483  1.2165  0.1405  1.3068
15670TIP3   OH268424   2.746   0.532   5.087  0.3021 -0.1609  0.4681
15670TIP3    H168425   2.765   0.626   5.092  4.5399 -0.8687  1.2952
15670TIP3    H268426   2.718   0.509   5.175  1.9535 -0.0575  1.0560
15671TIP3   OH268427   4.490   1.114   5.515 -0.1653 -0.7412  0.9629
15671TIP3    H168428   4.430   1.145   5.447  0.4443 -0.0358  0.7442
15671TIP3    H268429   4.439   1.119   5.596 -1.1459 -2.2704  0.4903
15672TIP3   OH268430   5.764   2.783  11.192  0.4652 -0.3089 -0.9060
15672TIP3    H168431   5.790   2.704  11.238 -0.6098 -0.5270 -0.6493
15672TIP3    H268432   5.727   2.839  11.260 -3.0653 -1.4559 -1.7091
15673TIP3   OH268433   2.091   3.024  11.238  0.1876  0.0570 -0.7763
15673TIP3    H168434   2.183   3.012  11.216  0.3193  0.4510 -0.4587
15673TIP3    H268435   2.092   3.069  11.323 -0.2697  1.3162 -1.4029
15674TIP3   OH268436   6.287   3.783  16.784  0.8614  0.3811 -0.9264
15674TIP3    H168437   6.366   3.729  16.775  0.8519 -0.0225  0.9172
15674TIP3    H268438   6.221   3.723  16.818  0.7131  1.3904  0.6940
15675TIP3   OH268439   2.336   0.250  11.533  0.2007 -0.8643 -0.0826
15675TIP3    H168440   2.241   0.244  11.518  0.0064 -1.2666  1.2038
15675TIP3    H268441   2.368   0.162  11.517  0.3067 -0.8109 -0.1657
15676TIP3   OH268442   1.331   4.375   4.356 -0.0662  0.0190  0.2311
15676TIP3    H168443   1.372   4.459   4.374 -0.4341  0.2323  0.0877
15676TIP3    H268444   1.367   4.315   4.421  1.1347 -0.0079 -0.4237
15677TIP3   OH268445   6.276   1.094  12.779 -0.3572  0.3329  0.1874
15677TIP3    H168446   6.288   1.012  12.827  1.0116  0.5831  0.3065
15677TIP3    H268447   6.190   1.126  12.808 -0.3607 -0.4393  1.0758
15678TIP3   OH268448   4.718   4.610  15.133  0.7111  0.2939 -0.4811
15678TIP3    H168449   4.785   4.651  15.079  1.0874  0.2518 -0.0613
15678TIP3    H268450   4.727   4.516  15.115  0.4744  0.3205 -0.7452
15679TIP3   OH268451   0.247   2.177  14.153 -0.0949  0.4540  0.0375
15679TIP3    H168452   0.226   2.085  14.167  1.1199  0.0323 -0.7351
15679TIP3    H268453   0.227   2.193  14.061  0.7706  0.6343 -0.1348
15680TIP3   OH268454   5.819   2.086  12.333 -0.1537  0.0937 -0.0257
15680TIP3    H168455   5.880   2.160  12.327 -0.0220 -0.1209 -2.8965
15680TIP3    H268456   5.746   2.111  12.276  0.5577 -2.4850 -2.2892
15681TIP3   OH268457   4.862   2.471  14.710  0.2173 -0.2385 -0.1179
15681TIP3    H168458   4.879   2.470  14.804  0.6745  0.0184 -0.1941
15681TIP3    H268459   4.869   2.380  14.683  1.9577 -0.1153 -0.2194
15682TIP3   OH268460   5.231   5.044   6.337 -0.7934  0.1033 -0.8205
15682TIP3    H168461   5.152   5.096   6.323 -0.6126  0.3480 -0.9577
15682TIP3    H268462   5.252   5.056   6.429 -1.8003 -1.2400 -0.3737
15683TIP3   OH268463   1.810   1.203  15.123  0.2510  0.1597 -0.3227
15683TIP3    H168464   1.854   1.166  15.046 -0.4088 -1.7744  0.1762
15683TIP3    H268465   1.796   1.128  15.181  0.8860  1.5916  1.7901
15684TIP3   OH268466   2.515   2.157   0.449 -0.1561 -0.4507 -0.0496
15684TIP3    H168467   2.566   2.081   0.421 -2.1914 -2.6060  1.6702
15684TIP3    H268468   2.426   2.124   0.456 -1.2725  2.3591  0.0168
15685TIP3   OH268469   4.022   4.765  14.066 -0.4111 -0.5070 -0.6912
15685TIP3    H168470   4.011   4.705  14.141 -0.6020  0.8402  0.3901
15685TIP3    H268471   4.101   4.815  14.087  0.0604 -0.7330 -1.8534
15686TIP3   OH268472   4.599   3.794   1.435 -0.4138  0.3226  0.1099
15686TIP3    H168473   4.661   3.738   1.481  0.6668  0.6325 -0.9292
15686TIP3    H268474   4.530   3.734   1.406  0.1614 -0.2912 -0.0232
15687TIP3   OH268475   2.630   6.682  12.291  0.0674  0.2814  0.8583
15687TIP3    H168476   2.619   6.598  12.247 -1.1142  0.2651  1.1630
15687TIP3    H268477   2.641   6.745  12.220  2.0911 -0.2481  0.6397
15688TIP3   OH268478   4.362   0.567   4.904 -0.0124 -0.9609 -0.4441
15688TIP3    H168479   4.425   0.503   4.938  0.1005 -0.0798  1.1151
15688TIP3    H268480   4.411   0.615   4.837  2.0375  1.4690  2.4868
15689TIP3   OH268481   1.830   0.593  13.653 -0.4725  0.0638 -0.7131
15689TIP3    H168482   1.820   0.499  13.639 -0.8077  0.2723 -2.0688
15689TIP3    H268483   1.879   0.624  13.576  0.0155  0.9315 -0.0738
15690TIP3   OH268484   4.651   5.483   6.179 -0.1271  0.2905  0.2185
15690TIP3    H168485   4.713   5.420   6.143  1.0480  1.0742  0.7867
15690TIP3    H268486   4.659   5.473   6.274 -1.1330  0.1681  0.2980
15691TIP3   OH268487   1.636   6.464   2.549 -0.0429  0.2747 -0.1556
15691TIP3    H168488   1.580   6.456   2.472  0.3965  0.0905 -0.4618
15691TIP3    H268489   1.607   6.395   2.608  0.6672 -0.6113 -0.8288
15692TIP3   OH268490   0.730   2.112  12.036 -0.4247  0.6439 -1.1441
15692TIP3    H168491   0.758   2.184  11.980 -0.5325  1.2029 -0.4896
15692TIP3    H268492   0.727   2.036  11.977  0.2783  1.0361 -1.7038
15693TIP3   OH268493   2.005   2.329  13.144 -0.0051  0.1797  0.3069
15693TIP3    H168494   2.007   2.390  13.071 -0.4126 -0.2654 -0.0821
15693TIP3    H268495   2.010   2.242  13.103  3.4370 -0.0666  0.9404
15694TIP3   OH268496   4.952   4.688  12.027 -0.1192  0.2451  0.1412
15694TIP3    H168497   4.981   4.778  12.035 -1.8958  0.7121  2.4709
15694TIP3    H268498   4.979   4.646  12.109 -0.3083 -1.0344 -0.4174
15695TIP3   OH268499   4.020   4.356  14.695 -0.5073  0.2305  0.3152
15695TIP3    H168500   3.934   4.338  14.658  1.2718 -2.5829 -3.0424
15695TIP3    H268501   4.078   4.292  14.654  3.5344  2.9359  1.1975
15696TIP3   OH268502   5.857   1.340  12.215 -0.6469 -0.2430  0.3772
15696TIP3    H168503   5.922   1.272  12.200  0.0718  0.5773 -0.3661
15696TIP3    H268504   5.884   1.382  12.296 -0.8818 -0.6002  0.6430
15697TIP3   OH268505   0.598   3.089  14.424  0.0119  0.3865  0.1918
15697TIP3    H168506   0.591   3.170  14.374  1.3708  0.1631 -0.3758
15697TIP3    H268507   0.507   3.062  14.438 -0.6430  3.2133  2.4445
15698TIP3   OH268508   1.758   3.070   3.093  0.0069 -0.2446 -0.4632
15698TIP3    H168509   1.711   3.126   3.155 -0.4309 -1.9463  0.8315
15698TIP3    H268510   1.840   3.117   3.075 -0.3267  0.7896  0.5658
15699TIP3   OH268511   5.689   0.353  15.002  0.2345  0.1061 -0.1923
15699TIP3    H168512   5.700   0.304  14.921  0.9278 -1.9882  1.1076
15699TIP3    H268513   5.697   0.288  15.071 -1.2071  1.6727  1.5624
15700TIP3   OH268514   6.756   1.791   5.474 -0.2507  0.4641 -0.1477
15700TIP3    H168515   6.799   1.877   5.475  0.2997  0.2328  2.2028
15700TIP3    H268516   6.665   1.810   5.500 -1.4748  0.8233 -4.1141
15701TIP3   OH268517   5.166   5.581   0.889  0.2817 -0.4057 -0.0929
15701TIP3    H168518   5.217   5.501   0.881 -0.2032 -0.7149 -0.1598
15701TIP3    H268519   5.219   5.648   0.845  0.9096 -0.5803  0.3886
15702TIP3   OH268520   2.775   1.801   1.333 -0.2030  0.3436 -0.2299
15702TIP3    H168521   2.736   1.813   1.420  1.1691  0.6415  0.3653
15702TIP3    H268522   2.700   1.784   1.276 -1.0740 -0.5457  1.1224
15703TIP3   OH268523   5.012   2.100  12.334 -0.0928  0.3431 -0.0832
15703TIP3    H168524   5.077   2.085  12.402 -0.3338 -0.7868 -0.0873
15703TIP3    H268525   4.928   2.076  12.375 -0.6022  2.2603  0.0930
15704TIP3   OH268526   0.159   0.246   3.297  0.1881 -0.2390 -0.2470
15704TIP3    H168527   0.212   0.324   3.282  2.2541 -1.6008 -0.4349
15704TIP3    H268528   0.157   0.235   3.392 -0.9038  0.5147 -0.1595
15705TIP3   OH268529   2.597   4.656   5.366  0.3618  0.3832  0.4440
15705TIP3    H168530   2.550   4.574   5.379  0.9085 -0.1661 -0.7874
15705TIP3    H268531   2.658   4.661   5.439  3.6787 -2.7822 -1.7065
15706TIP3   OH268532   6.591   0.497  12.370 -0.0313 -0.1006 -0.2365
15706TIP3    H168533   6.673   0.467  12.410 -0.0732 -0.4102 -0.3848
15706TIP3    H268534   6.577   0.584  12.408 -0.4720 -0.7020  0.9969
15707TIP3   OH268535   0.959   3.352   6.010  0.4391 -0.2469  0.3676
15707TIP3    H168536   0.978   3.258   6.008 -1.1352 -0.6079 -2.2014
15707TIP3    H268537   1.032   3.392   5.963  0.0219 -0.4720 -0.4956
15708TIP3   OH268538   0.325   4.340  16.002  0.8377 -0.0668  0.1685
15708TIP3    H168539   0.398   4.313  16.057  0.3615 -2.3500 -0.2301
15708TIP3    H268540   0.291   4.419  16.044  2.2938 -0.0989  1.4645
15709TIP3   OH268541   4.736   2.428   3.585  0.0624  0.0070 -0.5075
15709TIP3    H168542   4.761   2.426   3.677 -0.3759  0.6690 -0.3734
15709TIP3    H268543   4.720   2.520   3.566  0.1148 -0.1298 -1.2371
15710TIP3   OH268544   6.592   4.821  13.385 -0.1489  0.4146  0.0176
15710TIP3    H168545   6.604   4.742  13.437 -0.1528  0.7078  0.4680
15710TIP3    H268546   6.501   4.817  13.355 -0.1898  0.3129  0.1544
15711TIP3   OH268547   1.332   0.839  16.230  0.8216 -0.3003  0.2126
15711TIP3    H168548   1.368   0.841  16.319 -1.9113  0.2042  1.4227
15711TIP3    H268549   1.239   0.855  16.242 -0.3798 -3.9361 -2.3915
15712TIP3   OH268550   1.231   2.815   0.077 -0.0068  0.0909 -0.1820
15712TIP3    H168551   1.259   2.903   0.051 -0.1966  0.0952 -0.3724
15712TIP3    H268552   1.184   2.827   0.159 -2.5501  0.5638 -1.5912
15713TIP3   OH268553   5.243   6.123  14.598  0.0482  0.3723  0.3467
15713TIP3    H168554   5.302   6.184  14.554 -0.7387 -0.1581 -1.5263
15713TIP3    H268555   5.193   6.081  14.527 -0.6823 -1.1569  1.6888
15714TIP3   OH268556   5.871   2.248  16.377 -0.1915 -0.6124 -0.2599
15714TIP3    H168557   5.781   2.253  16.411 -0.1140 -0.1587 -0.1169
15714TIP3    H268558   5.927   2.253  16.454 -0.0436 -1.1791 -0.3265
15715TIP3   OH268559   0.943   4.079  12.681 -0.5024 -0.6141  0.1886
15715TIP3    H168560   1.019   4.049  12.731 -0.6141 -1.6748 -0.2423
15715TIP3    H268561   0.919   4.162  12.722  1.3093  0.1043 -0.1210
15716TIP3   OH268562   0.387   0.425  15.435  0.4867 -0.0804  0.3350
15716TIP3    H168563   0.461   0.365  15.428 -0.5495 -1.2938 -0.7471
15716TIP3    H268564   0.406   0.494  15.372 -0.0418 -1.2554 -1.1570
15717TIP3   OH268565   3.082   0.964   3.856  0.2436  0.7690  0.0860
15717TIP3    H168566   3.047   1.010   3.932 -0.0654  0.4203  0.1572
15717TIP3    H268567   3.176   0.959   3.872  0.2170  0.9624  0.3011
15718TIP3   OH268568   4.204   1.066   5.048  0.1173  0.7680  0.0058
15718TIP3    H168569   4.177   0.978   5.023  0.5770  0.7927 -0.5871
15718TIP3    H268570   4.249   1.101   4.971  1.5913  0.8294  0.8499
15719TIP3   OH268571   2.818   0.289  11.496 -0.5262 -0.2006  0.3317
15719TIP3    H168572   2.760   0.334  11.435 -0.2319  0.8394  0.7881
15719TIP3    H268573   2.808   0.196  11.475 -2.3466 -0.0555  0.3924
15720TIP3   OH268574   1.345   3.664  13.525  0.3432 -0.2540 -0.4269
15720TIP3    H168575   1.275   3.599  13.534 -0.4843  0.1716 -2.9990
15720TIP3    H268576   1.313   3.724  13.457  0.9874  3.0066  1.9406
15721TIP3   OH268577   0.626   2.060   1.622  0.0193  0.0483 -0.2498
15721TIP3    H168578   0.566   1.987   1.638 -0.4308  0.4134 -0.2603
15721TIP3    H268579   0.701   2.020   1.578 -0.7659 -0.2306 -1.3864
15722TIP3   OH268580   1.510   2.763   4.232 -0.1145  0.0299  0.6906
15722TIP3    H168581   1.522   2.843   4.284  0.5337  0.5178 -0.1621
15722TIP3    H268582   1.463   2.793   4.154  1.0482 -0.1945 -0.1324
15723TIP3   OH268583   0.441   6.304  12.976 -0.0987 -0.5060 -0.0249
15723TIP3    H168584   0.436   6.395  12.946 -0.3907 -1.1906 -2.1988
15723TIP3    H268585   0.366   6.261  12.935 -1.2245 -1.3338  2.6628
15724TIP3   OH268586   6.458   4.896   1.892 -0.2475 -0.5051  0.1321
15724TIP3    H168587   6.531   4.874   1.950  0.3711 -0.9469 -0.7863
15724TIP3    H268588   6.417   4.812   1.873  0.0118 -0.4629 -0.6455
15725TIP3   OH268589   4.215   5.823   5.326  0.1749 -0.0853  0.3704
15725TIP3    H168590   4.219   5.918   5.317 -0.4827  0.0964  1.6666
15725TIP3    H268591   4.128   5.799   5.294  0.4690 -0.2998 -0.2765
15726TIP3   OH268592   0.986   3.308   4.316  0.4578 -0.2387 -0.2353
15726TIP3    H168593   0.930   3.239   4.350 -1.4289  0.6971 -1.2782
15726TIP3    H268594   0.974   3.381   4.377 -0.6054  0.4251 -1.1790
15727TIP3   OH268595   3.637   4.529   0.145 -0.4331 -0.0801  0.1068
15727TIP3    H168596   3.704   4.471   0.182 -1.9200 -0.7911  1.8117
15727TIP3    H268597   3.628   4.500   0.055  2.0015  0.4851 -0.4011
15728TIP3   OH268598   2.515   2.337  13.503  0.2408  0.3080 -0.1009
15728TIP3    H168599   2.512   2.341  13.408 -2.7133  3.0550 -0.0822
15728TIP3    H268600   2.502   2.428  13.531  1.7417 -0.2891  2.9618
15729TIP3   OH268601   2.893   2.968  15.528  0.2057  0.2399  0.3432
15729TIP3    H168602   2.944   3.020  15.590  0.2285  0.1020  0.4407
15729TIP3    H268603   2.815   2.943  15.577 -0.2214  0.9144  0.0202
15730TIP3   OH268604   5.851   0.429   6.058 -0.2379 -0.2313 -0.1554
15730TIP3    H168605   5.898   0.443   6.140 -0.0641 -1.6981  0.0321
15730TIP3    H268606   5.777   0.489   6.062  0.6894  0.9154  0.3081
15731TIP3   OH268607   0.440   0.879  16.060  0.1568  0.1509  0.3179
15731TIP3    H168608   0.425   0.956  16.004 -2.5254  1.0777  2.1164
15731TIP3    H268609   0.405   0.806  16.009 -3.6701  1.1913  1.1504
15732TIP3   OH268610   1.086   4.386  15.003 -0.5915 -0.4948  0.5043
15732TIP3    H168611   1.079   4.460  15.064 -2.2348 -0.4392  0.2853
15732TIP3    H268612   1.124   4.425  14.924  0.2757 -0.2833  1.0142
15733TIP3   OH268613   5.754   3.464   0.606  0.0939 -0.5590  0.0897
15733TIP3    H168614   5.674   3.512   0.582  1.0190 -0.0282 -2.2313
15733TIP3    H268615   5.796   3.520   0.671 -0.9455 -0.3559  0.6054
15734TIP3   OH268616   3.832   6.467  15.041  0.4410 -0.2820  0.6170
15734TIP3    H168617   3.922   6.434  15.032  0.0194 -2.4726  3.1806
15734TIP3    H268618   3.840   6.543  15.098  0.7932  0.4534 -0.3898
15735TIP3   OH268619   5.625   1.580  15.490 -0.5261  0.4021 -0.5658
15735TIP3    H168620   5.567   1.598  15.416 -1.8219  0.0003  0.3148
15735TIP3    H268621   5.583   1.623  15.564 -0.5985 -1.2490  0.4088
15736TIP3   OH268622   1.018   1.087  12.512 -0.1545 -0.1519  0.5127
15736TIP3    H168623   0.974   1.067  12.429 -0.2038  0.7304  0.3134
15736TIP3    H268624   0.961   1.151  12.555  0.3053  0.0582  0.8251
15737TIP3   OH268625   4.752   1.811   2.900 -0.0934 -0.1073  0.1461
15737TIP3    H168626   4.730   1.780   2.812 -0.0256 -0.0668  0.1149
15737TIP3    H268627   4.825   1.871   2.886  0.7619 -1.0717  0.3661
15738TIP3   OH268628   5.567   5.319   0.909  0.1251 -0.3871 -0.5913
15738TIP3    H168629   5.606   5.235   0.885  0.4925 -0.2798 -0.3747
15738TIP3    H268630   5.641   5.380   0.915 -0.2064  0.1097 -1.3934
15739TIP3   OH268631   4.421   3.405   2.254  0.1831 -0.2070  0.1002
15739TIP3    H168632   4.346   3.394   2.194  0.0109  0.3643  0.2119
15739TIP3    H268633   4.393   3.473   2.315  0.7780 -0.0301  0.1741
15740TIP3   OH268634   5.579   0.174  14.259 -0.7181  0.3433 -0.1747
15740TIP3    H168635   5.573   0.258  14.213 -1.1870  1.2102  1.3885
15740TIP3    H268636   5.489   0.145  14.269 -0.6482  0.3593  0.5294
15741TIP3   OH268637   2.560   1.360   5.023 -0.3160 -0.3179 -0.1209
15741TIP3    H168638   2.485   1.405   4.984 -1.8462 -1.5944  1.2222
15741TIP3    H268639   2.575   1.285   4.965  0.4106  0.3095 -0.7739
15742TIP3   OH268640   2.702   1.152  13.941 -0.3146 -0.1470  0.2184
15742TIP3    H168641   2.656   1.236  13.938 -2.0328 -1.0633 -0.0468
15742TIP3    H268642   2.740   1.143  13.854 -1.1780 -0.1904 -0.1660
15743TIP3   OH268643   1.039   5.699  12.439  0.3676  1.1535 -0.2230
15743TIP3    H168644   1.095   5.658  12.504  0.2284  1.6239  0.1944
15743TIP3    H268645   0.998   5.625  12.393  0.0181  0.8171  0.6134
15744TIP3   OH268646   1.843   2.488   5.419 -0.4944  0.0311 -0.4624
15744TIP3    H168647   1.857   2.398   5.388 -0.8923 -0.3504  0.4149
15744TIP3    H268648   1.756   2.485   5.460 -1.3236  1.2779 -2.0373
15745TIP3   OH268649   5.193   3.458   1.902 -0.4795 -0.4018  0.0633
15745TIP3    H168650   5.251   3.432   1.974 -2.2439 -2.0397  0.9724
15745TIP3    H268651   5.166   3.547   1.926 -0.1545 -0.4985  0.8407
15746TIP3   OH268652   0.746   5.815  13.966  0.0239 -0.0258 -1.1468
15746TIP3    H168653   0.811   5.810  13.896  0.2015 -0.9978 -0.9295
15746TIP3    H268654   0.687   5.742  13.949  0.7508 -1.0116  0.3605
15747TIP3   OH268655   0.465   6.085   0.133 -0.8279  0.4462  0.3836
15747TIP3    H168656   0.426   6.098   0.046  0.5193 -0.4529 -0.3798
15747TIP3    H268657   0.542   6.142   0.134 -0.2105 -0.3675  0.5544
15748TIP3   OH268658   4.898   1.504  12.966 -0.0505  0.2444  0.5199
15748TIP3    H168659   4.845   1.478  12.890 -1.0059 -0.7771  1.5014
15748TIP3    H268660   4.904   1.599  12.960  0.2234  0.1577 -1.0377
15749TIP3   OH268661   6.092   3.971  16.894  0.0645  0.3355 -0.5505
15749TIP3    H168662   6.147   3.894  16.877 -0.3407  0.1966 -1.3048
15749TIP3    H268663   6.042   3.948  16.973  0.9091  0.3722  0.0054
15750TIP3   OH268664   6.435   2.917  12.812  0.2471 -0.1799  0.0371
15750TIP3    H168665   6.511   2.957  12.769  1.5218 -0.1653  2.1338
15750TIP3    H268666   6.472   2.844  12.862 -1.0572  0.0967  1.4651
15751TIP3   OH268667   1.267   4.734   5.041  0.1164 -0.4059  0.3688
15751TIP3    H168668   1.259   4.793   4.966 -2.0201 -0.9978  0.0612
15751TIP3    H268669   1.275   4.792   5.117  1.7956  0.2011 -0.2369
15752TIP3   OH268670   6.179   2.078  17.071  0.0528  0.1615  0.0712
15752TIP3    H168671   6.224   2.156  17.038  0.1142 -0.2018 -0.7467
15752TIP3    H268672   6.107   2.063  17.009  1.0507 -1.3829 -0.8113
15753TIP3   OH268673   2.475   2.605  13.792  0.4473 -0.3231 -0.1161
15753TIP3    H168674   2.462   2.569  13.704  0.4663 -1.0405  0.1663
15753TIP3    H268675   2.495   2.528  13.846  2.4311  0.2982  0.1429
15754TIP3   OH268676   4.884   4.212   2.853 -0.3689  0.3113  0.8575
15754TIP3    H168677   4.890   4.118   2.871  0.6435  0.3284  0.7098
15754TIP3    H268678   4.914   4.221   2.762 -0.5514  0.7648  0.8377
15755TIP3   OH268679   4.841   5.417  12.024  0.1169  0.4326 -0.2752
15755TIP3    H168680   4.775   5.461  11.970 -0.2846 -0.8313 -0.8355
15755TIP3    H268681   4.793   5.385  12.100 -0.1754 -1.4602 -1.2138
15756TIP3   OH268682   3.908   5.491   2.025 -0.6324 -0.2993  0.1991
15756TIP3    H168683   3.836   5.517   1.968  0.0655  1.6023  0.1278
15756TIP3    H268684   3.899   5.545   2.103  0.3500 -0.4835  0.4637
15757TIP3   OH268685   0.255   5.542   2.687 -0.3550 -0.0673 -0.0436
15757TIP3    H168686   0.312   5.602   2.735 -0.8296 -0.9458  1.6702
15757TIP3    H268687   0.173   5.590   2.675 -0.2701  0.1150  0.1124
15758TIP3   OH268688   2.007   5.872   0.670 -0.3826 -0.4119  0.5821
15758TIP3    H168689   2.037   5.854   0.760  2.9920  0.5613 -0.1842
15758TIP3    H268690   2.071   5.827   0.615 -0.6792  1.3673 -1.3246
15759TIP3   OH268691   3.632   3.936  13.579 -0.9762  0.0470  0.2058
15759TIP3    H168692   3.556   3.988  13.552 -1.3344 -0.2541  0.6261
15759TIP3    H268693   3.701   4.001  13.593 -1.1495  0.3186 -0.2074
15760TIP3   OH268694   2.533   4.129  16.471  0.0006 -0.6370  0.1338
15760TIP3    H168695   2.463   4.133  16.405  0.6791 -1.3843 -0.6406
15760TIP3    H268696   2.562   4.220  16.480  0.9599 -0.7093 -1.7689
15761TIP3   OH268697   2.759   5.178   6.275  0.1185  0.2295 -0.6507
15761TIP3    H168698   2.841   5.128   6.274  0.0599  0.1396 -2.0048
15761TIP3    H268699   2.741   5.197   6.183  0.2488  2.9240 -0.1981
15762TIP3   OH268700   1.428   3.705   1.255 -0.3711  0.3046 -0.0153
15762TIP3    H168701   1.459   3.661   1.175  1.3087 -0.1455  0.8454
15762TIP3    H268702   1.454   3.796   1.244 -1.6221  0.6041 -0.6867
15763TIP3   OH268703   3.035   2.991  13.953 -0.0477 -0.1331  0.1353
15763TIP3    H168704   3.011   2.942  13.875  1.1061  0.9943 -0.9868
15763TIP3    H268705   3.069   3.074  13.919 -0.4294  0.7791  1.8876
15764TIP3   OH268706   6.190   3.690  11.508 -0.1866  0.3302  0.1803
15764TIP3    H168707   6.244   3.640  11.569  0.1798 -0.2628 -0.6110
15764TIP3    H268708   6.238   3.687  11.425 -1.6055 -0.5586 -0.6565
15765TIP3   OH268709   4.410   3.626  11.534 -0.1090 -0.2638 -0.3034
15765TIP3    H168710   4.399   3.718  11.559 -1.2957 -0.6015  0.4954
15765TIP3    H268711   4.358   3.577  11.597  0.4433 -1.4948 -0.7637
15766TIP3   OH268712   3.403   1.283  17.023 -0.1945 -0.3507  0.0801
15766TIP3    H168713   3.489   1.281  16.981  0.1631  2.3621  0.4829
15766TIP3    H268714   3.419   1.256  17.113 -0.1681 -1.7724 -0.3236
15767TIP3   OH268715   3.708   4.200   0.787 -0.1575 -0.7411  0.1054
15767TIP3    H168716   3.774   4.269   0.801  1.4701 -2.1949 -0.1022
15767TIP3    H268717   3.688   4.205   0.694 -0.9596  0.2040  0.3082
15768TIP3   OH268718   2.908   4.338   3.984 -0.8023 -0.6025 -0.5278
15768TIP3    H168719   2.850   4.301   3.918 -1.1903  0.0949 -0.5843
15768TIP3    H268720   2.967   4.266   4.007 -1.3831 -1.1801 -0.8126
15769TIP3   OH268721   5.052   4.169  15.920  0.6954  0.1310 -0.3623
15769TIP3    H168722   5.103   4.246  15.943  0.4303 -0.3348  2.0984
15769TIP3    H268723   4.986   4.201  15.859  1.4029  1.5813 -0.4016
15770TIP3   OH268724   4.471   1.357  14.255  0.6484 -0.2458 -0.0751
15770TIP3    H168725   4.556   1.315  14.273  0.6128 -0.5316 -0.5585
15770TIP3    H268726   4.454   1.337  14.163  1.2593  1.9691 -0.7414
15771TIP3   OH268727   6.374   3.778   4.021 -0.6986 -0.0967 -0.3086
15771TIP3    H168728   6.305   3.760   3.957 -1.3801 -1.9747  0.8596
15771TIP3    H268729   6.448   3.723   3.992 -0.7379 -0.3507  0.0657
15772TIP3   OH268730   0.552   4.587  12.752  0.2580  0.5618 -0.5128
15772TIP3    H168731   0.515   4.498  12.753  0.6324  0.3973 -1.0178
15772TIP3    H268732   0.622   4.583  12.687  2.0247  0.5311  1.2919
15773TIP3   OH268733   3.680   3.086   6.022 -0.0320 -0.4387 -0.0597
15773TIP3    H168734   3.739   3.015   5.996 -0.3125 -0.6798 -0.0389
15773TIP3    H268735   3.688   3.150   5.952 -1.1166 -1.2787 -0.9869
15774TIP3   OH268736   0.152   2.139   4.887 -0.2057 -0.3921  0.1628
15774TIP3    H168737   0.065   2.175   4.867 -0.1197 -0.3905 -0.2098
15774TIP3    H268738   0.192   2.123   4.802  0.2005 -0.2993  0.3336
15775TIP3   OH268739   0.326   1.483  15.850  0.9304 -0.2383 -0.3344
15775TIP3    H168740   0.282   1.553  15.897  1.1163  0.4026 -1.0898
15775TIP3    H268741   0.364   1.428  15.918 -1.3958 -1.1005  0.3962
15776TIP3   OH268742   3.581   5.021  10.481 -0.0310  0.2851  0.0633
15776TIP3    H168743   3.520   5.035  10.554  2.7310 -2.5739  3.2913
15776TIP3    H268744   3.646   5.090  10.492  1.6701 -1.4803  2.0434
15777TIP3   OH268745   4.794   1.492   1.734  0.2276 -0.4838 -0.0140
15777TIP3    H168746   4.740   1.570   1.726 -0.2456 -0.6848  1.0430
15777TIP3    H268747   4.865   1.518   1.794  0.1549 -0.8104  0.2180
15778TIP3   OH268748   5.454   0.303   3.411 -0.5936 -0.5721  0.3261
15778TIP3    H168749   5.455   0.313   3.507 -0.2311  0.6030  0.2133
15778TIP3    H268750   5.364   0.324   3.387 -0.5119 -0.1814  0.3505
15779TIP3   OH268751   1.701   0.866  13.391  0.3810  0.5765  0.1619
15779TIP3    H168752   1.664   0.779  13.384 -0.0106  0.7431  0.1295
15779TIP3    H268753   1.709   0.882  13.485 -1.3755  1.2598  0.2264
15780TIP3   OH268754   1.924   5.309  15.717  0.0034  0.2010  0.5096
15780TIP3    H168755   1.977   5.357  15.780  1.6900 -0.9931  0.0640
15780TIP3    H268756   1.938   5.217  15.738 -2.7914 -0.1938  1.0528
15781TIP3   OH268757   1.319   5.580  12.511 -0.2589 -0.3487 -0.3852
15781TIP3    H168758   1.330   5.551  12.420  0.8570  0.4239 -0.5199
15781TIP3    H268759   1.395   5.637  12.527  1.0140 -2.5361  1.8945
15782TIP3   OH268760   3.433   0.018   5.575 -0.6055  0.6390  0.1050
15782TIP3    H168761   3.472  -0.020   5.496 -2.2133 -1.0995  0.0661
15782TIP3    H268762   3.506   0.024   5.636  0.4689  1.0688 -1.1719
15783TIP3   OH268763   5.554   6.251  14.436 -0.1659  0.0811 -0.0488
15783TIP3    H168764   5.470   6.292  14.415  0.0089  0.5696  0.1800
15783TIP3    H268765   5.580   6.206  14.355 -0.2759  0.5849 -0.3679
15784TIP3   OH268766   0.157   3.309   1.640  0.0359  0.1308 -0.1660
15784TIP3    H168767   0.176   3.400   1.619  0.2648 -0.0536 -0.7568
15784TIP3    H268768   0.179   3.260   1.561 -1.6396 -0.2456 -0.4515
15785TIP3   OH268769   2.469   0.988  15.566  0.3417  0.5699  0.5545
15785TIP3    H168770   2.469   1.048  15.491  0.0125  0.4189  0.4299
15785TIP3    H268771   2.541   1.018  15.621  2.4849 -0.9778 -1.1862
15786TIP3   OH268772   1.012   4.089   2.939 -0.2006 -0.0294  0.2631
15786TIP3    H168773   1.103   4.080   2.911 -0.3406 -1.7434  0.2844
15786TIP3    H268774   1.016   4.146   3.016  0.7981  0.1614  0.0831
15787TIP3   OH268775   5.357   4.948   5.494  0.0889 -0.4051 -0.2105
15787TIP3    H168776   5.319   5.035   5.482 -2.4162 -1.2925  0.7188
15787TIP3    H268777   5.287   4.896   5.533  2.1987 -2.2935  1.3197
15788TIP3   OH268778   2.590   3.254   5.505 -0.6009  0.3194 -0.2778
15788TIP3    H168779   2.513   3.261   5.449 -0.6608 -1.5449 -0.4780
15788TIP3    H268780   2.572   3.314   5.578 -2.4588 -0.3854 -0.0979
15789TIP3   OH268781   1.729   5.988   5.699 -0.2049 -0.0802 -0.0052
15789TIP3    H168782   1.665   5.985   5.627 -0.5262 -1.1035  0.3008
15789TIP3    H268783   1.738   5.897   5.727 -0.3287  0.3223  1.4609
15790TIP3   OH268784   2.527   5.102  11.340  0.3640 -0.2041  0.4074
15790TIP3    H168785   2.553   5.151  11.418 -2.6764  1.4721  0.5302
15790TIP3    H268786   2.465   5.037  11.372 -1.2185  0.7528 -0.5686
15791TIP3   OH268787   1.156   1.561  12.097 -0.0416  0.0661  0.0516
15791TIP3    H168788   1.176   1.652  12.118  0.7719 -0.3478  1.1966
15791TIP3    H268789   1.239   1.514  12.111 -0.9230 -1.1659  1.5621
15792TIP3   OH268790   6.184   0.839  13.808 -0.2091 -0.2077 -0.1894
15792TIP3    H168791   6.239   0.769  13.845  1.9510  1.7152  0.4654
15792TIP3    H268792   6.216   0.850  13.718 -2.7730 -2.1750 -1.4607
15793TIP3   OH268793   1.587   3.721   2.885  0.6933  0.1871 -0.1247
15793TIP3    H168794   1.655   3.727   2.952  1.8423  0.4211 -1.2731
15793TIP3    H268795   1.606   3.639   2.839 -0.7321 -0.5185  0.4990
15794TIP3   OH268796   2.291   0.412  10.957  0.6282  0.1109 -0.5086
15794TIP3    H168797   2.325   0.405  10.868  0.5132  1.2776 -0.6619
15794TIP3    H268798   2.237   0.334  10.968 -0.1216  0.4150 -1.8140
15795TIP3   OH268799   0.394   2.854   2.986  0.2703 -0.0425 -0.0618
15795TIP3    H168800   0.323   2.808   2.942  0.5468  0.9177 -1.5680
15795TIP3    H268801   0.471   2.798   2.973  0.0810 -0.4141  0.3875
15796TIP3   OH268802   3.004   3.610   4.215 -0.3379 -0.1202 -0.1200
15796TIP3    H168803   2.980   3.701   4.196  0.5706  0.1323 -0.0840
15796TIP3    H268804   2.996   3.602   4.310 -0.2665 -0.0371 -0.1073
15797TIP3   OH268805   5.660   1.232   4.276 -0.4630  0.3712  0.3285
15797TIP3    H168806   5.654   1.227   4.372  0.2910 -1.2929  0.3171
15797TIP3    H268807   5.735   1.177   4.254 -0.6864  0.6659 -1.2323
15798TIP3   OH268808   2.485   1.088   3.738  0.5085  0.6299  0.0181
15798TIP3    H168809   2.513   1.016   3.794 -0.0865  0.1684 -0.2593
15798TIP3    H268810   2.528   1.166   3.774  0.8723  0.1916  0.5371
15799TIP3   OH268811   5.738   1.100   2.962 -0.2331  0.4896  0.1096
15799TIP3    H168812   5.726   1.007   2.945  0.4122  0.5679 -0.8707
15799TIP3    H268813   5.712   1.112   3.053  0.7858 -0.8515  0.6057
15800TIP3   OH268814   6.416   1.886  11.208 -0.8815 -0.1012  0.0933
15800TIP3    H168815   6.408   1.896  11.113 -2.0178  2.0525  0.3717
15800TIP3    H268816   6.433   1.974  11.241  0.5471 -0.9630  1.8297
15801TIP3   OH268817   5.007   0.239  13.690  0.5924  0.2609 -0.2967
15801TIP3    H168818   4.987   0.153  13.726  0.6306  0.6045  0.5571
15801TIP3    H268819   4.949   0.247  13.614 -0.9343  0.3394  0.8454
15802TIP3   OH268820   1.140   6.810   2.663  0.2936 -0.5096  0.2160
15802TIP3    H168821   1.142   6.905   2.667 -2.8270 -0.3013 -0.4041
15802TIP3    H268822   1.103   6.790   2.576  0.8833 -2.2982  0.3258
15803TIP3   OH268823   4.949   4.965  12.876 -0.4171  0.2517 -0.1217
15803TIP3    H168824   4.893   5.014  12.815 -1.1547  0.4468  0.6924
15803TIP3    H268825   4.888   4.929  12.940  0.3976  0.5359  0.8362
15804TIP3   OH268826   4.312   5.950   3.640 -0.8871  0.0790  0.2199
15804TIP3    H168827   4.386   5.972   3.583 -0.5521  0.6496  0.8541
15804TIP3    H268828   4.341   5.872   3.687 -0.7489  0.2095  0.3531
15805TIP3   OH268829   4.892   5.866  13.812 -0.8937  0.1572 -0.0613
15805TIP3    H168830   4.825   5.799  13.820 -0.2717 -0.6909 -1.4799
15805TIP3    H268831   4.975   5.818  13.809 -0.2436  1.1415  1.0844
15806TIP3   OH268832   3.600   3.854   0.271  0.5772  1.0106 -0.1046
15806TIP3    H168833   3.528   3.818   0.219 -0.1478  2.4126 -0.1148
15806TIP3    H268834   3.678   3.810   0.237 -0.2835 -0.9597  0.2794
15807TIP3   OH268835   3.008   2.055   0.032  0.1991  0.4659 -0.0689
15807TIP3    H168836   2.968   2.079  -0.051  1.0614 -0.4364 -0.7729
15807TIP3    H268837   2.978   2.122   0.094  0.6628  1.9646 -1.4020
15808TIP3   OH268838   0.674   3.750   4.286  0.3695  0.1687  0.1165
15808TIP3    H168839   0.665   3.715   4.197  1.6710  1.5523 -0.6025
15808TIP3    H268840   0.738   3.693   4.328  0.6505  0.2096 -0.2458
15809TIP3   OH268841   5.558   5.368   1.251 -0.0209  0.4751  0.1733
15809TIP3    H168842   5.617   5.424   1.200  1.3980 -0.8277  0.2857
15809TIP3    H268843   5.501   5.328   1.186  2.5106 -2.0619 -0.7190
15810TIP3   OH268844   6.024   4.743   1.400 -0.2024 -0.6129  0.2749
15810TIP3    H168845   6.082   4.736   1.476  0.2513  0.7911  0.0725
15810TIP3    H268846   5.956   4.805   1.426  0.2022  0.2207 -0.6054
15811TIP3   OH268847   4.762   6.335  12.688  0.3331 -0.2404  0.1873
15811TIP3    H168848   4.761   6.394  12.763  2.5825  0.7632 -0.4803
15811TIP3    H268849   4.777   6.248  12.727 -0.7570 -0.0885  1.0091
15812TIP3   OH268850   3.918   2.319  15.250  0.1694  0.0553 -0.0031
15812TIP3    H168851   3.897   2.252  15.185 -0.4856  0.8855 -0.6603
15812TIP3    H268852   3.956   2.391  15.200 -1.3527  1.1593  0.3406
15813TIP3   OH268853   4.308   6.493   6.064 -0.0427  0.1516  0.3992
15813TIP3    H168854   4.279   6.417   6.114 -1.3846  0.6799  0.4752
15813TIP3    H268855   4.353   6.548   6.128 -0.9279  0.3830  0.8486
15814TIP3   OH268856   4.309   0.820   0.057 -0.9502 -0.0441  0.1693
15814TIP3    H168857   4.258   0.739   0.059  0.8948 -1.2658  2.7589
15814TIP3    H268858   4.321   0.844   0.149 -0.0810  2.3031 -0.4818
15815TIP3   OH268859   2.770   0.387  12.706  0.3959 -0.0814 -0.4853
15815TIP3    H168860   2.717   0.364  12.782  0.0909  0.2755 -0.5910
15815TIP3    H268861   2.709   0.382  12.632  0.5446  0.1856 -0.6261
15816TIP3   OH268862   0.113   3.915   3.947 -1.2217 -0.2647 -0.1739
15816TIP3    H168863   0.128   3.870   3.864 -1.9385  0.3949 -0.6752
15816TIP3    H268864   0.193   3.899   3.998  0.8986  2.3370 -2.3684
15817TIP3   OH268865   6.514   6.512   0.186 -0.1896  0.3368  0.5357
15817TIP3    H168866   6.446   6.560   0.233  0.6518  0.0675  2.0755
15817TIP3    H268867   6.595   6.559   0.207  0.6012 -1.4710  1.7586
15818TIP3   OH268868   6.778   3.885   0.706  0.3011  0.5595 -0.1053
15818TIP3    H168869   6.699   3.893   0.759 -0.5200 -0.4971 -1.1193
15818TIP3    H268870   6.810   3.975   0.697 -1.3743  1.1472 -0.5477
15819TIP3   OH268871   0.677   5.179   5.072 -0.1818 -0.1268 -0.3470
15819TIP3    H168872   0.726   5.246   5.119  1.0693 -0.3530 -1.2745
15819TIP3    H268873   0.694   5.197   4.979  0.2412 -1.7340 -0.6195
15820TIP3   OH268874   3.020   3.063  16.348  0.0944  0.0728  0.1335
15820TIP3    H168875   3.071   3.070  16.428  0.0640 -1.8837  0.3788
15820TIP3    H268876   3.085   3.064  16.278  0.3175 -0.4594  0.3285
15821TIP3   OH268877   1.355   1.939  10.703  0.3368 -0.2615 -0.0337
15821TIP3    H168878   1.364   1.974  10.614 -0.8632 -0.0345 -0.0883
15821TIP3    H268879   1.407   1.859  10.703  1.2330  0.3002 -0.6089
15822TIP3   OH268880   5.107   4.442   5.680  0.5108 -0.1077 -0.1158
15822TIP3    H168881   5.170   4.402   5.740  0.8976  0.5981 -0.0314
15822TIP3    H268882   5.159   4.507   5.631 -0.3954  1.4436  0.8879
15823TIP3   OH268883   6.714   0.013  11.077  0.2947  0.3763 -0.4324
15823TIP3    H168884   6.643   0.033  11.016  0.6449  0.9217 -0.6695
15823TIP3    H268885   6.746   0.099  11.105 -0.1263  0.1422  0.8297
15824TIP3   OH268886   2.801   5.611  13.644 -0.2800  0.1988  0.3945
15824TIP3    H168887   2.732   5.548  13.663 -0.5089  0.0708 -0.7669
15824TIP3    H268888   2.882   5.561  13.653 -0.4601 -0.2715 -0.5050
15825TIP3   OH268889   6.349   0.941   3.494  0.4050  0.2064  0.1487
15825TIP3    H168890   6.422   0.994   3.529  0.0965  0.7638 -0.0358
15825TIP3    H268891   6.298   1.003   3.442 -0.0847 -0.2330  0.1041
15826TIP3   OH268892   3.538   1.109  14.778  0.3250 -0.1468 -0.2424
15826TIP3    H168893   3.457   1.158  14.794 -0.0289 -0.3070 -1.4875
15826TIP3    H268894   3.509   1.024  14.747  0.9774 -0.0854 -1.0405
15827TIP3   OH268895   4.634   4.252  10.862  0.1401  0.0689 -0.3889
15827TIP3    H168896   4.640   4.323  10.798 -1.2298 -0.9307 -1.7037
15827TIP3    H268897   4.540   4.245  10.880  0.4355 -0.1432  1.2343
15828TIP3   OH268898   4.642   4.255   5.223  0.1148  0.2981 -0.1345
15828TIP3    H168899   4.623   4.217   5.309 -1.2095 -0.3240 -0.6797
15828TIP3    H268900   4.733   4.232   5.206  0.3091  0.1968  0.9812
15829TIP3   OH268901   1.766   2.486  13.832 -0.5199  0.1210  0.2382
15829TIP3    H168902   1.675   2.469  13.858 -0.9119  0.4563 -0.8574
15829TIP3    H268903   1.773   2.451  13.744  0.4729 -0.0501  0.3722
15830TIP3   OH268904   0.519   6.209  14.457 -0.1855 -0.0170 -0.0021
15830TIP3    H168905   0.553   6.287  14.413  2.9851 -1.0535  0.3802
15830TIP3    H268906   0.452   6.243  14.517 -1.2748  1.9463 -2.1677
15831TIP3   OH268907   6.609   2.434   2.585  0.3770 -0.7682 -0.3119
15831TIP3    H168908   6.634   2.516   2.627 -1.0311 -0.8182  0.6776
15831TIP3    H268909   6.677   2.372   2.612  0.3404 -0.4149  0.6414
15832TIP3   OH268910   0.027   4.408   0.908  0.8869 -0.3392 -0.0357
15832TIP3    H168911  -0.041   4.456   0.860 -0.8745 -1.2052  1.4802
15832TIP3    H268912   0.102   4.405   0.848 -0.4430  0.5461 -1.8079
15833TIP3   OH268913   0.947   2.749   2.695 -0.3484  0.3112  0.8446
15833TIP3    H168914   0.898   2.766   2.614 -1.6717 -2.9425  0.7752
15833TIP3    H268915   1.039   2.760   2.671 -0.8106  1.4719 -0.5007
15834TIP3   OH268916   1.393   3.135   2.324 -0.1545  0.7529 -0.5113
15834TIP3    H168917   1.351   3.060   2.366 -0.4079  0.3861 -1.4005
15834TIP3    H268918   1.364   3.210   2.375 -1.1106  0.3992 -0.5171
15835TIP3   OH268919   3.591   0.032   1.148 -0.2107 -0.2286  0.1495
15835TIP3    H168920   3.684   0.053   1.137 -0.2287  2.1800  3.2802
15835TIP3    H268921   3.590  -0.064   1.159  1.5008 -0.6329 -2.2610
15836TIP3   OH268922   5.536   2.940  15.073  0.6590 -0.0491  0.1739
15836TIP3    H168923   5.582   2.857  15.085  1.2572 -0.0434 -1.6866
15836TIP3    H268924   5.592   2.990  15.014  0.2995  1.7010  1.2464
15837TIP3   OH268925   0.568   2.016   5.384 -0.1650  0.6078 -0.2689
15837TIP3    H168926   0.621   2.041   5.308  0.5426  0.2624  0.0964
15837TIP3    H268927   0.529   1.932   5.360  2.8737 -1.3655  0.9988
15838TIP3   OH268928   2.778   1.804  14.539 -0.2294 -0.2607  0.4624
15838TIP3    H168929   2.810   1.730  14.487  3.4712  1.2496  0.3055
15838TIP3    H268930   2.743   1.865  14.474  1.6610  0.3584 -0.0116
15839TIP3   OH268931   3.192   0.560   3.173  0.6508 -0.0980 -0.3952
15839TIP3    H168932   3.286   0.548   3.184  0.1712 -2.5734  2.1976
15839TIP3    H268933   3.167   0.622   3.242  0.2405 -0.4103 -0.2539
15840TIP3   OH268934   6.173   5.151   6.176 -0.3842  0.6289 -0.3261
15840TIP3    H168935   6.157   5.193   6.091 -1.0668  0.0456 -0.4988
15840TIP3    H268936   6.202   5.222   6.233  2.1886  0.7110 -1.5786
15841TIP3   OH268937   0.641   6.525   4.979  0.3797 -0.3780  0.1035
15841TIP3    H168938   0.550   6.517   5.005  0.0299  2.9172  0.3579
15841TIP3    H268939   0.691   6.512   5.060 -0.3056  2.8724  1.2240
15842TIP3   OH268940   2.427   6.630  14.535  0.2483 -0.2241 -0.4729
15842TIP3    H168941   2.520   6.615  14.551  0.4537  1.3238 -0.1100
15842TIP3    H268942   2.418   6.630  14.440  0.8014  0.6081 -0.5303
15843TIP3   OH268943   2.820   5.618   5.115  0.0784 -0.8958  0.6533
15843TIP3    H168944   2.749   5.564   5.150  0.3023 -1.2235  0.6045
15843TIP3    H268945   2.802   5.625   5.022 -0.2243 -0.4657  0.7367
15844TIP3   OH268946   2.067   5.625  15.316  0.1716  0.5469 -0.2858
15844TIP3    H168947   2.069   5.575  15.397  0.1241 -1.8317 -1.6721
15844TIP3    H268948   1.974   5.639  15.299  0.2043  1.9360  0.5384
15845TIP3   OH268949   3.199   2.997   2.140  0.2679  0.4223  0.4699
15845TIP3    H168950   3.183   3.056   2.067 -0.1766 -0.3794 -0.1036
15845TIP3    H268951   3.135   3.024   2.207 -0.5427  0.0317 -0.1312
15846TIP3   OH268952   4.274   3.805   3.688  0.1002 -0.3033  0.0447
15846TIP3    H168953   4.273   3.726   3.634  0.1329 -0.4858  0.3069
15846TIP3    H268954   4.185   3.812   3.722  0.4876 -1.1728  1.3617
15847TIP3   OH268955   1.113   3.678   0.805  0.0106 -0.1102  0.1735
15847TIP3    H168956   1.206   3.664   0.786  0.1554  0.7848  0.1655
15847TIP3    H268957   1.068   3.654   0.724  0.1403 -1.4191  0.4678
15848TIP3   OH268958   3.242   0.121  11.394  0.6096  0.6647 -0.2382
15848TIP3    H168959   3.241   0.212  11.424  0.5412  0.1164  1.5368
15848TIP3    H268960   3.165   0.113  11.338 -1.2217  0.9474  2.0876
15849TIP3   OH268961   5.285   3.998  14.049  0.4628  0.7103 -0.1137
15849TIP3    H168962   5.334   3.963  13.975  0.9892 -0.0232  0.5632
15849TIP3    H268963   5.272   4.091  14.027  2.5511  1.0550 -0.1418
15850TIP3   OH268964   4.452   5.165  16.605  0.4780 -0.0505 -0.3166
15850TIP3    H168965   4.386   5.124  16.661 -0.5470  0.5560 -1.0251
15850TIP3    H268966   4.454   5.110  16.527 -0.0694  0.5757 -0.7874
15851TIP3   OH268967   1.666   4.755   0.456 -0.4272 -0.0353  0.4190
15851TIP3    H168968   1.746   4.707   0.479  1.0165  2.4773  1.1024
15851TIP3    H268969   1.604   4.731   0.524  0.6767  0.0430  1.4951
15852TIP3   OH268970   5.319   4.478   5.206  0.2084 -0.0631  0.0427
15852TIP3    H168971   5.290   4.451   5.293 -0.1147  2.3854  0.7599
15852TIP3    H268972   5.384   4.546   5.221  1.0431 -0.4250 -1.6350
15853TIP3   OH268973   3.839   6.559   5.568  0.3623  0.0823 -0.0329
15853TIP3    H168974   3.909   6.625   5.565  0.3005  0.1970  0.7414
15853TIP3    H268975   3.863   6.495   5.501  1.3751 -0.0300  0.4125
15854TIP3   OH268976   3.551   4.324  13.685  0.0967  0.2880 -0.6662
15854TIP3    H168977   3.589   4.376  13.756  0.0170 -0.7595  0.1672
15854TIP3    H268978   3.485   4.269  13.728  0.6722 -1.0183 -1.3922
15855TIP3   OH268979   4.739   5.159   4.381 -0.5893 -0.1072 -0.5918
15855TIP3    H168980   4.770   5.156   4.290 -0.6149  0.2715 -0.6110
15855TIP3    H268981   4.652   5.197   4.376 -1.4665 -1.9852 -0.6365
15856TIP3   OH268982   3.998   4.455  11.701 -0.0947  0.6061 -0.0376
15856TIP3    H168983   4.044   4.515  11.641 -0.0633  0.7674  0.1477
15856TIP3    H268984   3.924   4.424  11.650 -0.4265  1.2333  0.0460
15857TIP3   OH268985   5.158   6.401   3.221 -0.2589 -0.3051 -0.0033
15857TIP3    H168986   5.163   6.423   3.128 -0.9933  0.7522  0.1831
15857TIP3    H268987   5.099   6.467   3.258 -0.0885 -0.7912  1.1898
15858TIP3   OH268988   3.458   1.679  14.040 -0.0594 -0.3644 -0.1865
15858TIP3    H168989   3.400   1.738  13.991  0.9540 -1.1590 -2.5231
15858TIP3    H268990   3.459   1.714  14.129  0.5604  3.2387 -1.4378
15859TIP3   OH268991   4.922   4.051   6.206 -0.2188  0.6616 -0.6464
15859TIP3    H168992   4.943   4.002   6.126 -1.2904  0.7711 -1.0097
15859TIP3    H268993   4.836   4.018   6.232 -1.1959  2.6662 -1.1686
15860TIP3   OH268994   2.802   4.201   2.234  0.2861 -0.2008  0.1999
15860TIP3    H168995   2.847   4.157   2.162 -0.3496 -1.2730  0.4404
15860TIP3    H268996   2.720   4.233   2.196  0.4920  0.2932  0.1636
15861TIP3   OH268997   5.264   4.224  13.709  0.0447  0.0455  0.0525
15861TIP3    H168998   5.350   4.183  13.721  0.0051 -0.6744 -1.8493
15861TIP3    H268999   5.283   4.318  13.702  0.9503 -0.2499 -2.2621
15862TIP3   OH269000   0.530   4.573   2.182 -0.4183 -0.2579 -0.2104
15862TIP3    H169001   0.575   4.641   2.132  1.4059  0.0649  1.7286
15862TIP3    H269002   0.438   4.600   2.183 -0.0796  1.0463 -1.2052
15863TIP3   OH269003   1.895   2.127   5.642  0.5047  0.3353 -0.4301
15863TIP3    H169004   1.968   2.184   5.667  2.1712 -0.7464 -2.5729
15863TIP3    H269005   1.930   2.038   5.647 -0.6091 -0.2026 -1.6217
15864TIP3   OH269006   1.341   1.191   4.574  0.2422  0.4195  0.1736
15864TIP3    H169007   1.385   1.241   4.505 -0.9775  0.3138 -0.7153
15864TIP3    H269008   1.249   1.217   4.569  0.0813  0.2511  1.6427
15865TIP3   OH269009   1.848   5.331  17.039  0.3757  0.2053  0.3076
15865TIP3    H169010   1.836   5.236  17.036 -1.6867  0.4298  0.0579
15865TIP3    H269011   1.774   5.363  17.091  0.1410  1.7825 -0.9166
15866TIP3   OH269012   0.505   3.911  10.818  0.0372  0.6872 -0.1231
15866TIP3    H169013   0.477   3.823  10.794 -0.6312  0.5476  1.1332
15866TIP3    H269014   0.596   3.900  10.847  0.2127  0.5509 -0.7094
15867TIP3   OH269015   2.222   0.623   6.597 -0.8732 -0.3669 -0.4574
15867TIP3    H169016   2.204   0.615   6.691  0.8531 -1.9723 -0.2173
15867TIP3    H269017   2.220   0.717   6.580 -2.8073 -0.1191  0.8255
15868TIP3   OH269018   3.666   1.920  14.786  0.0488 -0.2808 -0.5127
15868TIP3    H169019   3.618   1.882  14.860  1.1353 -0.3125  0.2158
15868TIP3    H269020   3.640   2.012  14.785 -1.0363 -0.5796 -0.9836
15869TIP3   OH269021   3.728   1.790   0.553 -0.1496 -0.5582  0.2663
15869TIP3    H169022   3.789   1.800   0.626  0.7851  0.8542 -0.6606
15869TIP3    H269023   3.733   1.697   0.531  0.8503 -0.6688  0.8904
15870TIP3   OH269024   6.082   2.453  15.960  0.7556  0.0223 -0.1170
15870TIP3    H169025   6.036   2.498  15.889  0.4419 -1.9161 -1.1942
15870TIP3    H269026   6.068   2.510  16.036 -0.5599  1.1774 -1.1586
15871TIP3   OH269027   1.770   5.659   1.411 -1.0339  0.1464 -0.1005
15871TIP3    H169028   1.760   5.564   1.412  2.0392 -0.2819 -0.0134
15871TIP3    H269029   1.798   5.679   1.321 -0.0570  0.7086  0.3086
15872TIP3   OH269030   1.689   5.996  11.162 -0.2336 -0.4103  0.5495
15872TIP3    H169031   1.698   6.059  11.234 -0.9166  0.3839 -0.0479
15872TIP3    H269032   1.674   5.912  11.206 -1.4792  0.2040  1.3378
15873TIP3   OH269033   4.314   4.005   0.845  0.0355 -0.1687  0.0530
15873TIP3    H169034   4.355   4.029   0.928  2.5656  0.6680 -1.3369
15873TIP3    H269035   4.310   3.910   0.846  0.4977 -0.1825  0.9355
15874TIP3   OH269036   6.448   4.481   1.345 -0.2892 -0.0190 -0.1011
15874TIP3    H169037   6.371   4.429   1.366 -0.5666  0.2959 -0.3421
15874TIP3    H269038   6.414   4.567   1.322 -0.0227 -0.3735 -1.9824
15875TIP3   OH269039   6.241   0.766   0.537 -0.2417 -0.3767 -0.1825
15875TIP3    H169040   6.264   0.859   0.541 -0.6604 -0.2823  0.0462
15875TIP3    H269041   6.273   0.737   0.451 -0.5137  0.0864 -0.4428
15876TIP3   OH269042   4.441   4.734  16.160 -0.6789 -0.1330  1.2147
15876TIP3    H169043   4.528   4.694  16.154 -0.6297 -0.0580  1.4086
15876TIP3    H269044   4.446   4.790  16.238 -0.9773 -0.3243  1.3759
15877TIP3   OH269045   3.609   0.169   6.103  0.2582 -0.0600  0.3603
15877TIP3    H169046   3.702   0.175   6.125  0.3915  0.8749 -0.3905
15877TIP3    H269047   3.565   0.203   6.181  0.5366 -0.5912  0.7562
15878TIP3   OH269048   6.626   2.226  15.800  0.0253 -0.7538  0.1592
15878TIP3    H169049   6.616   2.286  15.726  2.0802 -0.4312  0.0763
15878TIP3    H269050   6.696   2.265  15.853  0.3543 -2.2889  0.9205
15879TIP3   OH269051   5.399   6.740   1.620 -0.6294 -0.0031  0.4287
15879TIP3    H169052   5.473   6.706   1.671  0.4029 -0.2756 -1.1941
15879TIP3    H269053   5.396   6.833   1.641 -0.1525 -0.0883  0.8961
15880TIP3   OH269054   6.620   5.781  11.672 -0.1502 -0.3571 -0.3256
15880TIP3    H169055   6.698   5.735  11.703  0.5558  0.7945 -0.3311
15880TIP3    H269056   6.575   5.809  11.751  1.0165  1.5259 -0.2575
15881TIP3   OH269057   5.646   4.995  13.500  0.2934 -0.0727 -0.3863
15881TIP3    H169058   5.688   5.078  13.474  2.1423 -0.9443 -0.3421
15881TIP3    H269059   5.571   4.987  13.442  0.4464  1.3280 -0.8215
15882TIP3   OH269060   4.351   6.269  11.270 -0.1737  0.1091  0.0165
15882TIP3    H169061   4.393   6.298  11.351 -0.8546 -0.7002  0.6887
15882TIP3    H269062   4.341   6.349  11.218  2.1608  0.3178 -0.1926
15883TIP3   OH269063   3.912   2.482   4.055  0.4305 -0.3904  0.0470
15883TIP3    H169064   3.921   2.481   4.151  1.5799  0.3299 -0.0391
15883TIP3    H269065   3.960   2.405   4.026  1.4862  0.2788 -0.0373
15884TIP3   OH269066   4.275   6.320  14.815  0.2189  0.0673  0.2277
15884TIP3    H169067   4.322   6.243  14.847  0.8052  0.9532  1.5882
15884TIP3    H269068   4.218   6.287  14.746  1.4555 -1.3541 -0.1528
15885TIP3   OH269069   3.426   2.860   0.195  0.1634  0.3387  0.1769
15885TIP3    H169070   3.427   2.954   0.212 -1.8062  0.6397 -1.0129
15885TIP3    H269071   3.359   2.826   0.254 -0.5951  0.0360 -0.8392
15886TIP3   OH269072   0.933   0.133  12.795 -0.1615  0.2355  0.2226
15886TIP3    H169073   0.896   0.046  12.809  0.6033  0.1670  2.0920
15886TIP3    H269074   0.969   0.130  12.706 -1.9430 -0.6494 -0.5004
15887TIP3   OH269075   5.150   4.063   0.721  0.0277  0.0086 -0.0550
15887TIP3    H169076   5.152   4.010   0.641 -0.8432  0.6623 -0.5151
15887TIP3    H269077   5.234   4.044   0.764  0.3014 -0.7094 -0.8806
15888TIP3   OH269078   5.511   1.912  16.357  0.9511  0.7064  0.2696
15888TIP3    H169079   5.426   1.941  16.324  1.3178  0.2313 -1.1633
15888TIP3    H269080   5.574   1.975  16.320  1.2936  0.6749  0.7909
15889TIP3   OH269081   3.267   0.005   1.688 -0.3640  0.3089 -0.3863
15889TIP3    H169082   3.283   0.043   1.602 -0.8621  1.1138 -0.1402
15889TIP3    H269083   3.318   0.059   1.748  0.0425 -0.2968 -0.1774
15890TIP3   OH269084   5.003   2.388  16.420 -0.0299  0.0541  0.3277
15890TIP3    H169085   5.066   2.403  16.490  1.7043 -1.1194 -0.8695
15890TIP3    H269086   5.032   2.445  16.349  0.1562 -1.0047 -0.4796
15891TIP3   OH269087   3.125   4.331  11.638  0.1304  0.0899  0.0622
15891TIP3    H169088   3.149   4.270  11.569 -0.4792 -0.5705  0.4211
15891TIP3    H269089   3.029   4.333  11.637  0.1375  0.8769  0.1987
15892TIP3   OH269090   0.913   5.377   5.746 -0.4476 -0.6370  0.5025
15892TIP3    H169091   0.900   5.310   5.813 -0.6224  0.8644  2.0559
15892TIP3    H269092   1.005   5.368   5.721  0.0102 -0.4081  1.9544
15893TIP3   OH269093   1.169   1.326   4.046  0.2202  0.1212 -0.3063
15893TIP3    H169094   1.192   1.245   4.000 -0.6289 -1.2351  1.5522
15893TIP3    H269095   1.095   1.361   3.996  0.1050 -0.6570 -0.6992
15894TIP3   OH269096   5.418   3.233  11.021 -0.0069  0.0853 -0.2509
15894TIP3    H169097   5.456   3.221  10.934 -0.9722 -1.0889 -0.5506
15894TIP3    H269098   5.345   3.170  11.023  0.6218 -0.6503  1.7602
15895TIP3   OH269099   0.322   5.712  11.806  0.2809 -0.8481 -0.1919
15895TIP3    H169100   0.400   5.669  11.843 -0.5557 -1.1364  1.3517
15895TIP3    H269101   0.318   5.680  11.716  1.3814 -1.6376  0.0092
15896TIP3   OH269102   1.424   3.822  12.810  0.2499 -0.5061  0.2880
15896TIP3    H169103   1.392   3.776  12.732  1.3705 -1.7510  0.5064
15896TIP3    H269104   1.514   3.847  12.787  0.3200 -0.1903  0.8942
15897TIP3   OH269105   1.727   2.508  11.956  0.0006  0.3661 -0.2954
15897TIP3    H169106   1.723   2.435  12.018  1.0459 -0.0160 -0.6606
15897TIP3    H269107   1.665   2.483  11.887  2.1331 -1.4237 -1.6850
15898TIP3   OH269108   3.690   5.480   4.841 -0.1659 -0.0855 -0.3799
15898TIP3    H169109   3.661   5.491   4.932 -0.2356 -0.6680 -0.3289
15898TIP3    H269110   3.742   5.400   4.842 -1.4146 -0.9555 -1.1269
15899TIP3   OH269111   2.604   1.386   0.011 -0.8535  0.4306  0.2084
15899TIP3    H169112   2.570   1.464  -0.034  0.3826  0.3635 -0.8992
15899TIP3    H269113   2.676   1.356  -0.044 -0.4131 -0.6964  1.3534
15900TIP3   OH269114   0.360   4.820   1.580 -0.3509 -0.3998  1.1798
15900TIP3    H169115   0.444   4.796   1.621 -0.7600 -0.8662  1.7684
15900TIP3    H269116   0.363   4.780   1.494  0.6089  0.7546  0.6420
15901TIP3   OH269117   0.215   5.790   0.212 -0.9359  0.1706 -0.3951
15901TIP3    H169118   0.137   5.827   0.254  0.2183  2.2204  0.0720
15901TIP3    H269119   0.288   5.820   0.267  0.2478 -1.3035 -1.0820
15902TIP3   OH269120   0.133   0.657  11.224  0.3276 -0.0991  0.4058
15902TIP3    H169121   0.168   0.666  11.135 -0.2849  0.8781  0.2573
15902TIP3    H269122   0.110   0.745  11.250  0.3679 -0.4000  1.4989
15903TIP3   OH269123   3.009   0.307  13.825 -0.1305  0.1168 -0.1104
15903TIP3    H169124   2.922   0.277  13.852 -0.5526 -0.0863 -1.5944
15903TIP3    H269125   3.067   0.234  13.847 -0.1471  0.6243  1.7578
15904TIP3   OH269126   1.731   1.744  16.513  0.1149  0.5354  0.1321
15904TIP3    H169127   1.721   1.755  16.418 -1.0550 -0.4180  0.1197
15904TIP3    H269128   1.823   1.764  16.530  0.6392 -0.3793 -1.3809
15905TIP3   OH269129   3.785   5.896  15.282 -0.2296  0.5222  0.3157
15905TIP3    H169130   3.872   5.881  15.247 -0.7850 -0.2868 -0.8108
15905TIP3    H269131   3.726   5.881  15.207 -1.5529 -2.3559  1.7325
15906TIP3   OH269132   2.693   1.182   5.959 -0.5565 -0.8132  0.5636
15906TIP3    H169133   2.671   1.158   6.049 -0.3206 -0.8068  0.6227
15906TIP3    H269134   2.769   1.129   5.938  2.1793  2.1960  1.8803
15907TIP3   OH269135   2.416   6.216   0.329  0.5481  0.4148 -0.0534
15907TIP3    H169136   2.329   6.227   0.292  0.0490 -0.7846  0.7225
15907TIP3    H269137   2.406   6.237   0.422  1.2548  0.9572 -0.0837
15908TIP3   OH269138   4.814   4.101   2.578 -0.4505 -0.1947  0.3196
15908TIP3    H169139   4.740   4.121   2.635  0.1893  1.1923  0.7104
15908TIP3    H269140   4.822   4.005   2.581 -1.1502 -0.2289  1.6375
15909TIP3   OH269141   5.656   2.632   2.302 -0.2738  0.0429 -0.5718
15909TIP3    H169142   5.598   2.647   2.227 -1.9015 -1.0922  0.4008
15909TIP3    H269143   5.690   2.719   2.323 -2.5393  0.9806 -0.4804
15910TIP3   OH269144   0.977   4.342   1.079  0.0748 -0.7219 -0.4794
15910TIP3    H169145   1.029   4.263   1.095  1.5225  0.4461  1.0579
15910TIP3    H269146   0.938   4.329   0.993 -2.2647 -4.4363  0.9227
15911TIP3   OH269147   5.214   0.586  16.830 -0.4004  0.2133  0.3049
15911TIP3    H169148   5.204   0.671  16.872 -1.0594 -0.2109  1.0410
15911TIP3    H269149   5.128   0.568  16.793  0.1282  0.5063 -1.1154
15912TIP3   OH269150   0.339   0.560  11.564  0.0608 -0.2974 -0.1994
15912TIP3    H169151   0.390   0.629  11.520  0.4938 -0.9619 -0.7492
15912TIP3    H269152   0.348   0.483  11.508  1.2543 -1.3990  1.4310
15913TIP3   OH269153   1.888   1.473   5.509  0.2682 -0.6986  0.2218
15913TIP3    H169154   1.889   1.566   5.486 -0.6476 -1.0154 -1.2146
15913TIP3    H269155   1.796   1.448   5.505  0.4445 -1.5601  1.1005
15914TIP3   OH269156   0.724   0.358   0.863  0.3628 -0.3287 -0.1174
15914TIP3    H169157   0.751   0.326   0.950  0.9132  0.5922  0.0699
15914TIP3    H269158   0.637   0.393   0.876  1.1172  1.4225  0.5038
15915TIP3   OH269159   3.069   4.022  12.905  0.1601  0.1948  0.2900
15915TIP3    H169160   3.088   3.948  12.847  1.0565 -0.3219  1.2014
15915TIP3    H269161   3.086   4.099  12.851  0.7517 -0.2726 -0.2107
15916TIP3   OH269162   2.666   3.035  14.642 -0.3195 -0.3713  0.1050
15916TIP3    H169163   2.635   2.952  14.607  0.6252  0.2385 -2.3812
15916TIP3    H269164   2.587   3.086  14.658 -0.8317 -0.7985 -0.9676
15917TIP3   OH269165   0.134   1.972  16.622  0.2178 -0.0469 -0.3736
15917TIP3    H169166   0.154   1.881  16.643  0.2027 -0.2863 -1.3350
15917TIP3    H269167   0.061   1.967  16.560 -1.0177  0.7092  0.9577
15918TIP3   OH269168   2.003   1.400  15.204 -0.6214  0.3891 -0.3659
15918TIP3    H169169   2.010   1.404  15.109 -2.4550  1.2104 -0.5065
15918TIP3    H269170   1.926   1.345  15.220 -0.5170  0.5173  0.6310
15919TIP3   OH269171   1.086   2.260   2.303  1.0596  0.2711 -0.2590
15919TIP3    H169172   1.138   2.269   2.382  2.4301 -1.4653 -0.8781
15919TIP3    H269173   1.126   2.321   2.241  2.1602 -0.7575 -0.6029
15920TIP3   OH269174   4.814   2.800  14.069  0.4181 -0.5741  0.1516
15920TIP3    H169175   4.899   2.776  14.031  0.9246  0.4724  0.5611
15920TIP3    H269176   4.750   2.757  14.013  1.2234 -2.3142  0.4918
15921TIP3   OH269177   0.786   3.442  14.832 -0.2227  0.4343 -0.6564
15921TIP3    H169178   0.835   3.442  14.750  0.2868  1.1330 -0.3511
15921TIP3    H269179   0.816   3.363  14.878  2.0297  1.7746  0.3504
15922TIP3   OH269180   3.328   2.763  16.945 -0.3833  0.0990  0.3991
15922TIP3    H169181   3.385   2.802  16.879 -0.3915  0.9322  0.8628
15922TIP3    H269182   3.351   2.809  17.026 -1.0248 -0.2413  0.7844
15923TIP3   OH269183   6.653   5.841  16.601  0.2183 -0.6889  0.0160
15923TIP3    H169184   6.706   5.790  16.662 -0.9439  0.4388  2.0641
15923TIP3    H269185   6.622   5.778  16.537  1.5501 -1.9071  0.5230
15924TIP3   OH269186   4.318   5.131   5.441  0.5162 -0.6349  0.7871
15924TIP3    H169187   4.286   5.047   5.410  2.7270 -0.8826 -1.1169
15924TIP3    H269188   4.288   5.136   5.532  1.0305 -3.8831  1.2689
15925TIP3   OH269189   6.705   5.717  10.717 -0.1582 -0.2025 -0.0438
15925TIP3    H169190   6.652   5.794  10.694 -0.5767 -0.7143 -0.8422
15925TIP3    H269191   6.772   5.712  10.648 -0.0809 -0.4985  0.0508
15926TIP3   OH269192   5.473   6.674   5.509 -0.1177 -0.3059 -0.2247
15926TIP3    H169193   5.533   6.615   5.463  1.2307  0.7940  0.0567
15926TIP3    H269194   5.431   6.619   5.575 -0.8027 -1.5067 -1.6078
15927TIP3   OH269195   6.297   6.578   5.813  0.0430 -0.5332  0.4965
15927TIP3    H169196   6.388   6.552   5.825 -0.2824 -1.5076  0.9788
15927TIP3    H269197   6.261   6.580   5.902 -0.1839  0.7505  0.4045
15928TIP3   OH269198   2.018   3.536  16.432  0.5708  0.0879 -0.5592
15928TIP3    H169199   1.973   3.491  16.361 -0.6216 -3.3704  2.1133
15928TIP3    H269200   2.099   3.486  16.445  2.1004  2.2697 -1.0439
15929TIP3   OH269201   2.256   4.354   4.520  0.9045  0.2083  0.3107
15929TIP3    H169202   2.173   4.330   4.479  1.1778  0.3775 -0.3591
15929TIP3    H269203   2.322   4.308   4.468  1.1134 -1.9221  2.2965
15930TIP3   OH269204   4.423   0.333  13.777  0.1005  0.6535  0.1935
15930TIP3    H169205   4.335   0.350  13.743 -1.0613 -1.0024  2.1667
15930TIP3    H269206   4.428   0.385  13.857  0.6748  0.2585  0.4156
15931TIP3   OH269207   2.718   1.362  13.522 -0.5872 -0.1358 -0.1908
15931TIP3    H169208   2.717   1.283  13.575 -1.8351  0.0039  0.0203
15931TIP3    H269209   2.654   1.346  13.452  1.8817 -0.8093 -2.4621
15932TIP3   OH269210   1.084   3.273  16.326 -0.1828  0.1541  0.0086
15932TIP3    H169211   1.082   3.194  16.379 -0.2060  0.0946 -0.0792
15932TIP3    H269212   1.128   3.338  16.381 -3.1699  1.1058  1.4811
15933TIP3   OH269213   6.174   2.238  10.395  0.2905  0.3008 -0.5732
15933TIP3    H169214   6.085   2.273  10.405  1.1371  2.6738 -0.7145
15933TIP3    H269215   6.207   2.279  10.315  1.7180 -0.0947 -0.2206
15934TIP3   OH269216   0.224   0.228  12.957 -0.4786 -0.1032 -0.1027
15934TIP3    H169217   0.206   0.262  12.870  0.4645  1.4859  0.2739
15934TIP3    H269218   0.175   0.286  13.016 -0.3252 -0.5418  0.4689
15935TIP3   OH269219   0.015   6.594  11.169 -0.6615  0.5006 -0.0517
15935TIP3    H169220  -0.023   6.663  11.114  0.2041 -0.4916 -2.0146
15935TIP3    H269221   0.110   6.611  11.165 -0.6141  0.7982  1.7401
15936TIP3   OH269222   2.244   0.144  12.839  0.0460 -0.2792  0.5300
15936TIP3    H169223   2.278   0.095  12.764  0.0427 -0.5228  0.6857
15936TIP3    H269224   2.312   0.136  12.906  1.0458  1.7522 -0.1590
15937TIP3   OH269225   4.160   5.321  10.417 -0.0700 -0.2974  0.1206
15937TIP3    H169226   4.145   5.227  10.412  0.0019 -0.3786  1.2296
15937TIP3    H269227   4.096   5.352  10.481  0.0900  0.3715 -0.0340
15938TIP3   OH269228   6.019   5.928   3.098  0.7282 -0.1533 -0.0498
15938TIP3    H169229   6.000   5.870   3.024 -1.1291  2.5268 -1.8923
15938TIP3    H269230   6.113   5.946   3.090  0.5933 -0.0265 -1.7205
15939TIP3   OH269231   5.564   4.435   6.782  0.4125 -0.3973  0.0274
15939TIP3    H169232   5.521   4.520   6.774 -0.7668 -0.9953 -0.3663
15939TIP3    H269233   5.551   4.410   6.873 -0.1481 -0.6026 -0.1048
15940TIP3   OH269234   1.387   0.097   1.358  0.0145  0.2076  0.1195
15940TIP3    H169235   1.403   0.004   1.342  0.6713  0.1767  0.8773
15940TIP3    H269236   1.366   0.102   1.451 -1.4071  0.6615 -0.2021
15941TIP3   OH269237   1.511   5.522  15.731 -0.4889 -0.1509  0.1204
15941TIP3    H169238   1.557   5.448  15.770 -2.1547 -1.3822 -0.1053
15941TIP3    H269239   1.424   5.520  15.771 -2.0551 -1.0136 -2.9611
15942TIP3   OH269240   4.446   0.064   0.002 -0.0731 -0.1341 -0.0955
15942TIP3    H169241   4.419   0.150  -0.031 -0.5519 -0.1414  0.2604
15942TIP3    H269242   4.522   0.040  -0.051  0.3423  0.7117  0.1054
15943TIP3   OH269243   4.559   0.760   2.097  0.1170 -0.5405 -0.2929
15943TIP3    H169244   4.635   0.720   2.054  0.3600 -1.8378  1.2490
15943TIP3    H269245   4.488   0.696   2.085 -0.4723  0.1910 -0.8285
15944TIP3   OH269246   6.095   0.743  11.654  1.0412 -0.0297 -0.2333
15944TIP3    H169247   6.082   0.675  11.588  1.2883  0.1670 -0.4889
15944TIP3    H269248   6.183   0.725  11.688  1.1380  0.2112 -0.3581
15945TIP3   OH269249   4.993   1.377   1.095  0.4173 -0.2654 -0.0512
15945TIP3    H169250   4.915   1.420   1.059  1.4003  0.9438 -0.8506
15945TIP3    H269251   5.028   1.440   1.158 -0.1432 -1.5054  1.5620
15946TIP3   OH269252   1.350   5.852  16.903  0.2824 -0.1025 -0.4670
15946TIP3    H169253   1.394   5.813  16.827 -0.9637 -0.1191 -1.2043
15946TIP3    H269254   1.273   5.895  16.867  0.3902  1.0592  0.6402
15947TIP3   OH269255   5.525   3.100   0.307 -0.4351  0.0549  0.9119
15947TIP3    H169256   5.586   3.172   0.292  0.3751 -0.6276  0.8765
15947TIP3    H269257   5.445   3.142   0.338 -0.1250  1.0005  0.4444
15948TIP3   OH269258   6.627   4.419  10.763  0.1917  0.8533  0.6412
15948TIP3    H169259   6.715   4.401  10.732 -0.4121 -0.4765 -0.4016
15948TIP3    H269260   6.600   4.497  10.713 -0.3494 -0.5987 -1.4781
15949TIP3   OH269261   1.659   4.456  17.056  0.2520 -0.1745 -0.3427
15949TIP3    H169262   1.680   4.425  17.144  0.9451  1.8807  0.2734
15949TIP3    H269263   1.651   4.376  17.004 -1.3794 -1.5147  1.8053
15950TIP3   OH269264   1.380   3.164  16.579 -0.8281  0.6269 -0.0995
15950TIP3    H169265   1.288   3.144  16.567 -0.6937 -0.8125  1.0387
15950TIP3    H269266   1.390   3.172  16.674  0.8770 -2.9060  0.1627
15951TIP3   OH269267   3.336   3.670  15.336  0.8263 -0.0471  0.1951
15951TIP3    H169268   3.322   3.645  15.427  2.5680 -0.0797  0.5017
15951TIP3    H269269   3.408   3.733  15.340  1.3667 -0.5411 -1.2054
15952TIP3   OH269270   3.078   2.709   4.692 -0.9355 -0.2484  0.0611
15952TIP3    H169271   3.140   2.711   4.765 -2.3847  1.2425  1.3061
15952TIP3    H269272   3.045   2.799   4.686 -1.3586 -0.4875 -2.0246
15953TIP3   OH269273   0.086   3.997  15.128  0.4810  0.3342  0.4722
15953TIP3    H169274   0.001   3.985  15.086 -0.4355  0.0721  2.3108
15953TIP3    H269275   0.127   3.910  15.123  0.0042  0.0802  0.9007
15954TIP3   OH269276   0.458   0.027   3.705  0.6641 -0.3791 -0.1023
15954TIP3    H169277   0.482   0.013   3.796  1.7186  0.3259 -0.2536
15954TIP3    H269278   0.430  -0.060   3.674 -1.2583 -0.3086  1.2957
15955TIP3   OH269279   0.965   2.934  10.892 -0.4954  0.0861 -0.3357
15955TIP3    H169280   0.980   2.969  10.804  0.1188 -2.1321 -1.1625
15955TIP3    H269281   1.044   2.958  10.941 -0.6394  0.9309 -0.4920
15956TIP3   OH269282   2.656   5.876  15.154  0.4409 -0.1273 -0.0022
15956TIP3    H169283   2.630   5.900  15.243  1.2427 -1.4803  0.6527
15956TIP3    H269284   2.722   5.807  15.167  1.8341  0.8204 -1.6140
15957TIP3   OH269285   0.653   5.559  16.310  0.1765  0.9223  0.4340
15957TIP3    H169286   0.701   5.642  16.307 -2.8914  2.8380 -0.4190
15957TIP3    H269287   0.610   5.553  16.225  0.1052 -1.4598  0.5741
15958TIP3   OH269288   3.589   5.562   1.386  0.6874 -0.1058  0.0115
15958TIP3    H169289   3.679   5.544   1.358 -0.3665 -1.4052 -2.8740
15958TIP3    H269290   3.567   5.488   1.443  1.2399 -0.0940  0.2464
15959TIP3   OH269291   1.028   1.585   2.958  0.2391 -0.1210 -0.1663
15959TIP3    H169292   1.086   1.509   2.958 -0.0115 -0.3397  1.3278
15959TIP3    H269293   0.950   1.556   3.004  0.3972  1.2085  1.0161
15960TIP3   OH269294   1.086   2.212  10.227  0.2152 -0.0973  0.1492
15960TIP3    H169295   1.166   2.250  10.263 -0.8209  1.5603  0.8003
15960TIP3    H269296   1.104   2.118  10.225  2.4825  0.2786 -0.5407
15961TIP3   OH269297   5.418   0.274   2.697  0.3267 -0.5220  0.5762
15961TIP3    H169298   5.466   0.236   2.771 -0.1264  0.3988  1.3684
15961TIP3    H269299   5.327   0.275   2.727 -0.2197 -2.1621 -0.8680
15962TIP3   OH269300   3.146   4.076   4.188  0.2695 -0.1844 -1.0601
15962TIP3    H169301   3.205   4.110   4.121  0.4791  0.5043 -0.5350
15962TIP3    H269302   3.169   4.124   4.267 -0.8863 -0.0244 -0.8056
15963TIP3   OH269303   4.994   4.946   4.840  0.4404 -0.5635 -0.0668
15963TIP3    H169304   4.998   5.017   4.904  1.6876 -0.7163  0.0395
15963TIP3    H269305   4.948   4.983   4.765  1.1435  0.3748 -0.0441
15964TIP3   OH269306   0.292   1.110   0.574 -0.3427  0.2977 -0.5058
15964TIP3    H169307   0.317   1.036   0.519 -0.1141  1.0733 -1.4788
15964TIP3    H269308   0.214   1.146   0.532 -0.5846  0.4809  0.0885
15965TIP3   OH269309   3.512   0.949   3.396 -0.1048  0.9822  0.1565
15965TIP3    H169310   3.558   0.937   3.479  0.3630  2.3272  0.1147
15965TIP3    H269311   3.559   0.893   3.334 -1.4158 -1.3018  1.0699
15966TIP3   OH269312   3.961   5.060  16.400 -0.2650 -0.3524 -0.1480
15966TIP3    H169313   4.043   5.043  16.354 -0.5391 -0.7033 -0.5210
15966TIP3    H269314   3.911   5.116  16.340 -1.1379 -1.8382 -0.8718
15967TIP3   OH269315   6.692   2.175  14.169 -0.6676 -0.1461  0.0031
15967TIP3    H169316   6.597   2.187  14.170 -0.6735 -0.2133  1.1636
15967TIP3    H269317   6.704   2.080  14.172 -0.5538 -0.1277  0.1219
15968TIP3   OH269318   1.580   4.788   1.410  0.1956 -0.6288  0.4615
15968TIP3    H169319   1.519   4.720   1.379  0.6976 -1.0474  0.3720
15968TIP3    H269320   1.663   4.741   1.423  1.1386  0.3188 -1.5873
15969TIP3   OH269321   6.320   1.827  17.086 -0.2452 -0.0284 -0.3428
15969TIP3    H169322   6.264   1.904  17.089  0.8612  0.9164 -2.0711
15969TIP3    H269323   6.377   1.836  17.162 -1.9208 -0.6652  1.0591
15970TIP3   OH269324   6.632   6.551  15.551  0.3063  0.1100  0.0148
15970TIP3    H169325   6.545   6.590  15.558  0.4216  0.4303 -0.3413
15970TIP3    H269326   6.647   6.541  15.457 -1.1499 -3.9478 -0.0013
15971TIP3   OH269327   3.772   5.320  13.971 -0.8537 -0.0831 -0.5411
15971TIP3    H169328   3.827   5.247  13.942 -2.0324 -1.1474 -0.1768
15971TIP3    H269329   3.695   5.278  14.009 -1.3522  1.3578  0.0906
15972TIP3   OH269330   0.264   1.273   5.342 -0.6119 -0.4458 -0.4256
15972TIP3    H169331   0.329   1.204   5.333  0.3330  0.3572  0.0356
15972TIP3    H269332   0.315   1.354   5.346 -1.5545  0.1294  1.0472
15973TIP3   OH269333   0.272   4.880   0.476  1.0763 -0.3470 -0.3673
15973TIP3    H169334   0.278   4.831   0.558  1.2617  1.4836  0.7637
15973TIP3    H269335   0.359   4.872   0.437  1.4137 -0.0652  0.3143
15974TIP3   OH269336   6.781   3.539  13.680 -0.4415 -0.0995 -0.2638
15974TIP3    H169337   6.799   3.509  13.590  1.1716  1.0504 -0.3713
15974TIP3    H269338   6.752   3.460  13.726  1.0999 -1.2881 -1.1983
15975TIP3   OH269339   1.776   2.334  12.800 -0.3780 -0.4251  0.3400
15975TIP3    H169340   1.868   2.333  12.774 -0.7779  1.0239 -1.2852
15975TIP3    H269341   1.764   2.419  12.842 -0.7338 -1.0744  1.6070
15976TIP3   OH269342   0.316   2.344  15.028  0.5872  0.1450  0.1401
15976TIP3    H169343   0.353   2.432  15.037  0.1801  0.2459  0.9152
15976TIP3    H269344   0.376   2.299  14.968  0.7641  0.9641 -0.3118
15977TIP3   OH269345   4.243   4.435  13.582  0.4451 -0.2502 -0.7388
15977TIP3    H169346   4.265   4.347  13.610 -0.5069  0.0703  1.2346
15977TIP3    H269347   4.147   4.437  13.584  0.4642  1.0491  0.1120
15978TIP3   OH269348   2.034   3.667   5.475 -0.3830 -0.7077 -0.6794
15978TIP3    H169349   2.000   3.744   5.429 -1.2212 -0.7028 -0.0855
15978TIP3    H269350   1.955   3.621   5.506  0.0687 -2.0714 -1.4432
15979TIP3   OH269351   5.121   0.941  11.893  0.1608 -0.5138  0.0962
15979TIP3    H169352   5.083   0.895  11.968  0.2690  0.5765  0.8369
15979TIP3    H269353   5.082   1.028  11.896  1.4346  0.0795 -0.1391
15980TIP3   OH269354   6.546   5.474  15.772 -0.0064 -0.3747  0.4057
15980TIP3    H169355   6.491   5.424  15.711  1.0902 -0.1796 -0.7710
15980TIP3    H269356   6.604   5.409  15.811  0.8536 -0.1721 -0.5022
15981TIP3   OH269357   2.548   0.509   4.177  0.3261  0.4424  0.4988
15981TIP3    H169358   2.494   0.443   4.135  0.9383 -0.1441  0.6125
15981TIP3    H269359   2.560   0.576   4.111  1.1298 -0.3830 -0.2156
15982TIP3   OH269360   2.339   3.405   2.341 -0.3984  0.3921  0.2939
15982TIP3    H169361   2.319   3.338   2.406 -0.4537  0.3815  0.2669
15982TIP3    H269362   2.357   3.355   2.261 -3.2702  0.4384 -0.5209
15983TIP3   OH269363   3.823   5.262  11.700  0.3777 -0.3688  0.1028
15983TIP3    H169364   3.887   5.299  11.761 -0.7192 -1.3244  1.9087
15983TIP3    H269365   3.739   5.300  11.727 -0.1342 -0.7822 -0.8457
15984TIP3   OH269366   1.025   2.584  10.903 -0.1885  0.2123 -0.4812
15984TIP3    H169367   1.025   2.648  10.973  4.0651 -0.9416  0.9131
15984TIP3    H269368   0.995   2.503  10.944  0.0884  0.0458 -0.5988
15985TIP3   OH269369   3.942   5.806  12.734  0.0388 -0.0313  0.0413
15985TIP3    H169370   3.859   5.760  12.742  0.9791 -1.5491  1.8856
15985TIP3    H269371   3.997   5.769  12.803  2.2133  0.9966 -1.0237
15986TIP3   OH269372   1.830   5.055  14.681 -0.0047 -0.3033  0.1800
15986TIP3    H169373   1.916   5.061  14.640  0.1808  1.9716  0.7882
15986TIP3    H269374   1.849   5.043  14.774 -0.3564 -0.3925  0.2411
15987TIP3   OH269375   5.521   1.961  12.746 -0.3085  0.0678 -0.1318
15987TIP3    H169376   5.477   2.046  12.739 -0.3596 -0.0862 -2.7809
15987TIP3    H269377   5.605   1.981  12.786 -0.8577  1.1293  0.5458
15988TIP3   OH269378   4.756   4.375  15.311 -0.3470  0.3479 -0.3563
15988TIP3    H169379   4.753   4.288  15.270  1.1160  0.6424 -1.1805
15988TIP3    H269380   4.837   4.414  15.277 -1.0223  2.0706 -0.0586
15989TIP3   OH269381   1.104   4.308  11.921  0.3169 -1.0052 -0.0889
15989TIP3    H169382   1.076   4.217  11.909  0.6797 -1.0330 -0.7942
15989TIP3    H269383   1.059   4.356  11.851  0.7459 -0.7751 -0.2098
15990TIP3   OH269384   6.537   3.142  11.421 -0.3516 -0.4235 -0.3976
15990TIP3    H169385   6.561   3.130  11.329  0.0362 -0.9522 -0.2310
15990TIP3    H269386   6.604   3.200  11.456  1.2590 -2.5511  0.2778
15991TIP3   OH269387   2.979   5.556   4.749 -0.2835  0.4598 -0.0757
15991TIP3    H169388   2.900   5.521   4.790 -0.7587  0.8581 -0.6334
15991TIP3    H269389   3.001   5.633   4.802 -0.9443  1.0228 -0.6133
15992TIP3   OH269390   1.089   6.695   0.431 -0.3589  0.6957 -0.0761
15992TIP3    H169391   1.098   6.781   0.389 -3.0293  0.8695 -0.4651
15992TIP3    H269392   1.122   6.708   0.520 -0.1415  1.9731 -0.3220
15993TIP3   OH269393   0.663   1.823   0.724 -0.1560  0.5928  0.1465
15993TIP3    H169394   0.575   1.824   0.762 -0.6698 -0.4168 -0.9301
15993TIP3    H269395   0.684   1.915   0.708 -1.1967  0.8255  0.0298
15994TIP3   OH269396   0.281   2.144   5.614  0.0959 -0.5756  0.7270
15994TIP3    H169397   0.224   2.221   5.614 -0.6809 -1.0549 -1.5341
15994TIP3    H269398   0.363   2.175   5.576  0.0164 -0.6914  0.4542
15995TIP3   OH269399   5.457   1.800  12.520  0.1358 -0.2958 -0.4456
15995TIP3    H169400   5.499   1.847  12.592 -2.2374  0.8591  0.3116
15995TIP3    H269401   5.499   1.715  12.518  1.6721  0.3786  0.9468
15996TIP3   OH269402   2.520   1.431   1.374 -0.2872 -0.7322 -0.3111
15996TIP3    H169403   2.604   1.464   1.343 -1.2827  0.6037 -1.7232
15996TIP3    H269404   2.528   1.430   1.470  0.3263  2.2617 -0.2450
15997TIP3   OH269405   2.024   0.857  11.683 -0.8919 -0.6731  0.1661
15997TIP3    H169406   2.032   0.816  11.770 -1.5351 -0.1670  0.4685
15997TIP3    H269407   2.085   0.808  11.629 -0.1194 -0.6821  1.0192
15998TIP3   OH269408   3.443   4.897  13.231 -0.3667  0.0270  0.0321
15998TIP3    H169409   3.478   4.975  13.273 -1.3103  0.7705 -0.5279
15998TIP3    H269410   3.436   4.920  13.138 -0.8508 -0.6377 -0.1079
15999TIP3   OH269411   0.276   6.181   1.498 -0.3706 -0.0552  0.1874
15999TIP3    H169412   0.340   6.248   1.519  0.1897 -0.5002 -0.0732
15999TIP3    H269413   0.198   6.205   1.548 -0.1268  0.6995  0.2107
16000TIP3   OH269414   2.167   2.656  15.172  0.0758  0.2315  0.6591
16000TIP3    H169415   2.176   2.737  15.121 -0.9176  0.4361  0.7899
16000TIP3    H269416   2.249   2.649  15.221  0.1617  1.1783  0.6715
16001TIP3   OH269417   1.889   0.116  11.089 -0.7141  0.3926 -0.4420
16001TIP3    H169418   1.943   0.084  11.017 -0.3978 -0.6812  0.2499
16001TIP3    H269419   1.804   0.134  11.049  0.0569  1.8568 -1.4879
16002TIP3   OH269420   3.300   0.491  16.886  0.7730  0.2875 -0.0067
16002TIP3    H169421   3.287   0.581  16.858  0.9565 -0.2758 -2.1211
16002TIP3    H269422   3.357   0.453  16.818  1.2037 -1.2581  1.1444
16003TIP3   OH269423   0.045   5.678  13.535 -0.4786  0.3032 -0.3410
16003TIP3    H169424   0.093   5.689  13.617 -0.0693  1.2624 -0.6917
16003TIP3    H269425   0.073   5.752  13.481 -0.3304 -0.6060 -1.5475
16004TIP3   OH269426   6.421   5.934   2.083 -0.1524  0.3840 -0.2902
16004TIP3    H169427   6.333   5.899   2.100  0.1185 -0.3017 -0.2548
16004TIP3    H269428   6.408   6.028   2.075 -1.1427  0.1413 -1.9477
16005TIP3   OH269429   5.166   1.030  14.660  0.0048  0.3513 -0.1463
16005TIP3    H169430   5.173   0.948  14.612  0.7987 -0.4125  1.1971
16005TIP3    H269431   5.246   1.077  14.638  0.3774 -0.0067  0.4203
16006TIP3   OH269432   2.724   1.859  15.519 -0.6095  0.4254  0.2288
16006TIP3    H169433   2.791   1.900  15.574  0.1730 -1.3636  0.7078
16006TIP3    H269434   2.773   1.797  15.465 -1.6092  0.8162 -1.1791
16007TIP3   OH269435   2.837   5.858  14.790 -0.0117  0.0436  1.0167
16007TIP3    H169436   2.769   5.915  14.824 -1.0107 -1.3035  1.3499
16007TIP3    H269437   2.845   5.882  14.698 -0.3446  0.7740  1.1769
16008TIP3   OH269438   3.921   6.470   5.298 -0.5009  0.4400  0.3639
16008TIP3    H169439   3.865   6.400   5.265  0.3942  0.4415 -1.2411
16008TIP3    H269440   4.010   6.439   5.283 -0.0826  1.4467  0.6563
16009TIP3   OH269441   4.830   0.737   0.022 -0.0491 -0.1623 -0.0945
16009TIP3    H169442   4.773   0.660   0.016  0.1733 -0.3300 -0.0552
16009TIP3    H269443   4.913   0.708  -0.016 -0.0264  0.1188 -0.2639
16010TIP3   OH269444   4.133   3.218  15.296  0.6389 -0.4522 -0.1357
16010TIP3    H169445   4.116   3.167  15.217 -0.1471  0.4911 -0.6020
16010TIP3    H269446   4.174   3.156  15.356 -2.2491 -2.2640  0.1508
16011TIP3   OH269447   6.198   1.669  10.582  0.0727 -0.3069 -0.2850
16011TIP3    H169448   6.233   1.596  10.530 -0.2932  0.2890 -1.3963
16011TIP3    H269449   6.266   1.737  10.575 -0.5958  0.2944 -1.1897
16012TIP3   OH269450   3.072   1.176   4.215  0.8055  0.0229  0.5542
16012TIP3    H169451   3.167   1.180   4.215  0.8903 -0.0798  3.1587
16012TIP3    H269452   3.044   1.257   4.173  2.0507  0.3672  0.3634
16013TIP3   OH269453   4.949   2.783  16.372  0.1370  0.1595  0.0058
16013TIP3    H169454   4.986   2.871  16.370 -0.6795  0.5021 -2.0612
16013TIP3    H269455   5.025   2.725  16.366  0.5309  0.8268 -2.2930
16014TIP3   OH269456   3.114   6.628   5.872 -0.1323 -0.3592 -0.1305
16014TIP3    H169457   3.150   6.715   5.858  0.4928 -0.8154 -1.5101
16014TIP3    H269458   3.086   6.599   5.785 -1.1461 -1.1949  0.4425
16015TIP3   OH269459   5.790   4.769   5.240 -0.4039  0.6765  0.4522
16015TIP3    H169460   5.761   4.853   5.275  0.3852  1.8849 -1.6212
16015TIP3    H269461   5.847   4.734   5.308 -1.4465  1.3759  1.7352
16016TIP3   OH269462   0.699   5.729  14.404  0.3455  0.6459  0.5543
16016TIP3    H169463   0.752   5.769  14.335 -0.5847  0.4402 -0.2994
16016TIP3    H269464   0.610   5.759  14.387  0.1152  0.7623  1.8057
16017TIP3   OH269465   0.935   5.551   2.739 -0.2620  0.0314  0.3599
16017TIP3    H169466   0.924   5.615   2.669  0.3836  1.9814  1.9203
16017TIP3    H269467   0.920   5.466   2.698 -0.2543  1.1143 -2.0169
16018TIP3   OH269468   1.529   5.098  11.732 -1.2392  0.4056  0.6442
16018TIP3    H169469   1.611   5.111  11.778  0.2954 -1.0486 -1.5032
16018TIP3    H269470   1.506   5.184  11.697 -0.2226  0.6894  0.6559
16019TIP3   OH269471   5.717   4.765   0.827 -0.5425 -0.1539  0.1200
16019TIP3    H169472   5.772   4.820   0.770  1.4746 -0.6187  1.4869
16019TIP3    H269473   5.719   4.679   0.786 -1.8403  0.2522 -0.8299
16020TIP3   OH269474   5.091   4.099   5.676 -0.0515  0.0568  0.1464
16020TIP3    H169475   5.118   4.151   5.752  0.7959 -0.3071  0.1089
16020TIP3    H269476   5.157   4.030   5.670 -0.3610 -0.1814 -0.6575
16021TIP3   OH269477   5.985   5.107   3.442 -0.3412 -0.5727 -0.5397
16021TIP3    H169478   5.897   5.081   3.469  0.0841 -0.8454  0.6107
16021TIP3    H269479   6.044   5.053   3.495  0.5569  1.3603  0.5362
16022TIP3   OH269480   4.944   5.062  16.761  0.4748  0.2864 -0.3251
16022TIP3    H169481   4.849   5.074  16.762  0.1708 -1.7454  0.3925
16022TIP3    H269482   4.960   4.996  16.828  2.4409  0.7748 -0.2682
16023TIP3   OH269483   3.878   0.655   0.618  0.1782 -0.5566 -0.4279
16023TIP3    H169484   3.943   0.718   0.585  0.8579 -0.4535  1.0302
16023TIP3    H269485   3.892   0.577   0.565  1.1078 -0.3377 -0.5319
16024TIP3   OH269486   2.037   0.224  15.495 -0.4015 -0.0080 -0.1143
16024TIP3    H169487   2.031   0.319  15.498 -0.5507 -0.0472  1.0989
16024TIP3    H269488   2.117   0.202  15.543  1.3656 -0.3712 -2.9778
16025TIP3   OH269489   6.324   5.267   2.467  0.3440 -0.0926  0.2877
16025TIP3    H169490   6.230   5.253   2.476  0.3829 -0.0647  0.7690
16025TIP3    H269491   6.335   5.362   2.475  0.5277 -0.1990  1.3663
16026TIP3   OH269492   1.390   3.272   3.821  0.2195  1.1257  0.0155
16026TIP3    H169493   1.480   3.279   3.852  0.0908  0.0037  0.6610
16026TIP3    H269494   1.354   3.360   3.833  0.8024  1.2345  1.0926
16027TIP3   OH269495   2.006   3.774   1.291 -0.7299 -0.2495  0.5056
16027TIP3    H169496   2.025   3.824   1.212 -0.0384 -0.7623  0.3443
16027TIP3    H269497   2.081   3.791   1.349 -0.8992 -0.4265  0.7809
16028TIP3   OH269498   0.642   5.328   3.233 -0.5384 -0.0201 -0.4357
16028TIP3    H169499   0.607   5.306   3.319  0.0751  0.5873 -0.0115
16028TIP3    H269500   0.566   5.356   3.182 -0.7090  1.2353  0.4534
16029TIP3   OH269501   1.301   1.265   5.600 -0.2890 -0.4486 -0.7731
16029TIP3    H169502   1.306   1.307   5.515 -0.7855 -0.6516 -0.9050
16029TIP3    H269503   1.362   1.314   5.655 -0.4790  0.1154 -1.0627
16030TIP3   OH269504   4.624   0.546  16.325  0.3650  0.2150 -0.1699
16030TIP3    H169505   4.595   0.539  16.234  0.1715  0.6566 -0.1483
16030TIP3    H269506   4.595   0.464  16.366 -1.2299  0.7981 -0.0545
16031TIP3   OH269507   4.941   1.987  10.913 -0.6000 -0.2844  0.2522
16031TIP3    H169508   4.922   1.902  10.873  0.0607 -1.4779  2.3589
16031TIP3    H269509   5.037   1.993  10.911 -0.6024  0.0200  0.8864
16032TIP3   OH269510   1.561   2.522  15.474  0.1576 -0.0527  0.2975
16032TIP3    H169511   1.561   2.479  15.560  2.0318  0.5631  0.6367
16032TIP3    H269512   1.473   2.559  15.466 -0.6194 -1.6199  1.1690
16033TIP3   OH269513   3.269   4.644   2.330 -0.0813  0.0069 -0.1019
16033TIP3    H169514   3.251   4.552   2.351  0.9817 -0.2678 -0.3067
16033TIP3    H269515   3.304   4.641   2.241  0.9649  0.4800  0.2829
16034TIP3   OH269516   6.118   2.131  12.627  0.3091  0.1732 -0.1792
16034TIP3    H169517   6.067   2.197  12.580 -1.7756 -0.9070  0.4579
16034TIP3    H269518   6.208   2.165  12.626 -0.5093  2.4967 -0.7446
16035TIP3   OH269519   6.464   5.567  16.767 -0.1781  0.8054 -0.1030
16035TIP3    H169520   6.457   5.487  16.714 -2.9712  1.0225 -0.1873
16035TIP3    H269521   6.517   5.541  16.842 -0.1418 -0.8377 -0.6540
16036TIP3   OH269522   4.466   4.527  16.861 -0.3179  0.2152 -0.2254
16036TIP3    H169523   4.430   4.519  16.950 -3.0474 -0.4506 -1.2781
16036TIP3    H269524   4.421   4.460  16.811 -0.9209  2.3015 -2.7152
16037TIP3   OH269525   1.906   6.587   0.275  0.0999  0.3141  0.4518
16037TIP3    H169526   1.828   6.642   0.288 -0.8569 -1.0425  0.7011
16037TIP3    H269527   1.943   6.617   0.193 -1.1794  0.4548 -0.1042
16038TIP3   OH269528   1.607   0.938  14.312 -0.5424  0.3892  0.6801
16038TIP3    H169529   1.521   0.919  14.349 -0.5154 -1.1861 -0.0236
16038TIP3    H269530   1.592   0.949  14.218  0.3988 -3.1015 -0.0001
16039TIP3   OH269531   3.334   2.432   1.793 -0.0141 -0.1198 -0.4997
16039TIP3    H169532   3.352   2.423   1.887 -0.2861 -0.5960 -0.4909
16039TIP3    H269533   3.417   2.410   1.750 -0.3595 -1.6986 -0.4340
16040TIP3   OH269534   0.896   2.934  12.560  0.2916 -0.2057  0.3894
16040TIP3    H169535   0.910   2.841  12.577  0.6638 -0.5533 -1.5259
16040TIP3    H269536   0.801   2.944  12.559  0.1956 -0.9636 -1.0746
16041TIP3   OH269537   6.289   3.051  13.327  0.6213  0.5128  0.0542
16041TIP3    H169538   6.317   3.125  13.380  0.6647  0.2752  0.3662
16041TIP3    H269539   6.241   3.090  13.254  2.0333  0.9506 -0.6668
16042TIP3   OH269540   3.748   3.223   4.276  0.3334  0.0439  0.0337
16042TIP3    H169541   3.736   3.311   4.313  1.9223 -0.5468  2.1458
16042TIP3    H269542   3.673   3.173   4.309 -1.2612  0.8078 -2.1765
16043TIP3   OH269543   0.122   1.718  14.165 -0.0133 -0.2739 -0.3697
16043TIP3    H169544   0.030   1.740  14.175  0.4461  1.1018  1.6276
16043TIP3    H269545   0.132   1.632  14.206 -0.7225 -1.4406 -2.5101
16044TIP3   OH269546   1.833   4.430  14.711  0.0125 -0.0888  0.4359
16044TIP3    H169547   1.759   4.384  14.672  0.5780 -1.4022  0.8220
16044TIP3    H269548   1.899   4.361  14.723  2.2309  1.4310 -2.0514
16045TIP3   OH269549   0.615   3.522  11.434  0.1070 -0.2540  0.0792
16045TIP3    H169550   0.689   3.557  11.484  0.5778  1.8708 -1.9637
16045TIP3    H269551   0.544   3.517  11.498  1.0611  0.9929  1.3052
16046TIP3   OH269552   2.438   3.421  12.007 -0.0688  0.3707  0.0435
16046TIP3    H169553   2.421   3.347  12.065 -0.2597  0.3213 -0.0753
16046TIP3    H269554   2.457   3.494  12.067 -1.4579  0.6173  0.2121
16047TIP3   OH269555   0.640   5.368   2.083 -0.3561 -0.1110 -0.1572
16047TIP3    H169556   0.610   5.379   1.993  2.1814  0.2389 -1.0598
16047TIP3    H269557   0.666   5.276   2.089 -0.9609 -0.2530  0.3789
16048TIP3   OH269558   0.713   5.701  15.360 -0.1829  0.3201  0.2689
16048TIP3    H169559   0.731   5.638  15.430 -0.6694 -2.4503 -1.9402
16048TIP3    H269560   0.795   5.749  15.350  0.2006  0.1131  2.0225
16049TIP3   OH269561   1.283   3.389   4.558  0.1331 -0.2036  0.5536
16049TIP3    H169562   1.233   3.307   4.555  0.5894 -0.5186  1.3555
16049TIP3    H269563   1.220   3.455   4.583 -0.3635 -0.1990 -0.6301
16050TIP3   OH269564   2.577   2.500  14.957 -0.9788 -0.1129 -0.0089
16050TIP3    H169565   2.592   2.522  15.049  2.1409 -0.9740 -0.2038
16050TIP3    H269566   2.616   2.574  14.908 -0.6561 -0.6757 -0.6199
16051TIP3   OH269567   4.914   5.381   4.439 -0.4533  0.2420  0.6500
16051TIP3    H169568   4.869   5.362   4.357 -1.8659  1.7365  1.0321
16051TIP3    H269569   4.854   5.350   4.507  0.0191  0.3957  1.1448
16052TIP3   OH269570   3.873   5.938   1.444  0.1903  0.7897 -0.0165
16052TIP3    H169571   3.778   5.936   1.453  0.2160 -1.2389  0.2077
16052TIP3    H269572   3.903   5.987   1.521 -0.5908 -0.0888  0.8716
16053TIP3   OH269573   5.288   3.311   0.118  0.1177  0.2325 -0.6326
16053TIP3    H169574   5.203   3.349   0.139  1.2771  1.3254  2.6371
16053TIP3    H269575   5.267   3.231   0.069 -2.5903  1.8966 -2.4918
16054TIP3   OH269576   3.319   5.322  15.745  0.2419 -0.3046 -0.3309
16054TIP3    H169577   3.276   5.263  15.683 -0.2543 -0.0935 -0.1990
16054TIP3    H269578   3.264   5.318  15.823 -0.8239  1.6613 -0.9159
16055TIP3   OH269579   0.266   4.818  13.292  0.7456  0.3623  0.3035
16055TIP3    H169580   0.359   4.827  13.271  0.6405 -0.2216 -0.4730
16055TIP3    H269581   0.244   4.729  13.266  0.2362  0.0911  1.5971
16056TIP3   OH269582   1.878   6.369   2.558 -0.3473  0.0319 -0.1313
16056TIP3    H169583   1.798   6.407   2.523  0.1520 -0.8797 -2.4313
16056TIP3    H269584   1.851   6.324   2.638 -2.2039 -0.5603 -1.0531
16057TIP3   OH269585   0.742   1.274  11.322 -0.1673 -0.2326  0.1331
16057TIP3    H169586   0.801   1.320  11.381  0.9670 -0.5432 -0.7371
16057TIP3    H269587   0.799   1.229  11.259 -1.3190 -0.0271 -1.1260
16058TIP3   OH269588   6.715   3.671  11.749 -0.2367  0.1282  0.1100
16058TIP3    H169589   6.687   3.760  11.726  0.2137  0.0761 -0.6661
16058TIP3    H269590   6.686   3.660  11.839 -1.6371  0.5084 -0.2681
16059TIP3   OH269591   2.650   3.334   0.446 -0.2568 -0.8118  0.5462
16059TIP3    H169592   2.691   3.275   0.383 -0.4479  0.0677 -0.4275
16059TIP3    H269593   2.681   3.421   0.421 -0.9311 -0.3719  1.2019
16060TIP3   OH269594   5.380   6.464   4.046 -0.4746 -0.0765  0.1013
16060TIP3    H169595   5.359   6.558   4.050  0.2119  0.0576  0.8316
16060TIP3    H269596   5.470   6.461   4.014  0.8153 -0.2518  3.3322
16061TIP3   OH269597   4.123   1.272  15.666 -0.2042 -0.0674  0.8408
16061TIP3    H169598   4.085   1.349  15.709  1.7614  0.3915  1.8917
16061TIP3    H269599   4.167   1.225  15.737 -0.7939 -1.8456  0.0934
16062TIP3   OH269600   5.177   0.032   4.200 -0.2207 -0.2882 -0.2975
16062TIP3    H169601   5.193  -0.008   4.115 -0.0399 -1.8212  0.4266
16062TIP3    H269602   5.254   0.086   4.216  0.6056 -1.4374 -0.3036
16063TIP3   OH269603   2.793   4.630  15.792 -0.0998  0.3262  0.8336
16063TIP3    H169604   2.716   4.674  15.828  0.1439  0.6133  1.0150
16063TIP3    H269605   2.763   4.590  15.711 -0.2102  1.2688  0.3899
16064TIP3   OH269606   4.567   0.924   0.242  0.6001 -0.6236 -0.3756
16064TIP3    H169607   4.556   0.986   0.315 -2.2084 -0.4353 -0.8523
16064TIP3    H269608   4.645   0.956   0.196  1.3640  0.3491  1.4708
16065TIP3   OH269609   2.679   2.569  10.749  0.0997 -0.4653 -0.5441
16065TIP3    H169610   2.723   2.511  10.811  0.1477 -0.3350 -0.4573
16065TIP3    H269611   2.709   2.539  10.663  1.2737  0.3690 -0.4421
16066TIP3   OH269612   4.285   5.724   6.650 -0.1579 -0.5194 -0.4747
16066TIP3    H169613   4.240   5.711   6.567 -0.7280 -2.2068  0.0578
16066TIP3    H269614   4.244   5.801   6.688  0.2709  0.4083 -1.8378
16067TIP3   OH269615   5.679   6.660  16.040 -0.0559  0.7407  0.2231
16067TIP3    H169616   5.617   6.724  16.005  0.2286  0.9105  0.0264
16067TIP3    H269617   5.681   6.678  16.134 -0.5354  0.5325  0.2719
16068TIP3   OH269618   5.963   5.093  14.235 -0.5163  0.0898 -0.2191
16068TIP3    H169619   6.024   5.167  14.229 -1.5365  0.8303 -2.3959
16068TIP3    H269620   5.977   5.059  14.323  0.4529  2.4732  0.6551
16069TIP3   OH269621   6.537   6.102  14.618 -0.6004  0.0452 -0.1599
16069TIP3    H169622   6.520   6.118  14.711 -1.6555  1.2344 -0.5256
16069TIP3    H269623   6.632   6.093  14.613 -0.6380 -1.6664  1.2466
16070TIP3   OH269624   5.214   4.362   4.629 -0.5890  0.1174 -0.5178
16070TIP3    H169625   5.240   4.444   4.588 -2.0097  0.4965 -0.7196
16070TIP3    H269626   5.124   4.348   4.601 -0.9615 -0.6140  0.9055
16071TIP3   OH269627   5.354   3.578  13.860 -0.0173  0.2386 -0.0396
16071TIP3    H169628   5.274   3.630  13.864 -0.9426 -1.0578 -0.7691
16071TIP3    H269629   5.392   3.600  13.775  0.4999  0.9533  0.3624
16072TIP3   OH269630   1.997   5.510   3.285 -0.4189 -0.3203 -0.1777
16072TIP3    H169631   1.962   5.548   3.365  1.6262  0.6610  0.3154
16072TIP3    H269632   2.017   5.419   3.308 -1.7929 -0.6549 -0.2323
16073TIP3   OH269633   2.430   3.822   3.948 -0.1490  0.1458  0.1620
16073TIP3    H169634   2.369   3.786   3.883  0.8745 -1.4047  0.0103
16073TIP3    H269635   2.467   3.745   3.991 -0.5166  1.1331  2.3585
16074TIP3   OH269636   5.665   3.799   4.451  0.8089  0.1864  0.0206
16074TIP3    H169637   5.609   3.730   4.487  1.0817  0.2413  0.5652
16074TIP3    H269638   5.623   3.881   4.478  0.2174  0.2523 -1.0398
16075TIP3   OH269639   6.173   1.088  16.237  0.7898 -0.0309 -0.0847
16075TIP3    H169640   6.202   1.090  16.146  0.3450 -0.4346 -0.2427
16075TIP3    H269641   6.091   1.138  16.238 -0.8769 -2.5207 -0.5555
16076TIP3   OH269642   4.601   2.399  11.021 -0.2190 -0.1476 -0.0189
16076TIP3    H169643   4.687   2.365  11.043 -0.3766  0.2388  1.2756
16076TIP3    H269644   4.549   2.321  11.000  0.4617 -0.3698 -0.9005
16077TIP3   OH269645   1.517   2.057   2.695  0.4112  0.4144 -0.5218
16077TIP3    H169646   1.443   2.013   2.736  0.3594  1.0098  0.0455
16077TIP3    H269647   1.558   1.990   2.640 -0.1910 -0.0809 -0.3765
16078TIP3   OH269648   3.032   2.564  12.501 -0.1010  0.3483  0.0755
16078TIP3    H169649   2.998   2.628  12.562  0.1284 -0.1406  0.7350
16078TIP3    H269650   3.095   2.612  12.448 -1.3839  1.1212 -0.7836
16079TIP3   OH269651   1.442   5.204  16.028 -0.2975  0.0815 -0.2660
16079TIP3    H169652   1.385   5.140  16.070 -0.4793 -0.3538 -1.1719
16079TIP3    H269653   1.446   5.277  16.091 -0.3347 -0.6676  0.6308
16080TIP3   OH269654   4.729   3.348  14.805  0.1383  0.9035  0.1107
16080TIP3    H169655   4.735   3.322  14.897  2.2130  1.5844  0.2126
16080TIP3    H269656   4.817   3.334  14.770  0.4880  4.3256 -0.7243
16081TIP3   OH269657   2.921   1.745  16.104  0.2493 -0.1816 -0.2018
16081TIP3    H169658   3.004   1.697  16.110  0.9498  0.9192 -0.6040
16081TIP3    H269659   2.926   1.809  16.175  0.2076  0.5448 -0.8387
16082TIP3   OH269660   3.952   5.387   0.887 -0.1923  0.2461 -0.6483
16082TIP3    H169661   3.917   5.356   0.971 -0.5738  3.2459  0.4021
16082TIP3    H269662   3.874   5.413   0.838  0.1846  0.7406 -0.9831
16083TIP3   OH269663   4.000   0.616  14.321 -0.0319 -0.4763 -0.9212
16083TIP3    H169664   4.013   0.710  14.334 -0.6783 -0.6196  1.3407
16083TIP3    H269665   3.924   0.609  14.264  0.1429  0.3802 -1.2618
16084TIP3   OH269666   4.396   5.422   6.471  0.3306  0.0253 -0.0193
16084TIP3    H169667   4.489   5.446   6.466  0.0529  1.5108  1.3012
16084TIP3    H269668   4.350   5.505   6.482 -1.0625 -0.7867  0.5955
16085TIP3   OH269669   5.607   5.031  11.995  0.2956 -0.8735 -0.1011
16085TIP3    H169670   5.643   5.067  12.076  0.1203 -2.4090  0.7109
16085TIP3    H269671   5.513   5.047  12.002  0.3605 -0.3623 -0.3547
16086TIP3   OH269672   2.458   4.896  13.026 -0.3772  0.5163 -0.4127
16086TIP3    H169673   2.433   4.918  13.115  1.1959  0.0522  0.1716
16086TIP3    H269674   2.542   4.851  13.034 -1.6469 -2.3954 -1.8419
16087TIP3   OH269675   1.747   0.266  17.001  0.3821 -0.1536 -0.4546
16087TIP3    H169676   1.771   0.300  17.088 -0.9018  2.1387 -0.9178
16087TIP3    H269677   1.793   0.182  16.995  1.9683  0.4588  1.7048
16088TIP3   OH269678   2.467   1.345   4.654  0.0322 -0.2418 -0.4541
16088TIP3    H169679   2.419   1.335   4.572 -1.2376 -2.3580  0.4755
16088TIP3    H269680   2.400   1.371   4.718  0.6977 -0.2501  0.2662
16089TIP3   OH269681   0.359   4.727  15.052  0.0246 -0.1905 -0.0558
16089TIP3    H169682   0.323   4.639  15.060 -0.0864 -0.1400  0.0055
16089TIP3    H269683   0.381   4.752  15.142  2.9993 -1.3714 -0.3265
16090TIP3   OH269684   0.754   6.667   0.513  0.2494  0.4409  0.3646
16090TIP3    H169685   0.782   6.704   0.429 -0.5102 -2.2898 -1.2176
16090TIP3    H269686   0.828   6.613   0.542 -0.9028 -1.8563 -0.7014
16091TIP3   OH269687   3.059   1.569  14.907  0.2080  0.7440  0.0086
16091TIP3    H169688   3.037   1.515  14.831 -1.1127  1.1508  0.0696
16091TIP3    H269689   3.086   1.653  14.868  0.4553  0.6427 -0.0373
16092TIP3   OH269690   0.953   2.367   4.988  0.5444  0.3808 -0.3565
16092TIP3    H169691   0.957   2.397   5.079  0.3419 -2.5104  0.6916
16092TIP3    H269692   1.031   2.404   4.947  0.1547  2.5180  0.6779
16093TIP3   OH269693   3.745   4.847  15.237 -0.2945  0.1849  0.4860
16093TIP3    H169694   3.678   4.891  15.184 -0.1223  0.6051  0.6146
16093TIP3    H269695   3.826   4.892  15.216 -0.4208  1.2301  2.0632
16094TIP3   OH269696   4.018   2.104  14.785  0.2192 -0.2448 -0.1225
16094TIP3    H169697   4.098   2.060  14.811  1.1619  2.4261  1.9860
16094TIP3    H269698   3.984   2.142  14.866 -2.2298  0.2053 -1.2560
16095TIP3   OH269699   1.238   2.237   2.612 -0.0983 -0.0103 -0.9064
16095TIP3    H169700   1.251   2.144   2.593  0.0541 -0.6686  1.9630
16095TIP3    H269701   1.321   2.264   2.652 -0.5649  1.0310 -0.6337
16096TIP3   OH269702   4.900   0.319   1.943  0.5117  0.4849 -0.1756
16096TIP3    H169703   4.970   0.353   1.886  0.9147 -0.9068 -0.5572
16096TIP3    H269704   4.828   0.299   1.883  0.9829 -1.1086 -0.2607
16097TIP3   OH269705   2.632   0.358  13.636 -0.1211 -0.1837  0.0656
16097TIP3    H169706   2.701   0.376  13.572 -0.0829  0.5433  0.2945
16097TIP3    H269707   2.560   0.415  13.609 -0.4680 -0.6084  0.0892
16098TIP3   OH269708   2.216   4.556   5.222 -0.4842 -0.3805  0.0629
16098TIP3    H169709   2.268   4.478   5.201 -0.2290 -0.4096  0.7852
16098TIP3    H269710   2.126   4.524   5.226 -0.4776 -0.4770 -0.4421
16099TIP3   OH269711   4.252   1.081  15.827 -0.1748 -0.4375 -0.2165
16099TIP3    H169712   4.325   1.036  15.784  0.3265 -0.8355  1.0100
16099TIP3    H269713   4.213   1.014  15.883 -1.3292 -0.1506 -0.6602
16100TIP3   OH269714   0.102   6.120   4.982 -0.5955  0.4381 -0.7468
16100TIP3    H169715   0.105   6.199   4.928  1.0930  0.1267 -1.1620
16100TIP3    H269716   0.188   6.078   4.969 -1.2261 -1.1564 -0.0762
16101TIP3   OH269717   4.199   2.996   4.013 -0.4994  0.3548 -0.1090
16101TIP3    H169718   4.121   3.020   4.063 -0.3849  0.4613  0.0184
16101TIP3    H269719   4.202   2.900   4.018 -0.8817  0.3167 -0.5096
16102TIP3   OH269720   2.670   0.202  16.864 -0.6956  0.3039 -0.4796
16102TIP3    H169721   2.603   0.164  16.806 -0.2157  0.2432 -1.0055
16102TIP3    H269722   2.698   0.129  16.919  0.1482 -0.1074 -1.4177
16103TIP3   OH269723   4.453   6.790  11.202  0.4950 -0.0942 -0.2490
16103TIP3    H169724   4.507   6.866  11.180 -0.8848  1.0137  0.0289
16103TIP3    H269725   4.385   6.824  11.260  0.0585 -1.6228  0.1994
16104TIP3   OH269726   0.423   2.709   6.190 -0.3284  0.3355  0.0831
16104TIP3    H169727   0.426   2.617   6.217 -0.8801  0.4137  0.4294
16104TIP3    H269728   0.504   2.747   6.226  0.6435 -0.3272 -1.3156
16105TIP3   OH269729   2.158   5.209  12.193 -0.2563 -0.0840 -0.1278
16105TIP3    H169730   2.241   5.179  12.230 -0.3668  1.1504  1.2367
16105TIP3    H269731   2.124   5.134  12.144  1.7844 -0.5146 -0.9652
16106TIP3   OH269732   3.164   5.237  15.251  0.8465 -0.6760  0.0912
16106TIP3    H169733   3.200   5.231  15.163 -0.3430 -1.1436 -0.3804
16106TIP3    H269734   3.122   5.153  15.266 -1.7763  0.4936 -0.1949
16107TIP3   OH269735   6.576   1.496   6.481  0.3529 -0.2690 -0.2448
16107TIP3    H169736   6.606   1.407   6.498  1.0095 -0.4418 -2.0065
16107TIP3    H269737   6.627   1.551   6.540  0.8571 -0.9611 -0.0283
16108TIP3   OH269738   2.437   4.218   1.278 -0.2743  0.0272  0.3238
16108TIP3    H169739   2.517   4.209   1.330  0.8454  1.0983 -1.1237
16108TIP3    H269740   2.367   4.188   1.336  1.0148  0.2848  2.0938
16109TIP3   OH269741   6.019   3.926   0.241  0.1592 -0.0920  0.1121
16109TIP3    H169742   5.934   3.886   0.219 -0.5838 -0.1043  2.6921
16109TIP3    H269743   6.001   4.020   0.239  0.6151 -0.0098 -1.1310
16110TIP3   OH269744   5.854   6.181   1.933  0.0231 -0.4169  0.1910
16110TIP3    H169745   5.873   6.190   1.840 -1.0143 -0.6824 -0.0567
16110TIP3    H269746   5.804   6.260   1.955 -0.4222 -0.7320  0.3277
16111TIP3   OH269747   3.964   5.679   4.996 -0.0694  0.2989 -0.4972
16111TIP3    H169748   3.896   5.744   4.977  2.2367  3.0208 -0.0824
16111TIP3    H269749   3.971   5.680   5.092 -1.1246 -1.8798 -0.3543
16112TIP3   OH269750   6.091   0.377  13.265  0.1953 -0.2425 -0.3431
16112TIP3    H169751   6.042   0.382  13.347 -0.0895 -1.9294 -0.3711
16112TIP3    H269752   6.100   0.283  13.248  0.0420  0.0493 -2.3574
16113TIP3   OH269753   3.826   2.316   0.753  0.0017 -0.2276 -0.6141
16113TIP3    H169754   3.752   2.286   0.700 -0.2651  0.8474 -0.8697
16113TIP3    H269755   3.894   2.337   0.689  0.1578 -0.2220 -0.4461
16114TIP3   OH269756   0.029   2.275   2.684 -0.5684  0.2600  0.2257
16114TIP3    H169757   0.061   2.321   2.607 -0.6343  1.5400  0.9443
16114TIP3    H269758   0.108   2.237   2.724 -0.3410  0.8326  0.3271
16115TIP3   OH269759   5.430   1.692  14.342  0.3322 -0.1978  0.5263
16115TIP3    H169760   5.448   1.655  14.429 -0.6242 -0.7276  0.5112
16115TIP3    H269761   5.399   1.617  14.290  0.3495  0.2281 -0.1010
16116TIP3   OH269762   5.984   5.262   3.891 -0.0683  0.3693 -0.1957
16116TIP3    H169763   5.899   5.226   3.915 -0.1181  0.8207  0.3314
16116TIP3    H269764   6.025   5.194   3.837 -0.8403  0.2322 -0.6199
16117TIP3   OH269765   6.180   6.548   4.987 -0.5422 -0.0902  0.4240
16117TIP3    H169766   6.256   6.490   4.996 -1.6775 -1.3996  1.9459
16117TIP3    H269767   6.192   6.614   5.055  0.7330  1.5717 -1.2860
16118TIP3   OH269768   2.983   5.070  16.978 -0.0444  0.4258 -0.1952
16118TIP3    H169769   2.892   5.047  16.961  0.2157  0.4041 -1.6867
16118TIP3    H269770   2.982   5.166  16.988 -0.3872  0.3136  1.0099
16119TIP3   OH269771   1.282   1.648  15.324 -0.3840 -0.4127 -0.4775
16119TIP3    H169772   1.203   1.597  15.342 -1.5802  1.7536  0.8786
16119TIP3    H269773   1.296   1.640  15.230 -1.7084 -1.5495 -0.6021
16120TIP3   OH269774   6.778   4.841  15.048 -0.3844 -0.5095 -0.0859
16120TIP3    H169775   6.755   4.774  14.984 -2.5156 -0.0292  0.0916
16120TIP3    H269776   6.810   4.792  15.123  0.5397 -1.1646 -0.8805
16121TIP3   OH269777   5.898   0.830   1.716  0.0256 -0.4796 -0.5216
16121TIP3    H169778   5.827   0.880   1.677 -1.2022 -1.3806  0.4531
16121TIP3    H269779   5.954   0.895   1.759 -0.3083  0.2239 -1.1562
16122TIP3   OH269780   3.348   3.599   1.340  0.2256 -0.3763 -0.2184
16122TIP3    H169781   3.419   3.562   1.287  0.6722 -0.7751  0.6393
16122TIP3    H269782   3.336   3.687   1.305  0.6030 -0.5815 -0.8925
16123TIP3   OH269783   0.798   5.698  16.665 -0.3894  0.4068 -0.0405
16123TIP3    H169784   0.822   5.609  16.693  0.8890  1.3006  1.9538
16123TIP3    H269785   0.710   5.688  16.629 -0.1971 -1.7009 -0.0969
16124TIP3   OH269786   6.487   0.708  12.552 -0.0979  0.0533 -0.2299
16124TIP3    H169787   6.433   0.670  12.621  0.4326  0.9740  0.7389
16124TIP3    H269788   6.559   0.751  12.600 -0.1730  1.4499 -1.2988
16125TIP3   OH269789   5.110   3.569   4.967 -0.0763 -0.1248  0.3842
16125TIP3    H169790   5.168   3.514   4.914 -1.3651 -1.7272  0.5498
16125TIP3    H269791   5.095   3.647   4.914  0.3592 -0.7446 -0.6810
16126TIP3   OH269792   6.723   2.752  14.520 -0.1436  0.0868 -0.4160
16126TIP3    H169793   6.706   2.682  14.583  0.8567  0.4072  0.2294
16126TIP3    H269794   6.659   2.820  14.542  0.1907  0.1891  0.2586
16127TIP3   OH269795   3.558   6.117  15.341 -0.5893 -0.4129  0.4253
16127TIP3    H169796   3.466   6.135  15.360  0.3762  2.5596  3.0119
16127TIP3    H269797   3.594   6.088  15.424  0.8389 -1.7786 -0.6124
16128TIP3   OH269798   0.334   1.583   1.653 -0.3065  0.5170 -0.5641
16128TIP3    H169799   0.257   1.560   1.705  0.2229  1.7469  0.8507
16128TIP3    H269800   0.331   1.678   1.646  1.6765  0.7119  0.5225
16129TIP3   OH269801   2.944   2.768  11.023 -0.5165 -0.3496 -0.5718
16129TIP3    H169802   2.928   2.793  10.932 -1.3002 -0.9607 -0.6130
16129TIP3    H269803   2.888   2.826  11.074  0.2091  0.2530 -0.4449
16130TIP3   OH269804   4.053   1.739  15.613 -0.1016  0.2944 -0.4383
16130TIP3    H169805   3.963   1.736  15.646 -0.3396  1.6302 -0.8697
16130TIP3    H269806   4.055   1.818  15.558  1.7836  1.2286  0.8712
16131TIP3   OH269807   1.896   6.695  15.979 -0.1966 -0.2186  0.2426
16131TIP3    H169808   1.945   6.747  16.042  2.1854  0.6655 -2.1395
16131TIP3    H269809   1.914   6.605  16.003  0.2152  0.0840  1.1238
16132TIP3   OH269810   3.655   3.451   1.628  0.0738 -0.4852  0.1185
16132TIP3    H169811   3.707   3.371   1.631  1.2592  0.2969  1.0658
16132TIP3    H269812   3.570   3.426   1.664  1.2502 -0.7679  2.9281
16133TIP3   OH269813   0.673   1.276   3.559 -0.0216 -0.2407  0.1438
16133TIP3    H169814   0.662   1.260   3.653 -0.1479 -0.2393  0.1293
16133TIP3    H269815   0.591   1.317   3.532 -0.4748 -1.3480 -0.2100
16134TIP3   OH269816   4.574   0.309   2.352  0.3040  0.1731  0.2356
16134TIP3    H169817   4.564   0.289   2.259  0.9722 -1.8855  0.5670
16134TIP3    H269818   4.513   0.382   2.367 -2.0895 -1.3799 -1.1898
16135TIP3   OH269819   5.957   5.550  11.933 -0.3384  0.4510  0.1792
16135TIP3    H169820   5.980   5.459  11.951  1.8833  0.5472 -1.6311
16135TIP3    H269821   5.962   5.556  11.837 -1.2026  2.2990  0.2247
16136TIP3   OH269822   0.033   5.307  11.588  0.4145 -0.2619 -0.4583
16136TIP3    H169823  -0.049   5.257  11.588  1.2045 -1.6183 -1.1357
16136TIP3    H269824   0.089   5.261  11.650  1.2400 -0.3808 -1.2675
16137TIP3   OH269825   0.707   2.135  15.225  0.2065 -0.4363 -0.5132
16137TIP3    H169826   0.762   2.178  15.159  0.8070  0.3486  0.4829
16137TIP3    H269827   0.738   2.169  15.309 -1.6685 -0.1397  0.0947
16138TIP3   OH269828   1.377   2.478   4.011  0.4077 -0.5013 -0.8161
16138TIP3    H169829   1.450   2.416   3.999  0.0120 -1.1152 -0.1253
16138TIP3    H269830   1.364   2.516   3.924  1.4497 -0.4971 -0.9824
16139TIP3   OH269831   1.660   2.905   0.914  0.4561 -0.4908 -0.4843
16139TIP3    H169832   1.681   2.964   0.987  0.2041  1.1366 -1.6635
16139TIP3    H269833   1.623   2.827   0.956  0.1930  0.4496  1.1284
16140TIP3   OH269834   2.882   3.745   5.387 -0.3634 -0.8242 -0.1029
16140TIP3    H169835   2.819   3.727   5.457  2.0981 -0.9893  2.2245
16140TIP3    H269836   2.916   3.832   5.406  0.4952 -0.9450 -0.9758
16141TIP3   OH269837   5.165   6.081  16.678  0.3108  0.0483  0.2296
16141TIP3    H169838   5.138   6.168  16.705  1.6907  0.9877 -1.2259
16141TIP3    H269839   5.221   6.050  16.750  0.2065  0.5643  0.5383
16142TIP3   OH269840   1.510   1.048   5.666 -0.1440 -0.0727  0.1076
16142TIP3    H169841   1.459   1.114   5.619  0.0713 -1.1500 -1.6960
16142TIP3    H269842   1.570   1.099   5.721  0.3686  1.2526 -1.6141
16143TIP3   OH269843   1.879   1.397   6.294  0.0419 -0.0290 -0.3391
16143TIP3    H169844   1.950   1.452   6.329  0.1270  1.7302 -3.0069
16143TIP3    H269845   1.804   1.418   6.349  0.8998  0.1657  0.8107
16144TIP3   OH269846   2.078   6.190  15.083  0.4021  0.3019  0.0604
16144TIP3    H169847   1.989   6.168  15.110  0.8526  0.5084  1.8515
16144TIP3    H269848   2.084   6.285  15.096  0.6188  0.4256 -0.8960
16145TIP3   OH269849   2.828   0.895   2.673 -0.3124 -0.2453  0.0796
16145TIP3    H169850   2.815   0.816   2.725 -1.7303  0.3577  0.6855
16145TIP3    H269851   2.910   0.932   2.706 -1.6539  0.6460  2.6532
16146TIP3   OH269852   6.206   4.661   2.035 -0.6154  0.2064  0.1434
16146TIP3    H169853   6.291   4.651   1.993 -0.7020 -2.8979  0.4181
16146TIP3    H269854   6.143   4.636   1.967 -1.0533 -0.5500  0.8020
16147TIP3   OH269855   3.249   2.669   4.480 -0.3599 -0.0159 -0.2800
16147TIP3    H169856   3.186   2.685   4.550  0.9133 -1.7322  1.3598
16147TIP3    H269857   3.233   2.578   4.455  0.5104 -0.0142 -0.8548
16148TIP3   OH269858   5.285   1.881   3.432  0.6000 -0.0419 -0.1778
16148TIP3    H169859   5.206   1.933   3.413 -0.1402 -0.6142  1.1657
16148TIP3    H269860   5.357   1.933   3.396 -0.2630  1.1723 -0.2295
16149TIP3   OH269861   0.205   4.262   6.015 -0.0797 -0.4007  0.0184
16149TIP3    H169862   0.239   4.173   6.000 -0.1221 -0.6508  1.2682
16149TIP3    H269863   0.152   4.253   6.094 -1.2855  0.4481 -0.6665
16150TIP3   OH269864   3.616   4.977  15.728 -0.2181  0.4030  0.1912
16150TIP3    H169865   3.650   4.954  15.641  0.2158 -0.4589  0.5757
16150TIP3    H269866   3.617   5.072  15.729 -2.1775  0.5134 -1.5010
16151TIP3   OH269867   3.692   6.758   5.707  0.4702  0.1839  0.0882
16151TIP3    H169868   3.733   6.689   5.760  1.4620  1.2321  0.7134
16151TIP3    H269869   3.718   6.737   5.617  0.2541 -0.5979  0.1955
16152TIP3   OH269870   1.378   4.336  11.994  0.7449 -0.0995  0.6849
16152TIP3    H169871   1.285   4.327  11.973  1.2929 -1.7688 -1.4091
16152TIP3    H269872   1.393   4.276  12.067  0.2748 -0.2043  0.6976
16153TIP3   OH269873   2.116   6.503   4.341  0.0796  0.1181  0.0247
16153TIP3    H169874   2.203   6.470   4.366 -0.5916 -0.2726  2.0759
16153TIP3    H269875   2.099   6.574   4.403 -0.8506  0.5737 -0.7258
16154TIP3   OH269876   5.971   1.387  15.292  0.1673 -0.3395  0.6964
16154TIP3    H169877   5.985   1.340  15.374 -1.1692  1.0103  1.7581
16154TIP3    H269878   5.929   1.322  15.235  0.6339 -1.1520  1.2573
16155TIP3   OH269879   1.343   4.149  13.448  0.0389  0.0336  0.2456
16155TIP3    H169880   1.413   4.204  13.484  1.7670 -1.1129 -1.1894
16155TIP3    H269881   1.388   4.088  13.390 -2.3196  0.0836 -1.7932
16156TIP3   OH269882   2.690   4.311   1.117 -0.6151 -0.0363  0.4590
16156TIP3    H169883   2.692   4.406   1.101 -0.0220  0.1343  1.4507
16156TIP3    H269884   2.750   4.298   1.191  0.0743 -1.3166 -0.2907
16157TIP3   OH269885   4.969   1.172  14.041 -0.1883  0.3030 -0.1444
16157TIP3    H169886   4.929   1.150  14.125  2.1001 -2.1543  0.4524
16157TIP3    H269887   5.021   1.250  14.058  0.1354 -0.0918  0.7067
16158TIP3   OH269888   3.888   2.806   4.142 -0.0564 -0.7402 -0.1641
16158TIP3    H169889   3.801   2.839   4.124 -0.3260  0.3853  2.6774
16158TIP3    H269890   3.875   2.736   4.206  1.1048 -0.2783  0.6301
16159TIP3   OH269891   1.132   6.158   4.109  0.3249 -0.5673  0.5084
16159TIP3    H169892   1.133   6.140   4.203  1.7531 -2.5779  0.1686
16159TIP3    H269893   1.039   6.149   4.085 -0.0521 -0.0993  1.6966
16160TIP3   OH269894   0.367   1.242   3.190  0.4297 -0.1278 -0.0598
16160TIP3    H169895   0.440   1.191   3.228 -0.5921 -0.8978  0.9428
16160TIP3    H269896   0.304   1.250   3.262 -1.3175 -1.1006 -1.4181
16161TIP3   OH269897   6.181   4.240  16.922 -0.2498  0.4505 -0.4305
16161TIP3    H169898   6.159   4.155  16.883  1.6005 -0.2020 -0.1452
16161TIP3    H269899   6.224   4.218  17.004  1.6007  1.5815 -1.0484
16162TIP3   OH269900   5.635   2.720  12.961  0.6316 -0.2787  0.1550
16162TIP3    H169901   5.572   2.659  12.998  1.0927 -0.7091  0.2452
16162TIP3    H269902   5.596   2.806  12.973 -1.0879 -0.6703 -1.9743
16163TIP3   OH269903   3.587   6.445  16.026  0.3900 -0.6867  0.3104
16163TIP3    H169904   3.503   6.456  16.070  0.5484  0.6776  0.3061
16163TIP3    H269905   3.634   6.382  16.080  0.0454 -0.1069  1.3231
16164TIP3   OH269906   3.260   5.327   1.073  0.3415  0.1346 -0.0645
16164TIP3    H169907   3.285   5.402   1.020 -1.1280  0.2096 -0.7139
16164TIP3    H269908   3.212   5.270   1.013  1.0995 -1.1463  0.5130
16165TIP3   OH269909   2.434   0.278   5.459  0.2343 -0.0130 -0.0293
16165TIP3    H169910   2.530   0.276   5.460  0.2475  0.0599 -0.8778
16165TIP3    H269911   2.410   0.296   5.550  0.9557 -2.7548  0.7972
16166TIP3   OH269912   1.438   2.961  11.588  0.1732 -0.1980  0.0143
16166TIP3    H169913   1.428   2.877  11.633 -1.0520  1.4915  3.1569
16166TIP3    H269914   1.353   2.977  11.547  0.0470 -0.0139  0.3435
16167TIP3   OH269915   2.056   2.498   6.330 -0.0522  0.3235  0.3371
16167TIP3    H169916   2.100   2.571   6.286 -2.8186  0.0064 -3.4877
16167TIP3    H269917   2.085   2.420   6.283  0.1898 -0.6532  2.0535
16168TIP3   OH269918   4.662   6.750   1.722  0.1807  0.1951  0.9444
16168TIP3    H169919   4.735   6.808   1.743 -2.2424  2.9874  2.4735
16168TIP3    H269920   4.592   6.808   1.691 -1.2240 -2.3952 -1.2988
16169TIP3   OH269921   1.344   0.254   0.042  0.1765  0.3062  0.0301
16169TIP3    H169922   1.351   0.159   0.048  3.9662  0.3680 -0.9995
16169TIP3    H269923   1.345   0.284   0.133  0.7780 -0.5852  0.3278
16170TIP3   OH269924   3.650   4.167   5.023 -0.7488  0.1532 -0.2275
16170TIP3    H169925   3.597   4.231   5.071 -2.8085 -0.4152 -1.6189
16170TIP3    H269926   3.658   4.093   5.083 -1.8473  0.1301 -0.0790
16171TIP3   OH269927   3.067   5.406   2.685 -0.0034  0.6617 -0.2497
16171TIP3    H169928   2.992   5.365   2.728 -0.3814  0.8725 -0.6980
16171TIP3    H269929   3.065   5.373   2.595  1.5945 -0.8623  0.2305
16172TIP3   OH269930   3.206   3.929   3.104 -0.3107  0.2275  0.3633
16172TIP3    H169931   3.185   3.904   3.194  0.7152 -0.6400  0.3765
16172TIP3    H269932   3.122   3.922   3.058 -0.6293 -0.4387  1.0140
16173TIP3   OH269933   5.378   5.478  14.773 -0.4653  0.1827  0.1133
16173TIP3    H169934   5.364   5.571  14.790 -1.4554  0.5761 -2.4009
16173TIP3    H269935   5.292   5.444  14.748  0.0738 -1.1738 -0.0139
16174TIP3   OH269936   3.692   2.633  13.968 -0.4929 -0.1481 -0.0739
16174TIP3    H169937   3.614   2.688  13.972 -0.0214  0.4729  0.9742
16174TIP3    H269938   3.754   2.675  14.028  0.7217 -0.5100 -1.0300
16175TIP3   OH269939   2.231   4.008   3.339 -0.1747  0.2035  0.2354
16175TIP3    H169940   2.166   4.076   3.325 -0.8665 -0.3127  0.8861
16175TIP3    H269941   2.313   4.046   3.307 -0.2950  1.8058  1.7236
16176TIP3   OH269942   1.642   0.632   4.662  0.3227 -0.0113 -0.1458
16176TIP3    H169943   1.549   0.649   4.672 -0.1842  0.6503 -4.2424
16176TIP3    H269944   1.647   0.565   4.593  2.8779 -1.2913  1.1249
16177TIP3   OH269945   6.629   4.415  16.597 -0.3647  0.3691 -0.0137
16177TIP3    H169946   6.719   4.383  16.588 -0.3185 -0.0847  1.6565
16177TIP3    H269947   6.581   4.341  16.635 -1.1099  1.0817  0.4742
16178TIP3   OH269948   1.000   1.285  12.179  0.3882 -0.2357 -0.4947
16178TIP3    H169949   1.023   1.284  12.086  2.5824  0.8298 -0.0372
16178TIP3    H269950   1.080   1.253  12.223  0.0035  0.9117  1.1027
16179TIP3   OH269951   5.155   5.252  17.056 -0.4558 -0.0167 -0.2774
16179TIP3    H169952   5.193   5.256  16.968  1.4310 -0.3837  0.4759
16179TIP3    H269953   5.205   5.183  17.100 -2.2482 -0.7435  0.6980
16180TIP3   OH269954   5.108   6.101   1.580 -0.2820  0.0304  0.3848
16180TIP3    H169955   5.084   6.107   1.672 -1.4759  0.0086  0.1013
16180TIP3    H269956   5.192   6.144   1.573 -0.1400 -0.0536  1.5009
16181TIP3   OH269957   6.177   1.562   5.176  0.7480 -0.2657 -0.5630
16181TIP3    H169958   6.160   1.656   5.183 -1.6739 -0.4496 -2.4065
16181TIP3    H269959   6.113   1.522   5.235  1.1557 -0.7849 -0.4652
16182TIP3   OH269960   0.160   2.804  13.738  0.0570  0.4894  0.3337
16182TIP3    H169961   0.130   2.760  13.659  1.5853 -2.2781  1.1550
16182TIP3    H269962   0.242   2.846  13.713 -0.6427  1.6394 -0.0849
16183TIP3   OH269963   3.166   5.682  13.373 -0.2377  0.3002  0.6250
16183TIP3    H169964   3.113   5.625  13.429 -1.5657  0.5702 -0.3041
16183TIP3    H269965   3.221   5.621  13.322 -0.3033 -0.0410  0.9576
16184TIP3   OH269966   2.349   0.170   1.836  0.3119  0.3321  0.2441
16184TIP3    H169967   2.334   0.119   1.757 -0.9308  2.4285 -0.9584
16184TIP3    H269968   2.361   0.105   1.905 -1.3366 -1.5794 -1.1670
16185TIP3   OH269969   5.442   0.096  12.531 -0.5150  0.9761  0.0693
16185TIP3    H169970   5.443   0.147  12.450  0.3178  0.9557  0.0569
16185TIP3    H269971   5.455   0.005  12.502 -0.9741  0.8789  0.1684
16186TIP3   OH269972   4.240   0.428  15.227  1.3855  0.5217  0.1163
16186TIP3    H169973   4.219   0.373  15.152 -0.8145 -0.7206  1.5285
16186TIP3    H269974   4.322   0.392  15.261  1.2581 -0.3110 -0.4362
16187TIP3   OH269975   4.806   4.875   3.007  0.7184 -0.1437 -0.2236
16187TIP3    H169976   4.741   4.855   2.939 -0.9258  1.1250  0.8843
16187TIP3    H269977   4.884   4.903   2.959 -0.0550 -0.2514 -1.5919
16188TIP3   OH269978   2.119   0.138   5.479 -0.0186  0.9447 -0.2924
16188TIP3    H169979   2.175   0.078   5.528 -0.1483  0.7849 -0.3384
16188TIP3    H269980   2.056   0.170   5.544  0.0141  0.9859 -0.2813
16189TIP3   OH269981   6.434   6.456   2.378 -0.0344 -0.2849 -0.3500
16189TIP3    H169982   6.495   6.472   2.306  0.4716  0.5435  0.2492
16189TIP3    H269983   6.371   6.527   2.373  1.2826  1.0711  1.3359
16190TIP3   OH269984   6.460   1.253   2.169  0.5510  0.0161  0.0838
16190TIP3    H169985   6.548   1.289   2.179  0.2216  0.6455  0.8563
16190TIP3    H269986   6.449   1.194   2.243  0.0877  0.4459  0.3621
16191TIP3   OH269987   6.578   2.732  12.969  0.1071  0.0825 -0.0420
16191TIP3    H169988   6.637   2.709  13.041  0.2562 -0.7184 -0.4134
16191TIP3    H269989   6.569   2.651  12.918 -0.1938  0.5695 -0.7827
16192TIP3   OH269990   4.482   2.718   5.651  0.5284 -0.3489  0.3980
16192TIP3    H169991   4.393   2.698   5.678  1.0864 -0.4518  2.2824
16192TIP3    H269992   4.536   2.696   5.727  2.0617  0.5860 -0.3733
16193TIP3   OH269993   3.750   6.803  15.825  0.3257  0.0567  0.6059
16193TIP3    H169994   3.807   6.868  15.783 -0.2180  0.0752 -0.1145
16193TIP3    H269995   3.811   6.738  15.861  0.8105  0.1802  0.0204
16194TIP3   OH269996   2.676   0.656   5.883  0.2017  0.5659  0.0093
16194TIP3    H169997   2.656   0.576   5.931  0.4047  1.2037  1.2210
16194TIP3    H269998   2.746   0.632   5.823 -1.4812 -0.7746 -1.5454
16195TIP3   OH269999   4.140   1.326   3.728  0.3301 -0.0892  0.0151
16195TIP3    H170000   4.172   1.397   3.784 -1.5138 -0.3257  1.4334
16195TIP3    H270001   4.109   1.371   3.649  2.3721  0.2936 -0.6513
16196TIP3   OH270002   3.318   0.350   0.049 -0.3440 -0.0831  0.0703
16196TIP3    H170003   3.343   0.266   0.010  1.9472  1.0786 -1.1480
16196TIP3    H270004   3.310   0.409  -0.026  1.3310  1.5375  1.0879
16197TIP3   OH270005   0.060   4.523  14.549 -0.1023 -0.4956  0.5860
16197TIP3    H170006   0.072   4.499  14.641 -1.2108 -1.6093  0.4715
16197TIP3    H270007  -0.027   4.563  14.546 -0.5459 -1.4923 -0.1579
16198TIP3   OH270008   5.722   6.203   4.488  0.3079 -0.3283  0.1397
16198TIP3    H170009   5.696   6.291   4.459  0.9760 -0.4700 -0.9613
16198TIP3    H270010   5.803   6.185   4.440 -0.0626 -1.7294  0.0005
16199TIP3   OH270011   1.323   1.467   0.089 -0.2162 -0.1953  0.0305
16199TIP3    H170012   1.307   1.453  -0.004 -0.7706  0.2020  0.0603
16199TIP3    H270013   1.253   1.419   0.133 -0.0516 -0.2457  0.2416
16200TIP3   OH270014   0.796   2.482  12.880  0.2380  0.4079 -0.2561
16200TIP3    H170015   0.730   2.466  12.812 -1.8981  3.7065  0.8271
16200TIP3    H270016   0.778   2.570  12.911  2.4413 -0.1767  3.2259
16201TIP3   OH270017   0.948   2.292  12.525  0.4297 -0.4688  0.5012
16201TIP3    H170018   1.002   2.357  12.569  0.3170 -0.4940  0.6785
16201TIP3    H270019   0.888   2.261  12.593 -0.3590  0.1586  0.1063
16202TIP3   OH270020   5.536   6.151  13.902  0.1175  0.1274  0.0943
16202TIP3    H170021   5.473   6.118  13.966  0.9445  2.4232  2.3065
16202TIP3    H270022   5.608   6.088  13.905 -0.5700 -0.6730  0.1577
16203TIP3   OH270023   0.453   2.557  15.072 -0.4882  0.1834 -0.3592
16203TIP3    H170024   0.422   2.630  15.019 -1.7255  0.0047  0.0775
16203TIP3    H270025   0.539   2.584  15.103 -0.2898  0.8150 -1.4211
16204TIP3   OH270026   1.882   0.693   4.805  0.1195 -0.2484  0.2018
16204TIP3    H170027   1.841   0.716   4.889  0.4122 -0.7664  0.4982
16204TIP3    H270028   1.809   0.665   4.750 -0.0138 -0.4873  0.4915
16205TIP3   OH270029   5.865   6.663  15.616 -0.8801  0.6065  0.3081
16205TIP3    H170030   5.949   6.703  15.641 -1.3167  3.3521 -2.0793
16205TIP3    H270031   5.799   6.728  15.639 -2.5530 -1.7155  2.6195
16206TIP3   OH270032   3.605   1.694  11.446  0.2581 -0.5947 -0.5123
16206TIP3    H170033   3.697   1.703  11.471 -0.0808  1.0068  0.2854
16206TIP3    H270034   3.580   1.607  11.478  0.5385  0.3725  2.6171
16207TIP3   OH270035   5.679   2.277  11.166 -0.0011 -0.2644 -0.2576
16207TIP3    H170036   5.768   2.246  11.182  0.7250  1.6618 -0.3129
16207TIP3    H270037   5.628   2.197  11.154  1.7167 -1.4182 -0.2776
16208TIP3   OH270038   4.682   5.074  11.542  0.0161  0.2740 -0.1746
16208TIP3    H170039   4.756   5.080  11.603  0.0724  0.3318 -0.2484
16208TIP3    H270040   4.695   5.148  11.482  0.7395 -0.6006 -1.1233
16209TIP3   OH270041   4.028   2.214   4.677  0.0472  0.0208 -0.1738
16209TIP3    H170042   4.060   2.295   4.638  0.0205  0.0141 -0.2097
16209TIP3    H270043   3.962   2.242   4.741 -0.6453 -0.0201 -0.8463
16210TIP3   OH270044   4.881   1.337  15.157  0.0236  0.1637 -0.0980
16210TIP3    H170045   4.818   1.276  15.195 -0.4712  1.3269  0.9959
16210TIP3    H270046   4.927   1.373  15.233  0.2928  1.1680 -0.7292
16211TIP3   OH270047   0.612   5.859  13.395 -0.4252 -0.5171  0.4332
16211TIP3    H170048   0.698   5.824  13.417 -0.9924 -0.1537  3.8015
16211TIP3    H270049   0.618   5.952  13.416 -1.2371 -0.1896 -0.7204
16212TIP3   OH270050   1.188   4.583  11.789 -0.4349 -0.0181  0.4187
16212TIP3    H170051   1.111   4.605  11.736 -0.8600 -0.6134  0.7705
16212TIP3    H270052   1.254   4.555  11.725 -0.6098  0.2151  0.1347
16213TIP3   OH270053   6.276   4.536   0.227 -0.8602 -0.0794  0.2381
16213TIP3    H170054   6.364   4.536   0.190 -1.1816 -1.7786 -0.6313
16213TIP3    H270055   6.218   4.548   0.152 -1.4158 -0.6316  0.5592
16214TIP3   OH270056   4.131   6.090  15.077 -0.2512  0.0484  0.2038
16214TIP3    H170057   4.060   6.155  15.082 -1.0521 -0.8669  1.4482
16214TIP3    H270058   4.086   6.006  15.071  0.7728 -0.4209 -1.7253
16215TIP3   OH270059   2.620   5.156   4.152 -0.0030  0.3879  0.1882
16215TIP3    H170060   2.663   5.191   4.074 -2.9001 -0.5277 -2.0150
16215TIP3    H270061   2.642   5.063   4.152 -0.9193  0.1549 -0.2682
16216TIP3   OH270062   0.558   1.275  13.917 -0.0315 -0.0809  0.8312
16216TIP3    H170063   0.639   1.251  13.873 -0.5156  2.1920 -1.5543
16216TIP3    H270064   0.566   1.369  13.934 -2.1367  0.2328  0.4412
16217TIP3   OH270065   5.866   4.414  15.277 -0.0850  0.6147  0.1785
16217TIP3    H170066   5.790   4.473  15.271 -1.0441 -0.7288 -2.8824
16217TIP3    H270067   5.939   4.466  15.244 -0.6263  0.6032 -1.0987
16218TIP3   OH270068   2.725   0.225   0.409 -0.3705  0.3306 -0.0825
16218TIP3    H170069   2.668   0.154   0.439 -0.7432  0.9955  0.8358
16218TIP3    H270070   2.671   0.275   0.348 -0.2085  0.0084 -0.4947
16219TIP3   OH270071   1.927   3.613   2.394 -0.2320 -0.1421 -0.3501
16219TIP3    H170072   1.899   3.657   2.475  0.7164 -1.0730  0.5192
16219TIP3    H270073   1.997   3.667   2.359  0.9817 -0.9408  0.7538
16220TIP3   OH270074   4.063   0.998   3.011  0.2124  0.4143 -0.4298
16220TIP3    H170075   4.103   1.001   3.098 -0.1198  0.3454 -0.2745
16220TIP3    H270076   3.977   1.039   3.022 -0.3634 -0.7450 -0.4335
16221TIP3   OH270077   0.262   3.599  12.942 -0.1874  0.1208 -0.1095
16221TIP3    H170078   0.349   3.621  12.907  0.5991  0.4517  1.9236
16221TIP3    H270079   0.244   3.667  13.006 -0.1795 -2.0257  2.3283
16222TIP3   OH270080   2.433   6.274  15.040  0.2078  0.2934  0.0611
16222TIP3    H170081   2.377   6.200  15.064  0.9338 -0.8782 -1.6743
16222TIP3    H270082   2.387   6.350  15.075  0.7358 -1.0621  4.3605
16223TIP3   OH270083   6.083   3.378  14.538  0.0974  0.0167  0.4699
16223TIP3    H170084   6.053   3.346  14.453  0.9642 -1.3612  0.6521
16223TIP3    H270085   6.006   3.370  14.595  0.0783 -1.0384  0.3081
16224TIP3   OH270086   0.145   5.436   4.451 -0.2369  1.1293  0.6517
16224TIP3    H170087   0.137   5.360   4.393  0.9801  1.7164 -0.3358
16224TIP3    H270088   0.057   5.447   4.488 -0.2168 -1.3811  1.6582
16225TIP3   OH270089   1.797   5.763   4.771  0.1186 -0.1854  0.1443
16225TIP3    H170090   1.759   5.725   4.850 -1.3858 -0.6453 -0.7600
16225TIP3    H270091   1.757   5.850   4.765  0.0474 -0.2457 -0.2435
16226TIP3   OH270092   5.920   5.684   1.568  0.3417  0.0228 -0.2388
16226TIP3    H170093   5.899   5.685   1.661 -1.6777 -0.4624 -0.6394
16226TIP3    H270094   6.016   5.686   1.565  0.4869 -1.0015  1.8686
16227TIP3   OH270095   6.741   3.012  13.108 -0.2400  0.2451  0.7551
16227TIP3    H170096   6.767   3.007  13.016 -1.6977  1.4608  0.2401
16227TIP3    H270097   6.714   2.923  13.130  1.8893 -0.4988  0.6024
16228TIP3   OH270098   6.200   6.192   0.557  0.5980 -0.2810  0.1841
16228TIP3    H170099   6.108   6.197   0.583  0.3996  0.4557 -0.6264
16228TIP3    H270100   6.248   6.218   0.636  0.0459  0.7583  0.1912
16229TIP3   OH270101   0.132   3.216  16.038 -0.2637  0.3727 -0.6024
16229TIP3    H170102   0.141   3.308  16.013 -1.8390  0.4967 -0.8111
16229TIP3    H270103   0.182   3.168  15.972 -0.7257  0.9966 -1.4231
16230TIP3   OH270104   5.898   3.895   0.897 -0.1417  0.6049  0.2635
16230TIP3    H170105   5.982   3.878   0.856 -0.1816  1.2718 -0.1152
16230TIP3    H270106   5.902   3.850   0.981 -1.1665 -3.3365 -1.5940
16231TIP3   OH270107   6.808   5.768  13.934 -0.1604 -0.1465 -0.5938
16231TIP3    H170108   6.888   5.752  13.984 -0.5614  2.3714  0.9896
16231TIP3    H270109   6.812   5.704  13.863  1.7205 -2.1293  1.1565
16232TIP3   OH270110   1.992   2.966   0.432  0.3436  0.2457  0.2069
16232TIP3    H170111   1.988   2.893   0.370  0.5824 -0.8337  1.4267
16232TIP3    H270112   2.026   2.928   0.513 -0.4449  1.5094  1.1814
16233TIP3   OH270113   1.065   0.289   3.405  0.3628  0.2481 -0.0797
16233TIP3    H170114   1.045   0.266   3.496 -0.0921  1.8945  0.2585
16233TIP3    H270115   1.155   0.320   3.407  1.7480 -3.2097 -0.8951
16234TIP3   OH270116   0.779   1.658  16.989 -0.3021  0.2460  0.2130
16234TIP3    H170117   0.842   1.600  16.947  0.0857  0.3611  0.6219
16234TIP3    H270118   0.693   1.623  16.965 -0.0867  0.1705 -0.4624
16235TIP3   OH270119   0.729   5.478  11.791  0.5291  0.5911  0.2404
16235TIP3    H170120   0.726   5.563  11.747  1.4290 -0.2036 -1.4441
16235TIP3    H270121   0.681   5.419  11.732  2.7656 -0.7606 -0.3452
16236TIP3   OH270122   3.689   3.531  10.691 -0.5154  0.5699 -0.3825
16236TIP3    H170123   3.649   3.611  10.726  0.0403  1.2101 -1.1615
16236TIP3    H270124   3.623   3.494  10.633 -0.6590  0.6217 -0.2541
16237TIP3   OH270125   0.284   6.323  15.570  0.9410 -0.1530  1.0924
16237TIP3    H170126   0.377   6.346  15.568  0.9666 -0.2626 -0.1863
16237TIP3    H270127   0.256   6.334  15.479 -0.9239  2.3664  1.8654
16238TIP3   OH270128   6.371   3.108   3.831  0.1408 -0.3951 -0.0818
16238TIP3    H170129   6.328   3.189   3.805 -1.6951 -1.1455  0.4515
16238TIP3    H270130   6.417   3.129   3.912  0.9782  0.4610 -0.7546
16239TIP3   OH270131   6.259   1.004  10.589  0.3625  0.6432 -0.4629
16239TIP3    H170132   6.183   1.061  10.578 -0.0638  0.1185 -0.2768
16239TIP3    H270133   6.313   1.049  10.654 -0.4988  0.2975  0.5013
16240TIP3   OH270134   1.515   0.929  11.502  0.1846  0.0931 -0.0265
16240TIP3    H170135   1.604   0.936  11.538  0.3352 -0.2752 -0.3149
16240TIP3    H270136   1.467   0.876  11.565 -0.0046  0.7983  0.4351
16241TIP3   OH270137   0.122   5.255   4.242 -0.4958 -0.4554  0.3232
16241TIP3    H170138   0.070   5.314   4.188 -0.3656  0.7263  1.4443
16241TIP3    H270139   0.104   5.168   4.207 -1.4323  0.1569 -0.7621
16242TIP3   OH270140   3.070   6.092   4.217  0.0815  0.1407 -0.3685
16242TIP3    H170141   3.014   6.162   4.186 -1.3972 -1.4426 -1.4709
16242TIP3    H270142   3.020   6.012   4.201  3.1266 -1.5358 -2.7021
16243TIP3   OH270143   0.365   6.708   4.379  0.1169 -0.0718  0.0231
16243TIP3    H170144   0.416   6.787   4.397  0.9029 -0.9441  1.8471
16243TIP3    H270145   0.401   6.675   4.297  1.0986  0.4438  0.2308
16244TIP3   OH270146   5.567   6.421   4.394  0.3916  0.7202  0.0351
16244TIP3    H170147   5.548   6.479   4.468 -0.5584  0.8757 -0.3086
16244TIP3    H270148   5.492   6.360   4.392  1.6342 -0.9191  0.7446
16245TIP3   OH270149   3.021   0.044  10.951 -0.0365  0.1282 -0.5373
16245TIP3    H170150   3.059   0.044  10.863  0.3131 -1.6532 -0.4214
16245TIP3    H270151   2.944  -0.012  10.945 -1.0045  1.3616 -0.0743
16246TIP3   OH270152   2.617   0.729  14.551  0.0224  0.7577  0.1314
16246TIP3    H170153   2.636   0.651  14.499 -0.0269 -0.0223  1.2416
16246TIP3    H270154   2.566   0.785  14.493 -0.7296 -0.4401 -0.3853
16247TIP3   OH270155   3.893   0.726  12.957 -0.1100 -0.1160  0.3659
16247TIP3    H170156   3.961   0.780  12.996  0.2975 -1.0629  1.0056
16247TIP3    H270157   3.843   0.786  12.902  0.8340  0.7276  0.4037
16248TIP3   OH270158   3.451   3.806   1.741 -0.1771  0.1976 -0.2490
16248TIP3    H170159   3.527   3.828   1.687 -0.9025 -0.0741 -1.4369
16248TIP3    H270160   3.385   3.870   1.715 -0.1554  0.8706  1.2766
16249TIP3   OH270161   4.242   6.511  16.902  0.2932 -0.2646  0.0407
16249TIP3    H170162   4.232   6.475  16.813  0.3955  0.3926 -0.2364
16249TIP3    H270163   4.262   6.434  16.956 -0.0897 -0.7191 -0.4461
16250TIP3   OH270164   4.116   4.138  11.320  1.0652 -0.5776  0.4980
16250TIP3    H170165   4.201   4.181  11.326  0.3605  0.9367  0.1059
16250TIP3    H270166   4.056   4.197  11.365  0.2435 -1.7358  0.9659
16251TIP3   OH270167   2.519   5.938   0.823 -0.0777 -0.1338  0.0188
16251TIP3    H170168   2.587   5.875   0.847  0.6153  0.6273  0.1172
16251TIP3    H270169   2.473   5.956   0.905  2.0137  2.1450  0.8030
16252TIP3   OH270170   4.903   1.626  16.395 -0.0480  0.5490  0.5416
16252TIP3    H170171   4.815   1.663  16.385 -0.7314 -0.5579  2.0339
16252TIP3    H270172   4.918   1.623  16.489  0.6963 -1.2401  0.4214
16253TIP3   OH270173   2.534   0.169  11.775 -0.0834  0.3621 -0.1365
16253TIP3    H170174   2.494   0.217  11.702 -0.2597  0.2315 -0.1279
16253TIP3    H270175   2.476   0.188  11.850 -0.0121  0.3381 -0.0763
16254TIP3   OH270176   0.659   0.079  14.995  0.1314 -0.1443 -0.6006
16254TIP3    H170177   0.564   0.072  14.993 -0.0280 -0.4001  2.6923
16254TIP3    H270178   0.690  -0.007  14.968 -0.6478 -0.7323  0.3372
16255TIP3   OH270179   6.024   3.409   1.619 -0.0751 -0.2939 -0.3291
16255TIP3    H170180   6.030   3.407   1.524 -1.3609 -1.8300 -0.4249
16255TIP3    H270181   6.067   3.328   1.648 -2.1381 -1.2944  0.1563
16256TIP3   OH270182   1.711   5.994   2.819  0.3441  0.4772 -0.1284
16256TIP3    H170183   1.719   6.020   2.911  1.1515  1.0703 -0.3572
16256TIP3    H270184   1.714   5.898   2.822  0.2524  0.4873  0.4700
16257TIP3   OH270185   3.825   1.241  16.700  0.1196 -0.3775 -0.8566
16257TIP3    H170186   3.908   1.193  16.697  1.8036  2.1442  0.7956
16257TIP3    H270187   3.849   1.331  16.675 -1.8311  0.7023  0.8815
16258TIP3   OH270188   0.910   0.362   0.519 -0.1090 -0.1027  0.0526
16258TIP3    H170189   0.913   0.405   0.434  0.0260  1.2078  0.7034
16258TIP3    H270190   0.817   0.356   0.541 -0.1078  0.2908  0.1695
16259TIP3   OH270191   0.486   3.471  15.645  0.6732 -0.1719 -0.0862
16259TIP3    H170192   0.423   3.423  15.590  0.1471 -0.3445  0.6440
16259TIP3    H270193   0.517   3.406  15.708 -0.5511  0.5609  1.3473
16260TIP3   OH270194   4.816   0.981   2.607 -0.6203 -0.1470 -0.0991
16260TIP3    H170195   4.782   0.911   2.550 -1.6321 -0.2308  0.5763
16260TIP3    H270196   4.742   1.040   2.618 -0.4542 -0.1465  1.1393
16261TIP3   OH270197   1.638   6.612  11.040  0.0453  0.0994  0.0696
16261TIP3    H170198   1.694   6.535  11.040  0.7865  0.6221 -0.2048
16261TIP3    H270199   1.648   6.649  11.127  1.7483  1.3120 -0.5905
16262TIP3   OH270200   0.076   4.494  13.640  0.3750 -0.3289  0.0369
16262TIP3    H170201   0.004   4.431  13.639  0.5046 -0.4771 -0.0739
16262TIP3    H270202   0.152   4.444  13.667  0.1604  0.1436  1.6005
16263TIP3   OH270203   3.453   0.542  12.013 -0.4763  0.3551 -0.2706
16263TIP3    H170204   3.375   0.582  11.975 -0.8841  0.4610  0.6535
16263TIP3    H270205   3.432   0.449  12.019 -1.2391  0.6084  1.5775
16264TIP3   OH270206   5.820   2.478   2.774  0.4500  0.7174 -0.0431
16264TIP3    H170207   5.872   2.558   2.771  0.0929  0.9651  0.2266
16264TIP3    H270208   5.881   2.410   2.804  1.3162  0.4115 -2.2781
16265TIP3   OH270209   4.104   3.099   0.129  0.6724 -0.0537  0.2703
16265TIP3    H170210   4.045   3.104   0.053 -0.1547  0.9593  0.9537
16265TIP3    H270211   4.103   3.188   0.166  2.2417 -0.1508  0.5968
16266TIP3   OH270212   2.593   2.046  10.429  0.4429  0.1220  0.0996
16266TIP3    H170213   2.570   2.082  10.515  0.2136  0.9248 -0.2925
16266TIP3    H270214   2.525   1.982  10.411  1.6748 -1.7065  1.4880
16267TIP3   OH270215   2.510   2.822  11.098  0.1685 -0.1671 -0.2062
16267TIP3    H170216   2.602   2.842  11.116  0.1522  1.9970 -2.1250
16267TIP3    H270217   2.513   2.758  11.027  0.1550 -1.0151  0.5335
16268TIP3   OH270218   5.866   5.732  11.736 -0.0272 -0.0568 -0.5259
16268TIP3    H170219   5.883   5.823  11.710 -0.1524  0.8535  2.2872
16268TIP3    H270220   5.932   5.682  11.688  1.4623  1.7789 -0.5406
16269TIP3   OH270221   6.225   6.675  14.021 -0.2791 -0.0187  0.2635
16269TIP3    H170222   6.209   6.600  14.078  1.6404 -0.3552  0.4168
16269TIP3    H270223   6.265   6.637  13.942 -2.5751  0.4718 -1.2479
16270TIP3   OH270224   5.073   5.932  13.517 -0.4256 -0.6398  0.0028
16270TIP3    H170225   5.001   5.990  13.492  0.2370  0.1140 -0.2147
16270TIP3    H270226   5.094   5.957  13.606 -1.4806 -1.9772  0.6675
16271TIP3   OH270227   4.345   4.556   2.665  0.0720  0.4409 -0.1660
16271TIP3    H170228   4.389   4.560   2.580  0.7782  0.4530  0.1942
16271TIP3    H270229   4.373   4.472   2.703 -3.6914 -1.7954 -1.7690
16272TIP3   OH270230   1.433   2.166   5.159 -0.2093 -0.2671 -0.2523
16272TIP3    H170231   1.439   2.096   5.224  0.8497  0.6985  0.7488
16272TIP3    H270232   1.454   2.245   5.208  1.4816  0.3922 -1.9398
16273TIP3   OH270233   4.528   0.268   4.475  0.0818  0.3768 -0.4170
16273TIP3    H170234   4.483   0.348   4.500 -0.2894  0.4545 -1.2963
16273TIP3    H270235   4.458   0.203   4.465  0.3377  0.0532 -0.1352
16274TIP3   OH270236   5.770   0.284   3.865 -0.3828  0.1764  0.1573
16274TIP3    H170237   5.737   0.240   3.944 -2.9581 -0.4109 -1.1350
16274TIP3    H270238   5.849   0.236   3.843 -0.9582 -1.2571  1.0490
16275TIP3   OH270239   2.950   0.403   3.826  0.2329  0.0997 -0.1800
16275TIP3    H170240   2.970   0.488   3.787  1.0592 -0.2405 -0.5408
16275TIP3    H270241   2.861   0.383   3.797  0.8336 -0.1655 -2.0149
16276TIP3   OH270242   1.749   1.906   4.893 -0.2673 -0.0900  0.4537
16276TIP3    H170243   1.673   1.881   4.946  1.0907  0.9564  3.0666
16276TIP3    H270244   1.819   1.922   4.957  1.9547 -0.2474 -1.7916
16277TIP3   OH270245   2.850   1.847   3.494 -0.8580 -0.3690  0.2409
16277TIP3    H170246   2.899   1.908   3.440  0.8044 -0.2296  1.8106
16277TIP3    H270247   2.779   1.816   3.438  0.5146  0.0977 -1.8373
16278TIP3   OH270248   6.184   5.425   4.935  0.0028 -0.7039  0.5268
16278TIP3    H170249   6.150   5.370   5.006 -1.9648  0.5225  0.5981
16278TIP3    H270250   6.214   5.362   4.869 -2.7850 -1.9630  0.3216
16279TIP3   OH270251   6.688   4.998  16.736 -0.4475 -0.1833 -0.8726
16279TIP3    H170252   6.694   4.910  16.699 -1.3587 -0.6496  0.0303
16279TIP3    H270253   6.713   5.056  16.665  0.8027 -1.2032 -1.2883
16280TIP3   OH270254   4.162   2.469  16.629  0.3028 -0.0152  0.2270
16280TIP3    H170255   4.219   2.520  16.686  1.1020 -0.7825  0.1309
16280TIP3    H270256   4.201   2.478  16.542 -0.6089  0.7100 -0.1247
16281TIP3   OH270257   2.608   5.789  17.074  0.0830 -0.0968 -0.5156
16281TIP3    H170258   2.575   5.832  17.153  1.6067  0.4646 -0.1628
16281TIP3    H270259   2.532   5.785  17.016 -0.6571  0.9902  0.3389
16282TIP3   OH270260   6.176   1.198  13.610  0.3466 -0.2877 -0.4538
16282TIP3    H170261   6.166   1.136  13.538 -0.6155 -0.9351  0.2048
16282TIP3    H270262   6.263   1.180  13.646  0.3334 -0.8078 -0.6803
16283TIP3   OH270263   3.273   6.473  11.340 -0.6062 -0.9954  0.6276
16283TIP3    H170264   3.254   6.559  11.301 -1.4075 -1.3419  0.2421
16283TIP3    H270265   3.279   6.414  11.265  1.7024 -0.9904  0.7327
16284TIP3   OH270266   1.616   2.618  13.163  0.2383  0.0686  0.4194
16284TIP3    H170267   1.579   2.530  13.160  0.4382  0.0107 -1.5940
16284TIP3    H270268   1.540   2.675  13.176 -0.5975 -0.1182 -2.8061
16285TIP3   OH270269   4.240   2.401   4.633  0.0920 -0.0619  0.5817
16285TIP3    H170270   4.306   2.385   4.565  2.4430 -1.2324  2.9639
16285TIP3    H270271   4.281   2.370   4.714 -2.9358  0.3684  2.4297
16286TIP3   OH270272   4.952   0.378  14.044  0.8133 -0.3961 -0.0507
16286TIP3    H170273   4.967   0.351  14.134 -1.0964 -2.3285 -0.2441
16286TIP3    H270274   4.864   0.417  14.045  1.1945  0.5414 -0.9114
16287TIP3   OH270275   0.258   6.566   5.657 -0.4723 -0.5529  0.5671
16287TIP3    H170276   0.276   6.476   5.684  1.4320 -0.0381  1.1326
16287TIP3    H270277   0.213   6.557   5.573  1.2241 -2.0192 -0.2450
16288TIP3   OH270278   4.400   6.763   1.984 -0.6221  0.0193  0.7087
16288TIP3    H170279   4.465   6.730   2.046 -1.8438 -0.3833  1.8201
16288TIP3    H270280   4.369   6.685   1.938  0.5118  0.3527 -0.6872
16289TIP3   OH270281   5.479   0.494   3.619 -0.5020 -0.1420  0.0417
16289TIP3    H170282   5.498   0.534   3.534 -1.3418  1.4986  0.5767
16289TIP3    H270283   5.564   0.487   3.662 -0.4143  2.5061  0.4873
16290TIP3   OH270284   1.129   4.391  13.805 -0.5132  0.0074  0.0663
16290TIP3    H170285   1.189   4.418  13.736 -0.8088  0.0071 -0.1886
16290TIP3    H270286   1.102   4.472  13.847  0.6252 -0.0634  0.9905
16291TIP3   OH270287   0.502   2.639   3.666  0.2402  0.4638  0.2203
16291TIP3    H170288   0.408   2.649   3.655  0.2111  2.7175  1.8410
16291TIP3    H270289   0.525   2.699   3.737  2.7116 -1.0124  0.8136
16292TIP3   OH270290   3.817   6.437   0.722  0.2430 -0.0426  0.1605
16292TIP3    H170291   3.815   6.342   0.708  0.0475 -0.1785  1.0270
16292TIP3    H270292   3.789   6.474   0.638 -2.1969 -0.8372  0.5151
16293TIP3   OH270293   4.698   4.448   6.593 -0.2683  0.4317  0.1226
16293TIP3    H170294   4.765   4.511   6.566 -1.4583  1.3934 -0.6353
16293TIP3    H270295   4.615   4.488   6.569 -1.0774 -1.3972 -0.3216
16294TIP3   OH270296   6.765   3.252  13.800  0.0958 -0.3173 -0.3853
16294TIP3    H170297   6.860   3.251  13.795  0.1089  0.2741 -0.4006
16294TIP3    H270298   6.736   3.206  13.721  0.3680 -0.8144 -0.1996
16295TIP3   OH270299   5.103   3.304   2.236  0.0381  0.5064  0.5130
16295TIP3    H170300   5.125   3.339   2.150 -0.7619 -2.3769 -0.9716
16295TIP3    H270301   5.092   3.382   2.291  1.2764  2.4171 -1.7713
16296TIP3   OH270302   5.968   0.127   2.064  0.0988 -0.2403  0.0718
16296TIP3    H170303   6.000   0.179   1.991 -0.8560 -1.0852 -0.9847
16296TIP3    H270304   5.882   0.165   2.084 -0.7989 -1.6430 -0.9959
16297TIP3   OH270305   0.055   2.841   1.665 -0.9003 -0.0261  0.5719
16297TIP3    H170306   0.045   2.927   1.704  0.4677 -0.0241  0.9854
16297TIP3    H270307   0.102   2.790   1.731 -0.0073 -0.5076 -0.4043
16298TIP3   OH270308   5.159   4.266  12.995  0.3481 -0.0103  0.1855
16298TIP3    H170309   5.084   4.268  12.935 -0.4113  0.2941  1.1285
16298TIP3    H270310   5.233   4.297  12.942 -0.2541  0.0173 -0.6589
16299TIP3   OH270311   6.558   0.178   5.826  0.0830 -0.5258  0.0849
16299TIP3    H170312   6.557   0.098   5.774  0.3133 -0.9636  0.7506
16299TIP3    H270313   6.631   0.167   5.887 -0.0259  0.0890  0.3371
16300TIP3   OH270314   4.217   1.755   3.163 -0.3124 -0.4852  0.2052
16300TIP3    H170315   4.147   1.701   3.128  0.2743 -0.2827 -1.3502
16300TIP3    H270316   4.187   1.845   3.150  0.2569 -0.3950 -0.5649
16301TIP3   OH270317   1.249   4.719  15.138  0.1971  0.3043  0.0232
16301TIP3    H170318   1.298   4.801  15.146  1.5116 -0.6305  2.5536
16301TIP3    H270319   1.312   4.658  15.100 -0.2148  0.0050 -0.1829
16302TIP3   OH270320   4.244   5.232  15.283  0.0433  0.5864  0.2771
16302TIP3    H170321   4.305   5.173  15.327 -1.1545 -0.9120  0.0331
16302TIP3    H270322   4.298   5.305  15.252  1.4661 -0.0545  1.1564
16303TIP3   OH270323   1.383   4.827  13.706  0.5551 -0.0722 -0.1496
16303TIP3    H170324   1.459   4.859  13.658  2.2472 -0.6272  1.9741
16303TIP3    H270325   1.382   4.733  13.691 -0.0901  0.0021 -0.6313
16304TIP3   OH270326   5.321   1.852   2.121 -0.2382 -0.2216  0.0428
16304TIP3    H170327   5.240   1.852   2.173 -0.6603 -0.3986 -0.6013
16304TIP3    H270328   5.384   1.803   2.175 -1.5342 -3.1780 -0.9009
16305TIP3   OH270329   6.195   6.159  11.032 -0.1850 -0.2903 -0.3924
16305TIP3    H170330   6.264   6.172  10.967  0.3745 -0.3371  0.1750
16305TIP3    H270331   6.130   6.226  11.013  0.2040  0.0030 -0.7047
16306TIP3   OH270332   6.442   6.117  14.114  0.0895 -0.1066  0.0098
16306TIP3    H170333   6.386   6.081  14.182  0.0242 -1.5665 -0.7671
16306TIP3    H270334   6.530   6.113  14.151  0.2555 -2.2450 -0.4246
16307TIP3   OH270335   6.758   3.526   1.336  0.2645  0.3492  0.4728
16307TIP3    H170336   6.776   3.512   1.243 -2.0255  1.5976 -0.2338
16307TIP3    H270337   6.826   3.475   1.381 -0.5124 -3.1034 -1.8384
16308TIP3   OH270338   5.111   0.377  14.693  0.5117  0.0763 -0.4187
16308TIP3    H170339   5.171   0.336  14.754 -2.3050 -1.7984  1.3402
16308TIP3    H270340   5.025   0.343  14.718 -1.4324  3.2222 -2.1856
16309TIP3   OH270341   6.462   4.251   3.418 -0.0367  0.0776  0.0343
16309TIP3    H170342   6.380   4.285   3.454 -0.6653  0.3311 -1.5468
16309TIP3    H270343   6.436   4.205   3.338  1.3824  0.3786 -0.6394
16310TIP3   OH270344   4.433   3.515   0.729 -0.1964  0.7456 -0.3756
16310TIP3    H170345   4.491   3.562   0.788  0.0431  0.4371 -0.3600
16310TIP3    H270346   4.404   3.439   0.779  0.0384  0.4624 -0.6642
16311TIP3   OH270347   1.017   2.410   3.630 -0.1483  0.3451  0.0768
16311TIP3    H170348   0.979   2.497   3.638 -1.7834 -0.4399  1.4324
16311TIP3    H270349   1.102   2.425   3.588 -0.3411  2.5842  0.3559
16312TIP3   OH270350   2.651   4.904   5.746 -0.2981 -0.1700  0.2729
16312TIP3    H170351   2.674   4.892   5.838 -1.5084 -1.4572  0.4347
16312TIP3    H270352   2.716   4.966   5.713 -0.8809  1.6712  2.4097
16313TIP3   OH270353   2.493   3.767  11.244 -0.0997 -0.2807 -0.1764
16313TIP3    H170354   2.481   3.762  11.149  1.8765  0.5766 -0.5225
16313TIP3    H270355   2.423   3.826  11.274  0.3575  0.9291 -1.3757
16314TIP3   OH270356   3.296   3.225   0.467  0.0293 -0.0819 -0.1164
16314TIP3    H170357   3.337   3.312   0.466  2.7036 -1.2505 -0.4877
16314TIP3    H270358   3.202   3.242   0.458  0.4720  2.7435 -0.1730
16315TIP3   OH270359   5.049   0.417   2.433  0.6600 -0.4256  0.1084
16315TIP3    H170360   5.085   0.368   2.360  2.3007 -0.3066  0.7968
16315TIP3    H270361   4.955   0.398   2.431  0.5768 -0.1048 -2.2363
16316TIP3   OH270362   2.399   5.087  14.452 -0.0940  0.3030  0.1488
16316TIP3    H170363   2.349   5.014  14.415  0.0017 -0.1232  0.8238
16316TIP3    H270364   2.490   5.058  14.448  0.0602  0.8956 -0.6789
16317TIP3   OH270365   6.786   6.765  13.358  0.1099 -0.2591 -0.8940
16317TIP3    H170366   6.863   6.822  13.348  0.3246 -0.5212 -0.7628
16317TIP3    H270367   6.760   6.744  13.268  0.4021 -0.4452 -0.9372
16318TIP3   OH270368   0.954   6.139   2.703 -0.0180 -0.0140  0.3728
16318TIP3    H170369   0.880   6.097   2.658  1.6400 -1.9869 -0.6768
16318TIP3    H270370   0.914   6.185   2.777 -2.1397 -2.6002  0.9929
16319TIP3   OH270371   6.391   3.881  11.599 -0.1670 -0.1876  0.0479
16319TIP3    H170372   6.389   3.970  11.636  1.0006 -0.0814 -0.1040
16319TIP3    H270373   6.422   3.826  11.671 -1.8444 -0.6655  0.4537
16320TIP3   OH270374   3.532   0.680   5.504  0.2454 -0.3738 -0.0048
16320TIP3    H170375   3.476   0.732   5.447 -0.1853 -2.2855 -1.4484
16320TIP3    H270376   3.518   0.716   5.591 -1.4108  0.7208 -0.6743
16321TIP3   OH270377   1.114   2.874   4.604  0.4205 -0.1532  0.0319
16321TIP3    H170378   1.148   2.870   4.515  2.0421  0.5361  0.5933
16321TIP3    H270379   1.170   2.814   4.654 -0.2023 -0.2074  0.6894
16322TIP3   OH270380   3.844   4.883  15.881 -0.2017  0.1838  0.2825
16322TIP3    H170381   3.828   4.810  15.941 -2.7402  0.3508 -0.1052
16322TIP3    H270382   3.794   4.861  15.803  4.0472 -0.7049 -2.5165
16323TIP3   OH270383   0.587   4.085   0.230 -0.5036  0.1292  0.1845
16323TIP3    H170384   0.638   4.102   0.309  0.7854  0.3455 -0.6544
16323TIP3    H270385   0.598   4.165   0.177  0.3809 -0.7811 -1.0744
16324TIP3   OH270386   0.976   3.751  15.762 -1.0748  0.6759 -0.0450
16324TIP3    H170387   1.019   3.819  15.813  1.5357 -0.3459 -0.7146
16324TIP3    H270388   0.965   3.788  15.675  0.8140  0.1219 -0.5483
16325TIP3   OH270389   6.725   4.653   3.996  0.2227  0.2814 -0.7613
16325TIP3    H170390   6.760   4.703   3.922 -0.9626 -0.0970 -1.6064
16325TIP3    H270391   6.696   4.570   3.957 -0.7809  0.2403  0.0417
16326TIP3   OH270392   1.872   1.300  16.274 -0.0575  0.3901  0.4354
16326TIP3    H170393   1.960   1.269  16.254  0.3488  0.7784  1.5233
16326TIP3    H270394   1.828   1.307  16.189  0.8252 -0.1882 -0.0796
16327TIP3   OH270395   5.436   0.768  11.797 -0.3491 -0.1791 -0.3557
16327TIP3    H170396   5.378   0.824  11.847  1.0225  1.1614 -0.1941
16327TIP3    H270397   5.407   0.679  11.818 -2.8108  0.4149 -0.9159
16328TIP3   OH270398   3.194   5.157   0.856  0.4180 -0.1490 -0.2515
16328TIP3    H170399   3.147   5.079   0.887 -0.6391  1.5484  2.7921
16328TIP3    H270400   3.133   5.197   0.793 -0.5047 -0.0618  0.6694
16329TIP3   OH270401   1.037   0.984   4.479  0.0077 -0.4550  0.4030
16329TIP3    H170402   0.965   0.969   4.418  0.6325  0.2821 -0.5608
16329TIP3    H270403   1.097   0.911   4.465  1.3146  0.8849 -1.6858
16330TIP3   OH270404   4.286   4.265  13.150  0.3755  0.2703  0.2630
16330TIP3    H170405   4.374   4.276  13.187  0.4644  0.6467 -0.0574
16330TIP3    H270406   4.296   4.284  13.057 -0.0534  0.3425  0.2283
16331TIP3   OH270407   1.137   0.181  15.844  0.3848 -0.8919  0.4158
16331TIP3    H170408   1.195   0.249  15.880 -1.3212  0.0866  1.4966
16331TIP3    H270409   1.075   0.163  15.916 -1.8783 -0.3847 -1.2887
16332TIP3   OH270410   2.507   4.131  11.046  0.1025 -0.4201 -0.4934
16332TIP3    H170411   2.472   4.103  10.961 -2.1457  0.5468  0.0461
16332TIP3    H270412   2.530   4.223  11.032 -1.0409 -0.0277  0.1409
16333TIP3   OH270413   5.212   4.638  14.909 -0.3794 -0.3468  0.2814
16333TIP3    H170414   5.302   4.640  14.875 -0.7530 -1.0567 -0.8233
16333TIP3    H270415   5.213   4.699  14.982  0.3005  1.8592 -1.4484
16334TIP3   OH270416   6.123   6.474   4.507  0.6773 -0.0330 -0.0464
16334TIP3    H170417   6.085   6.502   4.590 -1.5437 -0.1084 -0.9669
16334TIP3    H270418   6.169   6.393   4.528 -2.4965 -1.8290  0.6473
16335TIP3   OH270419   3.136   1.534  10.684 -0.0511  0.3511 -0.0107
16335TIP3    H170420   3.045   1.504  10.681 -0.4260  1.5338 -1.7386
16335TIP3    H270421   3.175   1.502  10.603  1.0177  0.1121  0.5706
16336TIP3   OH270422   4.996   3.772  10.946 -0.4451 -0.1233 -0.3348
16336TIP3    H170423   4.953   3.705  10.998 -1.4283  0.2328 -0.6611
16336TIP3    H270424   4.950   3.772  10.862 -1.4243  1.8735  0.1242
16337TIP3   OH270425   5.638   2.148   0.655  0.9409 -0.6881  0.1436
16337TIP3    H170426   5.585   2.069   0.642  1.9082 -1.5742  1.2823
16337TIP3    H270427   5.616   2.204   0.581 -0.9518 -1.3571  0.1442
16338TIP3   OH270428   6.037   1.807   5.629  0.1250 -0.0869  0.7061
16338TIP3    H170429   6.066   1.717   5.611  0.2063 -0.3804  2.1530
16338TIP3    H270430   5.953   1.796   5.672  0.6666  0.4545  1.9474
16339TIP3   OH270431   5.218   5.402   3.191 -0.5835 -0.5301  0.2354
16339TIP3    H170432   5.200   5.478   3.245 -3.6623 -1.2236  0.3621
16339TIP3    H270433   5.224   5.436   3.102  0.5414  0.1112  0.5379
16340TIP3   OH270434   0.776   6.789  15.761  0.5759  0.0562 -0.2451
16340TIP3    H170435   0.754   6.709  15.808  0.9565  0.1594  0.1111
16340TIP3    H270436   0.699   6.806  15.706  0.9961 -1.2403 -1.2888
16341TIP3   OH270437   5.213   0.541  15.286 -0.4087  0.0622 -0.7036
16341TIP3    H170438   5.274   0.467  15.294  0.6813  0.7069 -2.3804
16341TIP3    H270439   5.128   0.504  15.309  0.2262 -1.5242 -0.7346
16342TIP3   OH270440   3.286   1.833  13.205 -0.4059  0.3448  0.3196
16342TIP3    H170441   3.325   1.771  13.143 -0.1616  1.1247 -0.3254
16342TIP3    H270442   3.335   1.914  13.192 -0.0289  0.3959  1.8861
16343TIP3   OH270443   4.631   6.613   5.364 -0.4724  0.3535 -0.4070
16343TIP3    H170444   4.644   6.670   5.440  0.0001 -2.2945  1.6481
16343TIP3    H270445   4.713   6.564   5.358 -1.3027 -0.9804 -1.2745
16344TIP3   OH270446   4.673   2.781  16.448  0.0397  0.4973 -0.1081
16344TIP3    H170447   4.767   2.775  16.435  0.3026  0.8770  1.4657
16344TIP3    H270448   4.661   2.856  16.505 -1.0731 -0.4702  0.9853
16345TIP3   OH270449   6.535   4.849  14.686  0.2880 -0.5505  0.0868
16345TIP3    H170450   6.468   4.782  14.699  0.5653 -0.9355 -0.4532
16345TIP3    H270451   6.537   4.864  14.592  0.8944 -0.4805  0.1033
16346TIP3   OH270452   3.373   6.811   5.053  0.4286  0.4440  0.0238
16346TIP3    H170453   3.432   6.778   4.986  2.6064 -0.7465  2.3465
16346TIP3    H270454   3.309   6.865   5.006  1.3593 -0.9358 -3.0126
16347TIP3   OH270455   6.776   3.646  13.980  0.2424  0.3553  0.3220
16347TIP3    H170456   6.765   3.609  13.892  2.0019 -0.8698  0.5479
16347TIP3    H270457   6.729   3.585  14.037  0.0841  0.5041  0.3513
16348TIP3   OH270458   0.543   0.895   5.542 -0.5971  0.2314  0.3803
16348TIP3    H170459   0.593   0.868   5.618 -0.9508 -0.1462  0.4869
16348TIP3    H270460   0.497   0.815   5.514  2.1864 -0.5899 -2.3473
16349TIP3   OH270461   1.617   1.862  15.634 -0.2457 -0.2413  0.0583
16349TIP3    H170462   1.623   1.860  15.538  1.1935 -0.1644  0.1254
16349TIP3    H270463   1.529   1.830  15.653  0.1426 -2.2840 -1.2134
16350TIP3   OH270464   6.045   1.900   3.290 -0.0307  0.2748 -0.0334
16350TIP3    H170465   6.055   1.852   3.372  0.3308  1.8181  0.8617
16350TIP3    H270466   5.987   1.845   3.237  0.3715 -1.1400  0.9205
16351TIP3   OH270467   5.438   6.572   2.176 -0.6737  0.0233 -0.7153
16351TIP3    H170468   5.504   6.613   2.120 -1.3846  0.9443 -0.8866
16351TIP3    H270469   5.463   6.598   2.265 -0.1747 -0.5455 -0.6816
16352TIP3   OH270470   2.079   0.444  12.435  0.0244 -0.0024 -0.1154
16352TIP3    H170471   2.082   0.452  12.530  0.4281  0.6368 -0.1799
16352TIP3    H270472   1.992   0.408  12.417 -0.9236  1.9318  0.3682
16353TIP3   OH270473   1.200   0.252  11.647  0.0276 -0.0717  0.4642
16353TIP3    H170474   1.120   0.200  11.640  0.0560 -0.0826  0.2002
16353TIP3    H270475   1.270   0.192  11.620  0.3255 -0.5510  2.2042
16354TIP3   OH270476   0.939   3.067  11.580  0.5535  0.5365  0.3493
16354TIP3    H170477   0.919   3.160  11.578 -1.0622  0.2254  0.6773
16354TIP3    H270478   0.966   3.049  11.670  0.8708  0.6735  0.2842
16355TIP3   OH270479   3.736   0.132  13.502  0.3074  0.0956  0.3413
16355TIP3    H170480   3.690   0.216  13.503 -0.2676 -0.2045 -0.0544
16355TIP3    H270481   3.666   0.067  13.494  0.8449 -0.3147 -1.6584
16356TIP3   OH270482   6.629   5.502   6.609  0.0417  0.3166 -0.1684
16356TIP3    H170483   6.640   5.434   6.676 -1.2181  1.2769  1.0524
16356TIP3    H270484   6.537   5.497   6.584 -0.3923  2.3518  0.8412
16357TIP3   OH270485   6.707   2.429  13.381  0.2131 -0.3594  0.2200
16357TIP3    H170486   6.666   2.515  13.379  1.8702  0.5642  2.0216
16357TIP3    H270487   6.740   2.415  13.293  2.2339  2.0994  0.4967
16358TIP3   OH270488   1.613   4.322  14.263  0.5607  0.2544  0.0500
16358TIP3    H170489   1.520   4.300  14.260  0.7731 -0.6978  0.3249
16358TIP3    H270490   1.625   4.385  14.192 -0.5736  1.4892  0.9197
16359TIP3   OH270491   0.978   1.220   3.097 -0.7324  0.1656  0.2485
16359TIP3    H170492   0.959   1.312   3.076 -0.3849  0.2488  0.2799
16359TIP3    H270493   0.912   1.170   3.049 -0.4996  0.4001 -0.3365
16360TIP3   OH270494   2.334   5.320   3.991  0.5629 -0.5617 -0.6140
16360TIP3    H170495   2.271   5.385   3.960  2.5489  0.8912 -1.7872
16360TIP3    H270496   2.371   5.281   3.912  1.2150 -1.3251  0.0412
16361TIP3   OH270497   0.081   3.031  13.360  0.1751 -0.4506 -0.1654
16361TIP3    H170498   0.142   3.014  13.288 -1.4833  0.4238 -1.8749
16361TIP3    H270499  -0.004   3.003  13.326 -0.6473 -0.0670  1.4992
16362TIP3   OH270500   5.567   3.653   5.761 -0.1155  0.1303  0.5936
16362TIP3    H170501   5.583   3.747   5.769  0.5072 -0.0251  1.3252
16362TIP3    H270502   5.472   3.645   5.765 -0.1197  0.5973  2.4787
16363TIP3   OH270503   1.508   3.068   4.054 -0.2537  0.3850 -0.0140
16363TIP3    H170504   1.529   3.156   4.023  1.9504  0.2026  0.8015
16363TIP3    H270505   1.416   3.056   4.030 -0.1952  2.3189 -1.4813
16364TIP3   OH270506   4.869   3.453  10.405  0.3061 -0.0357  0.5031
16364TIP3    H170507   4.936   3.501  10.455  1.5351 -0.7908 -0.3535
16364TIP3    H270508   4.787   3.471  10.451  1.2946 -0.1878  2.4205
16365TIP3   OH270509   5.503   1.984  11.734 -0.3134 -0.1979 -0.0306
16365TIP3    H170510   5.419   1.938  11.739 -1.3757  1.6655  0.5604
16365TIP3    H270511   5.494   2.041  11.658 -0.8444  2.1870  1.6861
16366TIP3   OH270512   6.700   2.393  16.887  0.2531  0.1492  0.7031
16366TIP3    H170513   6.789   2.363  16.907  0.4202 -0.8596 -1.3517
16366TIP3    H270514   6.702   2.487  16.905  1.7260  0.1291  0.7631
16367TIP3   OH270515   2.772   5.255  16.738 -0.0448 -0.7044  0.5724
16367TIP3    H170516   2.836   5.256  16.809  0.9732  1.3641 -0.2904
16367TIP3    H270517   2.800   5.184  16.681  1.4387  0.0679  0.2967
16368TIP3   OH270518   2.806   1.914  15.909  0.8870 -0.0080  0.5947
16368TIP3    H170519   2.893   1.928  15.869  1.1063 -0.8945  0.7510
16368TIP3    H270520   2.822   1.853  15.981 -0.0875 -1.3189 -0.2607
16369TIP3   OH270521   5.719   3.267   0.373 -0.4927 -0.2887 -0.2542
16369TIP3    H170522   5.699   3.253   0.466  2.5612 -1.4931  0.3334
16369TIP3    H270523   5.813   3.252   0.366 -0.5066  0.4153 -3.4695
16370TIP3   OH270524   1.534   4.824   4.235  0.2567 -0.1232  0.2825
16370TIP3    H170525   1.573   4.834   4.321 -1.3446  0.4791  0.9764
16370TIP3    H270526   1.452   4.873   4.239  0.6910  0.9326 -1.9647
16371TIP3   OH270527   6.447   6.178   5.997 -0.1223  0.4970 -0.8647
16371TIP3    H170528   6.469   6.270   6.008  0.8850  0.2845 -0.9747
16371TIP3    H270529   6.368   6.178   5.943 -1.1865  1.3348  0.6166
16372TIP3   OH270530   5.232   2.929   4.206  0.2834 -0.1415  0.0897
16372TIP3    H170531   5.235   2.991   4.134 -1.0443 -1.3628 -1.1091
16372TIP3    H270532   5.270   2.849   4.169  1.3043 -0.2564  1.3610
16373TIP3   OH270533   5.826   3.547  13.070 -0.2742  0.0684  0.1079
16373TIP3    H170534   5.858   3.623  13.022 -0.4281 -0.3821 -0.7423
16373TIP3    H270535   5.821   3.477  13.004  0.1134 -0.7533  0.9177
16374TIP3   OH270536   2.748   6.297   1.475 -0.2501 -0.4655  0.6830
16374TIP3    H170537   2.816   6.331   1.417 -0.1643 -0.6605  0.6692
16374TIP3    H270538   2.686   6.369   1.484 -1.6813 -1.2946 -1.7819
16375TIP3   OH270539   2.674   4.078   4.005 -0.2060 -0.0270 -0.0214
16375TIP3    H170540   2.752   4.092   3.952 -0.4510 -2.2007 -1.0361
16375TIP3    H270541   2.625   4.161   3.998  0.5585  0.3080 -1.8512
16376TIP3   OH270542   0.937   5.102  15.378 -0.3716 -0.1557 -0.4431
16376TIP3    H170543   0.842   5.089  15.370 -0.2749 -0.4668 -1.0970
16376TIP3    H270544   0.953   5.097  15.472 -0.7388 -2.0243 -0.4344
16377TIP3   OH270545   2.948   1.447   3.814  0.6918  0.6746  1.0396
16377TIP3    H170546   2.869   1.492   3.844 -1.5567 -2.4100  0.3049
16377TIP3    H270547   2.959   1.476   3.723 -1.8861 -1.4183 -0.0817
16378TIP3   OH270548   4.866   4.074   2.287  0.3157  0.7357  0.2967
16378TIP3    H170549   4.867   4.080   2.383 -1.3546  2.1293  0.2730
16378TIP3    H270550   4.925   4.143   2.258 -0.2627  1.2623  0.3358
16379TIP3   OH270551   0.539   0.021   3.960  0.3098 -0.4378  0.4927
16379TIP3    H170552   0.612   0.007   4.020  0.4128  0.5295  0.6048
16379TIP3    H270553   0.497   0.101   3.991  0.6673  0.3680 -1.0215
16380TIP3   OH270554   4.039   2.161  10.883  0.2752  0.0320  0.3812
16380TIP3    H170555   4.109   2.221  10.858 -0.5871  0.8332 -0.1844
16380TIP3    H270556   4.023   2.179  10.975 -0.2315  0.9581  0.1211
16381TIP3   OH270557   0.657   1.674  11.261 -0.1878  0.5263 -0.6221
16381TIP3    H170558   0.639   1.640  11.348 -0.6946 -1.3346 -1.3920
16381TIP3    H270559   0.737   1.628  11.234  1.7265  3.2882 -0.0544
16382TIP3   OH270560   2.240   2.472   1.362 -0.2633 -0.1086 -0.0048
16382TIP3    H170561   2.306   2.496   1.427 -0.6518 -1.5917  0.9899
16382TIP3    H270562   2.271   2.510   1.280  1.3677 -0.0386  0.6215
16383TIP3   OH270563   2.891   2.612  12.967  0.0574 -0.3734  0.5719
16383TIP3    H170564   2.808   2.587  13.008 -0.5751 -1.2581 -1.1461
16383TIP3    H270565   2.885   2.707  12.956 -0.7334 -0.4257  0.5019
16384TIP3   OH270566   6.218   6.149  15.130  0.8127 -0.2884 -0.4901
16384TIP3    H170567   6.125   6.129  15.122 -0.2378  2.8711  1.7030
16384TIP3    H270568   6.248   6.162  15.040 -1.2710  0.0555 -1.1903
16385TIP3   OH270569   5.329   5.080   0.158 -0.9584 -0.1891 -0.1000
16385TIP3    H170570   5.403   5.095   0.098  0.7896  1.5893  2.2855
16385TIP3    H270571   5.366   5.024   0.227 -1.4069  1.6449  1.7309
16386TIP3   OH270572   1.147   3.162   4.544 -0.2147 -0.2243  0.9624
16386TIP3    H170573   1.102   3.078   4.557  0.1130 -0.4053  0.9338
16386TIP3    H270574   1.119   3.190   4.457  0.0398 -0.5342  0.7780
16387TIP3   OH270575   0.769   5.841   1.412 -0.1777  0.0388 -0.3232
16387TIP3    H170576   0.692   5.866   1.463 -0.3623 -0.0028 -0.5797
16387TIP3    H270577   0.843   5.863   1.469 -0.2127  3.0069 -1.2289
16388TIP3   OH270578   2.820   5.902   5.467  0.2810  0.9162  0.0038
16388TIP3    H170579   2.745   5.904   5.527  0.5111 -0.9706  0.3997
16388TIP3    H270580   2.787   5.943   5.387 -1.2444 -0.0119  0.1185
16389TIP3   OH270581   2.952   6.766  14.198  0.9191  0.3607  0.4941
16389TIP3    H170582   3.007   6.761  14.119  1.8049 -0.7090  1.1497
16389TIP3    H270583   2.907   6.682  14.201 -1.3357  1.4510 -0.3808
16390TIP3   OH270584   2.118   2.067  16.845 -0.1081  0.0499 -0.2014
16390TIP3    H170585   2.081   2.110  16.768 -0.0842 -0.5979 -0.5850
16390TIP3    H270586   2.087   2.119  16.919  0.2689  0.9595 -0.6769
16391TIP3   OH270587   5.016   1.934  10.587 -0.2168 -0.4335  0.2148
16391TIP3    H170588   5.044   1.875  10.657  2.4053 -1.9164 -1.8767
16391TIP3    H270589   5.089   1.996  10.577 -1.2994  0.8473 -0.1318
16392TIP3   OH270590   2.606   1.141   1.492  0.0020 -0.7419  0.2589
16392TIP3    H170591   2.549   1.153   1.568  0.8522 -0.2613  0.8318
16392TIP3    H270592   2.672   1.210   1.500  0.3654 -0.9642 -0.6764
16393TIP3   OH270593   1.184   6.075   3.322 -0.5056 -0.5561 -0.2175
16393TIP3    H170594   1.199   6.017   3.396  0.4485  1.9406  1.6795
16393TIP3    H270595   1.269   6.115   3.304 -1.2918  0.9664 -0.7980
16394TIP3   OH270596   2.988   1.223  11.890  0.1183  0.1278  0.5555
16394TIP3    H170597   2.972   1.226  11.795 -2.5980  0.1254  0.9335
16394TIP3    H270598   3.072   1.268  11.901  0.2814  0.5698 -1.7928
16395TIP3   OH270599   0.995   0.600  14.471  0.3210 -0.4310  0.1134
16395TIP3    H170600   1.051   0.538  14.517  0.0112 -1.7540 -1.2006
16395TIP3    H270601   0.932   0.630  14.536  1.6734  0.0232  1.2624
16396TIP3   OH270602   3.393   5.885  14.647 -0.1420 -0.1725 -0.3540
16396TIP3    H170603   3.316   5.901  14.592 -0.8921 -0.7920  0.4871
16396TIP3    H270604   3.440   5.968  14.648  0.1772 -0.2766 -2.3509
16397TIP3   OH270605   5.138   2.294  14.371 -0.3968  0.3635 -0.0335
16397TIP3    H170606   5.124   2.319  14.462 -0.6441 -0.4154  0.1511
16397TIP3    H270607   5.217   2.341  14.345  1.2438 -1.4415  1.4166
16398TIP3   OH270608   4.705   6.233  13.286  0.0516 -0.5580 -0.2354
16398TIP3    H170609   4.691   6.138  13.285  1.0689 -0.7173 -1.1090
16398TIP3    H270610   4.683   6.261  13.197 -0.3182  0.0461  0.0416
16399TIP3   OH270611   6.045   1.487   2.188 -0.1842 -0.2936 -0.3002
16399TIP3    H170612   6.058   1.528   2.273  2.0307  1.0871 -1.1986
16399TIP3    H270613   6.130   1.496   2.144 -0.6753 -2.7239 -1.9273
16400TIP3   OH270614   4.650   2.331  15.309 -0.9397 -0.3685 -0.1333
16400TIP3    H170615   4.626   2.238  15.312  1.2112 -0.9741 -0.3233
16400TIP3    H270616   4.745   2.331  15.297 -0.7541  1.8727  0.8996
16401TIP3   OH270617   3.235   5.373  16.028  0.3826  0.4819 -0.4386
16401TIP3    H170618   3.324   5.400  16.054  1.3119 -1.9382 -0.8418
16401TIP3    H270619   3.192   5.351  16.111  0.8289 -0.1985 -0.3831
16402TIP3   OH270620   2.163   6.448   5.396  0.4831  1.0283  0.0664
16402TIP3    H170621   2.158   6.420   5.488 -0.2749  0.2491 -0.1971
16402TIP3    H270622   2.234   6.513   5.395  1.3781  0.1197  0.9664
16403TIP3   OH270623   3.810   0.144   3.569  0.2796  0.3118 -0.6865
16403TIP3    H170624   3.777   0.075   3.511  1.3390 -0.1116 -0.8044
16403TIP3    H270625   3.731   0.185   3.605 -0.3744 -0.9139 -0.6691
16404TIP3   OH270626   0.356   5.625  14.638 -0.2865 -0.3542  0.4497
16404TIP3    H170627   0.287   5.602  14.575 -0.1851  2.0235 -0.6434
16404TIP3    H270628   0.432   5.575  14.608 -0.4470  0.1566 -0.8886
16405TIP3   OH270629   0.200   1.188   1.411 -0.1925 -1.0724 -0.5513
16405TIP3    H170630   0.286   1.186   1.370  0.7442  0.9020  1.1406
16405TIP3    H270631   0.188   1.279   1.439 -2.5367 -1.4369 -0.1148
16406TIP3   OH270632   3.381   6.121  13.311 -0.1022 -0.2018 -0.4626
16406TIP3    H170633   3.464   6.084  13.279  1.3886  0.1176  2.7149
16406TIP3    H270634   3.394   6.131  13.405 -2.9817  2.0168 -0.1898
16407TIP3   OH270635   4.911   5.974  16.061 -0.1096  0.4867 -0.3744
16407TIP3    H170636   5.003   5.974  16.090  0.0401 -0.6441 -0.7792
16407TIP3    H270637   4.868   6.038  16.118  0.7743  0.4506  0.3669
16408TIP3   OH270638   5.417   5.341   6.054  0.1648 -0.0694  0.8342
16408TIP3    H170639   5.339   5.386   6.087 -0.3262 -0.2426 -0.0522
16408TIP3    H270640   5.390   5.306   5.969  1.0629 -0.5632  0.7413
16409TIP3   OH270641   5.979   3.090  14.752 -0.3361  0.9783  0.0479
16409TIP3    H170642   5.981   3.012  14.696 -1.2717 -0.6091  2.1220
16409TIP3    H270643   5.914   3.147  14.710 -0.3455  0.2481 -0.9777
16410TIP3   OH270644   1.986   3.978   0.863  0.8338  0.1733 -0.3826
16410TIP3    H170645   2.046   3.919   0.908 -0.6736 -0.7918  0.4794
16410TIP3    H270646   1.995   4.061   0.908  0.6732 -0.2880  0.5251
16411TIP3   OH270647   4.938   5.714  16.139  0.3717  0.4560  0.0034
16411TIP3    H170648   5.001   5.684  16.074 -0.4119  0.1614 -0.6416
16411TIP3    H270649   4.929   5.808  16.124  0.9123  0.5618  0.3286
16412TIP3   OH270650   5.083   5.757  12.017  0.0114 -0.2083 -0.2969
16412TIP3    H170651   5.134   5.681  12.046 -0.5624 -0.6429 -0.3839
16412TIP3    H270652   5.125   5.832  12.057 -0.9263 -0.8071  1.9434
16413TIP3   OH270653   1.016   0.089   5.782 -0.2598 -0.2037 -0.6670
16413TIP3    H170654   1.045   0.014   5.834  1.7064  1.6417  1.0735
16413TIP3    H270655   1.043   0.068   5.692  0.0170 -1.6672 -0.2610
16414TIP3   OH270656   5.868   3.943   3.343 -0.4229 -0.1335  0.2940
16414TIP3    H170657   5.803   3.877   3.321  0.8222 -1.9823  1.8488
16414TIP3    H270658   5.853   3.962   3.436  1.4038 -0.8695  0.7887
16415TIP3   OH270659   6.744   0.589  15.051 -0.7282 -0.0515  0.2742
16415TIP3    H170660   6.802   0.524  15.090  1.0955  0.7687 -0.9441
16415TIP3    H270661   6.726   0.651  15.122  1.2311  0.5418  0.3162
16416TIP3   OH270662   2.288   5.607   4.550 -0.0128  0.5014  0.4196
16416TIP3    H170663   2.275   5.531   4.607 -0.1614  1.2775  1.4528
16416TIP3    H270664   2.216   5.601   4.487  0.1474 -0.3720  0.3002
16417TIP3   OH270665   1.132   1.164  11.259 -0.1813 -0.2548  0.2646
16417TIP3    H170666   1.101   1.218  11.186 -1.8871  1.4608  2.1241
16417TIP3    H270667   1.215   1.205  11.285 -0.5694  0.4083  0.5103
16418TIP3   OH270668   3.465   0.744   0.182 -0.0195 -0.4129  0.5286
16418TIP3    H170669   3.441   0.817   0.239 -0.9163 -1.4413  1.5056
16418TIP3    H270670   3.382   0.707   0.153  0.4259 -0.7297 -0.3939
16419TIP3   OH270671   5.186   2.353  11.015 -0.3425  0.2610 -0.3850
16419TIP3    H170672   5.245   2.311  10.952 -0.4474  0.0264 -0.3310
16419TIP3    H270673   5.216   2.443  11.020 -0.4434  0.3279 -0.9065
16420TIP3   OH270674   5.774   0.529   4.451  0.2100 -0.0913  0.0861
16420TIP3    H170675   5.685   0.559   4.466 -0.3178 -0.7991 -1.4046
16420TIP3    H270676   5.799   0.485   4.532 -0.6520  0.4160  0.6437
16421TIP3   OH270677   3.565   0.745  13.374 -0.6932  0.1535 -0.0969
16421TIP3    H170678   3.579   0.778  13.285 -0.0068 -0.6388 -0.2887
16421TIP3    H270679   3.603   0.657  13.373  0.0100  0.4228  1.1911
16422TIP3   OH270680   6.236   2.908  13.558  0.4935  0.3683  0.0265
16422TIP3    H170681   6.219   2.972  13.489 -1.0384  1.2218  1.1539
16422TIP3    H270682   6.327   2.925  13.584  0.3576  1.5503 -0.2201
16423TIP3   OH270683   1.391   2.997   0.810  0.1068 -0.1292  0.0538
16423TIP3    H170684   1.483   3.014   0.828 -0.1365  2.0444 -0.4710
16423TIP3    H270685   1.347   3.013   0.894 -0.0156  1.1684 -0.2285
16424TIP3   OH270686   3.801   6.810   3.332 -0.4914  0.1435  0.4199
16424TIP3    H170687   3.806   6.745   3.262 -1.4873  1.7849 -1.2824
16424TIP3    H270688   3.771   6.890   3.288 -0.2117  1.5174  2.5737
16425TIP3   OH270689   3.538   4.457  15.136 -0.1060 -0.0466  0.2877
16425TIP3    H170690   3.459   4.502  15.163  0.0357  0.3566  0.0317
16425TIP3    H270691   3.609   4.505  15.178 -0.0388 -0.9439  1.2590
16426TIP3   OH270692   4.282   1.089  11.333 -0.0702 -0.4223  0.0404
16426TIP3    H170693   4.202   1.122  11.292  0.1693 -0.7679 -0.7359
16426TIP3    H270694   4.285   0.996  11.309  0.2278 -0.5657  0.6134
16427TIP3   OH270695   5.735   2.401   3.815  0.1393 -0.7493 -0.1145
16427TIP3    H170696   5.772   2.317   3.843  1.1311 -0.5060 -0.6484
16427TIP3    H270697   5.717   2.389   3.722  2.8331  0.4414 -0.8955
16428TIP3   OH270698   1.747   5.167  11.879 -0.0035  0.3161  0.1103
16428TIP3    H170699   1.817   5.146  11.941  0.5109 -0.1803 -0.6214
16428TIP3    H270700   1.732   5.261  11.891 -1.3119 -0.1225  2.4045
16429TIP3   OH270701   3.707   1.748   1.395  0.0806  0.5975  0.4317
16429TIP3    H170702   3.783   1.690   1.401  0.7178  1.4415  0.6890
16429TIP3    H270703   3.673   1.753   1.484 -0.0485  0.5301  0.3872
16430TIP3   OH270704   6.569   4.642  15.432 -0.1130 -0.2902 -0.3425
16430TIP3    H170705   6.627   4.566  15.434  0.1032 -0.1608 -1.4299
16430TIP3    H270706   6.605   4.701  15.499 -1.1021 -1.6926  1.5302
16431TIP3   OH270707   1.865   3.612  13.533 -0.3400 -0.2211  0.2383
16431TIP3    H170708   1.783   3.591  13.577 -1.5058  1.6781 -0.8680
16431TIP3    H270709   1.842   3.614  13.440  1.6531 -2.4185 -0.4052
16432TIP3   OH270710   5.475   5.092   4.023 -0.2870 -0.1152  0.4603
16432TIP3    H170711   5.433   5.100   4.108 -0.7739 -0.0582  0.2187
16432TIP3    H270712   5.446   5.007   3.989 -0.0447 -0.1666  0.3734
16433TIP3   OH270713   0.469   6.003   1.576  0.0406 -0.0565  0.1085
16433TIP3    H170714   0.410   6.066   1.536  0.7046  0.8112  0.4479
16433TIP3    H270715   0.421   5.921   1.576 -1.4221  0.7647  1.0036
16434TIP3   OH270716   4.687   1.992  10.788  0.4378 -0.3107 -0.0383
16434TIP3    H170717   4.665   1.900  10.802  1.6689 -0.2548  3.0933
16434TIP3    H270718   4.767   2.006  10.838 -1.1743  3.0505  1.9913
16435TIP3   OH270719   3.405   2.309   4.375  0.2861 -0.2695  0.0956
16435TIP3    H170720   3.328   2.365   4.374 -0.2626 -1.0121  0.1770
16435TIP3    H270721   3.406   2.272   4.463  0.3692 -0.7599 -0.1082
16436TIP3   OH270722   6.168   4.759   4.543  0.5038  0.1988 -0.2571
16436TIP3    H170723   6.222   4.776   4.466  0.7116  2.5631  0.3103
16436TIP3    H270724   6.154   4.846   4.581 -1.3632 -0.6673  1.1890
16437TIP3   OH270725   0.570   3.732   2.444  0.5388 -0.3219 -0.3996
16437TIP3    H170726   0.639   3.799   2.441  0.0787  0.1235 -1.6395
16437TIP3    H270727   0.516   3.757   2.519  1.4141 -0.3824  0.2765
16438TIP3   OH270728   1.563   6.076   4.367 -0.0405 -0.4906  0.0253
16438TIP3    H170729   1.581   6.144   4.301 -1.6356 -1.1702 -1.1764
16438TIP3    H270730   1.520   6.123   4.439  2.2922  0.3719  0.9641
16439TIP3   OH270731   1.896   5.618  11.468 -0.4162 -0.9285  1.0340
16439TIP3    H170732   1.852   5.702  11.482  1.7199  0.6401 -0.8694
16439TIP3    H270733   1.857   5.585  11.387 -0.1445 -0.9788  0.9242
16440TIP3   OH270734   3.638   5.915   1.933  0.5038  0.9397  0.2266
16440TIP3    H170735   3.627   5.862   1.854  1.4402 -0.5963  1.0730
16440TIP3    H270736   3.566   5.888   1.990  1.2365  0.2174  0.8328
16441TIP3   OH270737   4.411   2.162  13.028  0.2278 -0.4777 -0.6454
16441TIP3    H170738   4.384   2.156  13.120  0.3123  0.3000 -0.5682
16441TIP3    H270739   4.371   2.085  12.987 -0.9245 -0.1136 -0.2410
16442TIP3   OH270740   1.930   1.905   1.817 -0.1715 -0.4346 -0.1137
16442TIP3    H170741   1.879   1.960   1.877 -0.3657  0.6868 -1.2517
16442TIP3    H270742   1.927   1.953   1.734 -1.7771 -2.9896 -1.6563
16443TIP3   OH270743   4.268   2.418  11.159 -0.2945  0.5003 -0.3416
16443TIP3    H170744   4.183   2.405  11.201 -0.1483  1.4151  0.2589
16443TIP3    H270745   4.319   2.340  11.182 -1.3462 -0.6403 -1.7005
16444TIP3   OH270746   4.620   0.335   5.859 -0.1948  0.8601  0.2064
16444TIP3    H170747   4.670   0.253   5.856  0.1442  1.0826 -0.7720
16444TIP3    H270748   4.549   0.318   5.920  1.9084  1.0093  2.9064
16445TIP3   OH270749   5.641   4.946   3.769 -0.1860 -0.1385  0.2162
16445TIP3    H170750   5.661   5.011   3.702 -1.4057  0.5051  0.4485
16445TIP3    H270751   5.600   4.996   3.840  1.1071 -0.8005  1.4705
16446TIP3   OH270752   2.430   6.482   4.865 -0.2066 -0.0354  0.7543
16446TIP3    H170753   2.496   6.413   4.872 -0.2982 -0.1974  0.0644
16446TIP3    H270754   2.383   6.463   4.783  0.0097  1.0575  0.3579
16447TIP3   OH270755   0.701   6.660   1.666 -0.0283 -0.1476  0.1539
16447TIP3    H170756   0.647   6.698   1.596  0.8932  0.5081 -0.2154
16447TIP3    H270757   0.774   6.721   1.675 -0.1899 -0.1576  1.7902
16448TIP3   OH270758   5.617   1.338  13.659  0.6892 -0.6326  0.2551
16448TIP3    H170759   5.586   1.262  13.708  1.1377 -0.7306  0.3842
16448TIP3    H270760   5.693   1.307  13.611  1.7511  0.0805  1.4202
16449TIP3   OH270761   3.077   4.867   4.146 -0.6580 -0.0665 -0.6642
16449TIP3    H170762   3.013   4.798   4.159  1.1491 -1.5497  0.9807
16449TIP3    H270763   3.143   4.828   4.088 -0.1015  0.6053 -0.5069
16450TIP3   OH270764   3.321   2.993  13.600  0.0635  0.3482 -0.3421
16450TIP3    H170765   3.310   3.082  13.566 -2.0972  0.0177 -0.6006
16450TIP3    H270766   3.281   2.936  13.534  0.8114 -0.7756  0.1413
16451TIP3   OH270767   0.882   4.128  12.400  0.0958 -0.0156  0.1069
16451TIP3    H170768   0.950   4.167  12.345  0.5559  0.6130  1.0889
16451TIP3    H270769   0.917   4.133  12.489 -2.0712  2.2788  0.9476
16452TIP3   OH270770   1.002   2.063  15.541  0.7027 -0.1721  0.4690
16452TIP3    H170771   0.990   2.006  15.465 -2.3746 -1.1296  1.4929
16452TIP3    H270772   1.002   2.151  15.505  2.8935 -0.6470 -0.8997
16453TIP3   OH270773   1.826   0.592   3.412  0.4640 -0.1043  0.0260
16453TIP3    H170774   1.829   0.544   3.330  1.3545 -0.6265  0.3561
16453TIP3    H270775   1.895   0.554   3.466  1.4968  1.8250  0.1501
16454TIP3   OH270776   4.912   4.705  15.966  0.1241 -0.7188 -0.3627
16454TIP3    H170777   4.847   4.694  15.896 -1.8007  0.0459  1.1824
16454TIP3    H270778   4.946   4.793  15.953 -0.7448 -0.3120  0.0363
16455TIP3   OH270779   0.430   6.123  11.564  0.1075 -0.6109  0.4180
16455TIP3    H170780   0.373   6.055  11.600 -0.2759 -0.5560 -0.0764
16455TIP3    H270781   0.482   6.079  11.498 -2.3564  0.1273 -2.2425
16456TIP3   OH270782   2.698   2.584   2.119  0.2548  0.4667 -0.6218
16456TIP3    H170783   2.668   2.668   2.154 -0.4512 -0.6300  1.5979
16456TIP3    H270784   2.641   2.569   2.043  0.0936  1.7806 -0.7877
16457TIP3   OH270785   0.994   4.673   3.472 -0.4910 -0.1602 -0.2329
16457TIP3    H170786   1.046   4.746   3.504  1.0691 -0.5640 -1.6885
16457TIP3    H270787   0.930   4.714   3.412 -1.0094  0.1995  0.5522
16458TIP3   OH270788   3.256   1.948   0.295 -0.6823 -0.4593 -0.9997
16458TIP3    H170789   3.242   1.885   0.365  0.3937  0.5787  0.2028
16458TIP3    H270790   3.170   1.961   0.256 -1.3520 -0.8933  0.2925
16459TIP3   OH270791   1.667   2.917  15.615  0.2717  0.6869  0.3655
16459TIP3    H170792   1.753   2.960  15.610  0.4077  0.3410 -0.3759
16459TIP3    H270793   1.632   2.922  15.526 -0.5384  0.9296  0.6861
16460TIP3   OH270794   3.385   1.659  14.392 -0.0992 -0.3302  0.0796
16460TIP3    H170795   3.385   1.754  14.405  2.1022 -0.4475  1.4287
16460TIP3    H270796   3.315   1.627  14.449  1.0117  0.2815  1.8494
16461TIP3   OH270797   5.619   6.632  15.026 -0.4726 -0.3299 -0.6456
16461TIP3    H170798   5.550   6.588  14.976 -0.2108 -2.5269  0.7963
16461TIP3    H270799   5.645   6.568  15.092 -1.1538  2.5109  2.6720
16462TIP3   OH270800   6.208   3.903  12.140 -0.2854 -0.5820 -0.2847
16462TIP3    H170801   6.201   3.813  12.171  2.1073 -1.2430 -1.4377
16462TIP3    H270802   6.254   3.949  12.210 -0.4168 -0.5573 -0.2146
16463TIP3   OH270803   5.022   4.162   3.625  0.1769 -0.6016 -0.7157
16463TIP3    H170804   4.993   4.117   3.704  2.1355 -0.7055 -0.0052
16463TIP3    H270805   4.989   4.108   3.553 -1.8612 -0.3625 -0.0176
16464TIP3   OH270806   2.209   1.260   4.216  0.4380  0.3109  0.0537
16464TIP3    H170807   2.225   1.190   4.280  1.8292  0.2393 -0.3521
16464TIP3    H270808   2.120   1.243   4.185  0.1247 -0.2662  1.2053
16465TIP3   OH270809   6.006   3.356   0.959 -0.9646 -0.2875 -0.0653
16465TIP3    H170810   6.013   3.450   0.975  0.7917 -0.1120 -1.5345
16465TIP3    H270811   6.089   3.320   0.989 -1.4967 -1.3304  0.1952
16466TIP3   OH270812   1.686   2.294  16.365 -0.2773  0.1660  0.0388
16466TIP3    H170813   1.675   2.205  16.331  1.1771 -0.2727  0.6630
16466TIP3    H270814   1.618   2.302  16.433  0.1411 -0.7846  0.5841
16467TIP3   OH270815   6.025   5.494  11.618 -0.2379 -0.2806  0.4472
16467TIP3    H170816   6.012   5.404  11.650 -1.3486  0.5598  2.5287
16467TIP3    H270817   6.115   5.494  11.585 -0.3996 -2.2914 -0.1463
16468TIP3   OH270818   2.108   6.544   5.021 -0.5319  0.6664  0.2801
16468TIP3    H170819   2.067   6.464   5.054 -0.3622  0.5358  0.1747
16468TIP3    H270820   2.190   6.551   5.070  0.3429 -0.2196 -1.0071
16469TIP3   OH270821   1.861   0.113   1.607 -0.5316  0.7944  0.0182
16469TIP3    H170822   1.852   0.207   1.598 -0.0729  0.7290 -1.3569
16469TIP3    H270823   1.771   0.080   1.607 -0.6628  1.0951 -1.4254
16470TIP3   OH270824   3.933   3.487  15.629  0.0400 -0.7311  0.1677
16470TIP3    H170825   3.998   3.556  15.641 -0.4059 -0.4906  1.3578
16470TIP3    H270826   3.854   3.533  15.600  0.4483 -1.0556 -1.5772
16471TIP3   OH270827   5.027   4.264   1.634  0.0163 -0.1823 -0.1352
16471TIP3    H170828   5.111   4.271   1.588  1.2366 -0.4144  1.9321
16471TIP3    H270829   4.966   4.315   1.580  0.8999 -1.7880 -2.8852
16472TIP3   OH270830   6.525   1.568   3.802 -0.0835  0.2607 -0.5076
16472TIP3    H170831   6.460   1.617   3.752 -0.6288  0.0685  0.0099
16472TIP3    H270832   6.581   1.634   3.842  0.8724  0.4186 -2.0194
16473TIP3   OH270833   1.749   1.993  15.835 -0.0314 -0.7247 -0.1721
16473TIP3    H170834   1.671   2.047  15.849  1.7992  2.0918  0.0607
16473TIP3    H270835   1.733   1.951  15.750 -2.5266 -1.7606  0.7040
16474TIP3   OH270836   0.026   4.220  10.327  0.7001 -0.1584 -0.5060
16474TIP3    H170837   0.017   4.298  10.272  1.9586 -0.3768 -1.0548
16474TIP3    H270838  -0.063   4.201  10.356  0.0678  0.2819 -2.0414
16475TIP3   OH270839   0.365   1.845   1.629  0.0056 -0.0981 -0.3636
16475TIP3    H170840   0.337   1.872   1.542  0.8062  0.9415 -0.3260
16475TIP3    H270841   0.325   1.909   1.688  1.3705  0.6564 -0.2051
16476TIP3   OH270842   4.247   3.674   2.970 -0.4166 -0.0648 -0.2658
16476TIP3    H170843   4.282   3.586   2.984  0.4286  0.1166 -1.1032
16476TIP3    H270844   4.164   3.676   3.019 -0.3747 -1.2727 -0.1292
16477TIP3   OH270845   4.035   2.594   2.633 -0.1864  0.5598 -0.2263
16477TIP3    H170846   4.121   2.633   2.622 -1.5416  3.0974 -3.8906
16477TIP3    H270847   3.994   2.644   2.703  1.2735 -0.9300  1.8316
16478TIP3   OH270848   4.438   0.542  15.464 -0.1527  0.5995 -0.0363
16478TIP3    H170849   4.531   0.561  15.481 -0.0868 -0.4942  0.9657
16478TIP3    H270850   4.402   0.625  15.435  1.1865  1.0044 -0.6373
16479TIP3   OH270851   2.893   2.361  13.542 -0.6575  0.0707 -0.5171
16479TIP3    H170852   2.887   2.415  13.621 -0.1502  1.2381 -1.2567
16479TIP3    H270853   2.866   2.274  13.571  0.0052  0.3587  1.0669
16480TIP3   OH270854   5.086   3.394   0.780 -0.4160  0.3283  0.8122
16480TIP3    H170855   5.063   3.344   0.858 -1.8186 -1.6413 -0.7899
16480TIP3    H270856   5.019   3.462   0.774 -0.8674 -0.1175  0.7972
16481TIP3   OH270857   5.872   1.278   3.866  0.0450  0.0597  0.0324
16481TIP3    H170858   5.953   1.262   3.818  0.2689 -0.6703  0.6580
16481TIP3    H270859   5.888   1.244   3.954  0.2434  2.8608  1.1975
16482TIP3   OH270860   4.042   1.239   1.458  0.1541 -0.2448  0.0038
16482TIP3    H170861   4.088   1.228   1.541  0.1962 -2.8076 -0.2888
16482TIP3    H270862   3.960   1.281   1.481 -0.1395 -1.5503  1.4925
16483TIP3   OH270863   1.487   3.140  13.251 -0.2039 -0.5479 -0.0926
16483TIP3    H170864   1.534   3.133  13.334 -0.4297  0.5082  0.1361
16483TIP3    H270865   1.461   3.232  13.245 -0.7049 -0.7334 -1.0560
16484TIP3   OH270866   1.864   4.679   0.167  0.1320 -0.2277 -0.0166
16484TIP3    H170867   1.920   4.736   0.114 -1.9305  1.2679 -0.7077
16484TIP3    H270868   1.822   4.621   0.105 -0.4057 -0.1527  0.2703
16485TIP3   OH270869   0.904   4.097   1.471  0.2806  0.0353 -0.1257
16485TIP3    H170870   0.831   4.084   1.412  0.4623  2.3952 -0.9984
16485TIP3    H270871   0.882   4.046   1.549 -0.6559 -1.9670 -1.6175
16486TIP3   OH270872   5.341   1.830   1.154 -0.3370 -0.2283  0.1301
16486TIP3    H170873   5.407   1.792   1.212 -0.3960  0.2813  0.5374
16486TIP3    H270874   5.390   1.860   1.078  0.0276  0.8697  0.7778
16487TIP3   OH270875   0.664   6.610  16.180 -0.3257 -0.3994  0.4985
16487TIP3    H170876   0.703   6.697  16.186 -0.2636 -0.3375 -0.6743
16487TIP3    H270877   0.721   6.555  16.233  0.3635  0.0265  0.2135
16488TIP3   OH270878   6.663   0.142  13.769  0.3205 -0.2409 -0.3839
16488TIP3    H170879   6.618   0.076  13.821  1.6244 -1.1690 -0.3895
16488TIP3    H270880   6.625   0.134  13.682 -1.0810  0.5563  0.1176
16489TIP3   OH270881   3.788   2.440   1.575  0.0416  0.0334 -0.0169
16489TIP3    H170882   3.735   2.519   1.567  0.9062  0.9019  2.1230
16489TIP3    H270883   3.864   2.457   1.519  0.3537  0.8787  0.6298
16490TIP3   OH270884   2.023   5.966   4.693 -0.1972 -0.2656 -0.3772
16490TIP3    H170885   1.964   5.910   4.744 -1.6572 -0.1436 -1.8129
16490TIP3    H270886   1.965   6.008   4.628  1.2374  1.1092 -0.8354
16491TIP3   OH270887   4.820   0.615  13.692  0.0872 -0.1683 -0.2028
16491TIP3    H170888   4.913   0.593  13.690  0.3703  1.0412 -1.2055
16491TIP3    H270889   4.809   0.667  13.771 -0.2709 -2.3688  1.2922
16492TIP3   OH270890   2.894   1.928  13.938  0.3059 -0.3458 -0.0098
16492TIP3    H170891   2.824   1.921  13.872  0.2048 -1.8858  0.2317
16492TIP3    H270892   2.900   2.022  13.956 -0.3186  0.0155 -1.5118
16493TIP3   OH270893   3.399   6.111   0.626 -0.3981 -0.7180  0.2754
16493TIP3    H170894   3.329   6.098   0.690  0.3312 -2.4021  0.7741
16493TIP3    H270895   3.436   6.024   0.612  1.5049  0.0968 -0.1004
16494TIP3   OH270896   5.514   5.793  10.901 -0.3252  0.2356 -0.3449
16494TIP3    H170897   5.437   5.778  10.956 -0.8739  1.0225 -0.8755
16494TIP3    H270898   5.482   5.848  10.829  0.6906  0.4218 -0.6723
16495TIP3   OH270899   6.164   5.473  16.051 -0.8361 -0.8256  0.1643
16495TIP3    H170900   6.244   5.521  16.027 -1.7630  1.1420  0.7571
16495TIP3    H270901   6.137   5.430  15.970  0.1616 -0.4978 -0.3646
16496TIP3   OH270902   0.385   4.871  13.534  0.5989 -0.1842 -0.1743
16496TIP3    H170903   0.430   4.885  13.450 -0.6907  0.8665 -0.7312
16496TIP3    H270904   0.303   4.828  13.510  0.8432 -1.2128  0.7313
16497TIP3   OH270905   1.827   6.111  16.662  0.6191 -0.4576 -0.0627
16497TIP3    H170906   1.816   6.017  16.656  2.8392 -0.8053  0.3301
16497TIP3    H270907   1.793   6.134  16.749  0.0730 -0.8772 -0.1618
16498TIP3   OH270908   0.001   6.539  11.458  0.3190 -0.0269 -0.0641
16498TIP3    H170909  -0.044   6.576  11.383 -2.6284  1.2680  2.1518
16498TIP3    H270910   0.094   6.558  11.442 -0.0242 -0.7157 -3.7340
16499TIP3   OH270911   2.628   6.028  14.458 -0.0655  0.1263  0.8124
16499TIP3    H170912   2.660   6.099  14.402 -2.6058 -0.3026 -1.3685
16499TIP3    H270913   2.569   6.070  14.520 -0.8862  0.0426  0.0945
16500TIP3   OH270914   4.656   5.968  13.309 -0.2736 -0.1287  0.4295
16500TIP3    H170915   4.644   5.896  13.248 -0.3472  0.6243 -0.4670
16500TIP3    H270916   4.668   5.926  13.394 -0.4234 -1.1841 -0.0591
16501TIP3   OH270917   1.718   2.021  14.438 -0.2614 -0.5850 -0.1103
16501TIP3    H170918   1.736   2.011  14.345 -2.2129 -1.8249 -0.4047
16501TIP3    H270919   1.701   2.115  14.449 -0.3310 -0.4827 -1.0572
16502TIP3   OH270920   5.097   6.167  15.096 -0.6230  0.6963 -0.1716
16502TIP3    H170921   5.183   6.162  15.137 -0.3718  1.0344 -0.6479
16502TIP3    H270922   5.065   6.076  15.097  0.8386  0.0745 -2.2663
16503TIP3   OH270923   3.502   0.181   0.899 -0.1950  0.3567  0.4912
16503TIP3    H170924   3.516   0.124   0.974  0.8738  0.7535  0.6193
16503TIP3    H270925   3.544   0.264   0.924 -0.8562  0.8703 -0.0772
16504TIP3   OH270926   6.527   6.233  10.644  0.3612  0.1506 -0.3849
16504TIP3    H170927   6.489   6.162  10.592  1.0864 -1.1783  0.8377
16504TIP3    H270928   6.605   6.259  10.595  0.4331 -0.3169 -0.5207
16505TIP3   OH270929   1.653   6.622   3.835  0.1505  0.0188 -0.0132
16505TIP3    H170930   1.704   6.562   3.889 -0.2201  0.4852  0.8696
16505TIP3    H270931   1.564   6.616   3.870 -0.0700  0.4165 -0.4935
16506TIP3   OH270932   2.323   4.546  14.678 -0.7880 -0.4422 -0.0618
16506TIP3    H170933   2.330   4.571  14.586 -4.0484  1.1945 -0.0032
16506TIP3    H270934   2.335   4.627  14.727  1.1329 -1.3191  1.0611
16507TIP3   OH270935   6.190   6.021   3.981  0.5119  0.3572 -0.0367
16507TIP3    H170936   6.284   6.005   3.977  0.5563  0.6862 -0.4316
16507TIP3    H270937   6.151   5.953   3.925  0.4023 -0.5689  1.1250
16508TIP3   OH270938   3.330   1.123   1.745  0.1741 -0.6908 -0.3033
16508TIP3    H170939   3.265   1.180   1.704  1.7154  0.6674 -1.0010
16508TIP3    H270940   3.401   1.182   1.769  0.4717 -1.8804  1.9333
16509TIP3   OH270941   4.708   3.125   5.391  0.6564 -0.0833 -0.6965
16509TIP3    H170942   4.679   3.216   5.401 -0.8973 -0.6217 -0.0943
16509TIP3    H270943   4.693   3.105   5.299 -0.3826 -0.1717 -0.5165
16510TIP3   OH270944   1.921   5.031   1.419  0.1799  0.1678 -0.6448
16510TIP3    H170945   1.839   5.075   1.442  0.3787  0.6574 -0.8701
16510TIP3    H270946   1.894   4.941   1.398 -0.3383  0.3898 -0.9637
16511TIP3   OH270947   6.311   1.256  12.518 -0.0191 -0.1858  0.0245
16511TIP3    H170948   6.252   1.218  12.583 -0.3298 -0.8609 -0.6322
16511TIP3    H270949   6.350   1.181  12.473  0.4305  0.2629 -0.3556
16512TIP3   OH270950   5.532   5.759   5.207  1.4108  0.5034 -0.0427
16512TIP3    H170951   5.464   5.699   5.239 -0.0574  0.4426 -2.8957
16512TIP3    H270952   5.595   5.765   5.279 -0.3220 -1.4508  1.7853
16513TIP3   OH270953   0.232   1.855   5.254  0.7077  0.5756 -0.3419
16513TIP3    H170954   0.180   1.896   5.186 -1.9861 -0.3445  1.0214
16513TIP3    H270955   0.211   1.904   5.334 -1.0185 -1.9915  0.9302
16514TIP3   OH270956   4.724   0.443  14.503 -0.0907  0.0349 -0.1346
16514TIP3    H170957   4.634   0.418  14.481 -0.0655 -0.7435  0.5904
16514TIP3    H270958   4.714   0.511  14.569 -0.1840 -1.3978  1.4021
16515TIP3   OH270959   2.907   2.387   1.543 -0.1293 -0.1855  0.2401
16515TIP3    H170960   2.896   2.379   1.448 -2.9514  1.0862  0.3701
16515TIP3    H270961   2.980   2.448   1.554 -1.4631  1.7687 -1.2072
16516TIP3   OH270962   2.535   3.282   3.939  0.3694  0.0792  0.0118
16516TIP3    H170963   2.503   3.364   3.901 -0.7476 -0.2435  0.2261
16516TIP3    H270964   2.480   3.268   4.016  0.2346 -1.1085 -0.2822
16517TIP3   OH270965   0.362   6.682  15.594  0.3897 -0.1275 -0.1800
16517TIP3    H170966   0.296   6.733  15.642  0.6858 -0.6222  0.7917
16517TIP3    H270967   0.314   6.639  15.524 -0.2750 -0.2962  0.3699
16518TIP3   OH270968   2.493   2.174  11.294  0.0385  0.1707  0.0174
16518TIP3    H170969   2.506   2.202  11.385 -0.1955  0.8083 -0.1390
16518TIP3    H270970   2.542   2.238  11.242 -0.1450  0.0328 -0.3264
16519TIP3   OH270971   0.231   3.614   4.203  0.5633  0.1668 -0.0961
16519TIP3    H170972   0.153   3.651   4.245 -0.6841  0.4394 -2.5124
16519TIP3    H270973   0.263   3.550   4.267 -1.8287 -0.2137  0.8574
16520TIP3   OH270974   0.293   0.264   0.294  0.1196  0.6167 -0.4737
16520TIP3    H170975   0.290   0.355   0.325  3.0200  0.9949 -1.0549
16520TIP3    H270976   0.245   0.215   0.361 -0.2657  2.3803  0.6195
16521TIP3   OH270977   5.048   1.582   5.568  0.1532 -0.0030 -0.1472
16521TIP3    H170978   4.982   1.538   5.515 -0.1955 -1.4485  1.3882
16521TIP3    H270979   5.121   1.519   5.571  0.3162  0.2207  0.7436
16522TIP3   OH270980   5.894   6.409   2.368  0.0477  0.6620  0.1010
16522TIP3    H170981   5.868   6.471   2.436 -1.4450 -0.1046  0.2751
16522TIP3    H270982   5.866   6.451   2.286 -1.0880  0.2080  0.2281
16523TIP3   OH270983   5.398   1.025   6.078 -0.8333 -0.3948  0.7343
16523TIP3    H170984   5.305   1.039   6.094 -0.9823  3.1454 -1.9770
16523TIP3    H270985   5.442   1.081   6.142 -0.5147 -1.5215  1.5423
16524TIP3   OH270986   3.846   4.125  11.556 -0.1672 -0.2414 -0.4193
16524TIP3    H170987   3.910   4.074  11.606 -1.2275 -1.3745 -0.1586
16524TIP3    H270988   3.825   4.069  11.481 -1.5694 -0.3438  0.0267
16525TIP3   OH270989   3.353   2.923  15.969 -0.1739  0.0175  0.3275
16525TIP3    H170990   3.291   2.956  16.035 -0.1806  2.9668 -0.9768
16525TIP3    H270991   3.427   2.984  15.975  0.8299 -1.0589 -0.8503
16526TIP3   OH270992   5.680   2.559  16.396  0.4503 -0.5367  0.0381
16526TIP3    H170993   5.676   2.548  16.301  2.9450 -0.1409 -0.1998
16526TIP3    H270994   5.623   2.634  16.414 -0.1077 -0.6577 -1.1295
16527TIP3   OH270995   5.282   1.425   4.197  0.0030  0.3174 -0.5211
16527TIP3    H170996   5.352   1.360   4.199 -0.9951 -0.8122 -1.2890
16527TIP3    H270997   5.246   1.423   4.285 -1.0703 -1.3955 -0.9488
16528TIP3   OH270998   1.135   1.105  11.540  0.0464  0.0907 -0.0528
16528TIP3    H170999   1.226   1.121  11.566  0.6809 -2.6079 -0.2308
16528TIP3    H271000   1.134   1.120  11.446 -0.1792  1.8373  0.1991
16529TIP3   OH271001   4.728   3.410   2.318 -0.3254 -0.2098 -0.1042
16529TIP3    H171002   4.637   3.439   2.328 -0.5204 -1.0593  0.7004
16529TIP3    H271003   4.722   3.323   2.280  0.1828 -0.0225 -0.6270
16530TIP3   OH271004   5.972   4.899   1.846  0.0306 -0.0262  0.2262
16530TIP3    H171005   6.052   4.946   1.823 -0.3623  0.2151 -0.6901
16530TIP3    H271006   5.989   4.809   1.820  0.4050 -0.2086  1.0549
16531TIP3   OH271007   4.056   6.646   4.858  0.1014  0.0772  0.3097
16531TIP3    H171008   4.041   6.680   4.946 -1.3814  1.3125 -0.3593
16531TIP3    H271009   4.010   6.708   4.801 -2.0264 -2.5616 -1.1002
16532TIP3   OH271010   2.052   5.996   0.031  0.0899 -0.5848  0.1409
16532TIP3    H171011   2.061   6.052  -0.046 -2.9277  2.0055  1.4822
16532TIP3    H271012   2.107   6.038   0.097 -2.5684  1.3286  1.3030
16533TIP3   OH271013   1.114   3.393  15.142  0.4706 -0.0992 -0.3064
16533TIP3    H171014   1.075   3.439  15.068  1.4739  2.5230  0.6738
16533TIP3    H271015   1.069   3.429  15.219  1.5238 -0.5105  0.5307
16534TIP3   OH271016   1.714   6.272   4.255  0.1237  0.0043  0.5085
16534TIP3    H171017   1.808   6.277   4.272  0.2703  1.9438 -0.5143
16534TIP3    H271018   1.683   6.362   4.265 -0.9120  0.1746 -2.7531
16535TIP3   OH271019   5.842   0.560  12.736  0.0316 -0.2940 -0.0046
16535TIP3    H171020   5.827   0.653  12.717  0.2474  0.2117  2.0540
16535TIP3    H271021   5.754   0.521  12.735 -0.0250 -0.1947 -1.2879
16536TIP3   OH271022   5.551   2.796   2.979  0.0074  0.5049  0.7505
16536TIP3    H171023   5.506   2.729   3.031 -0.5075  0.3719  0.1320
16536TIP3    H271024   5.642   2.790   3.009  0.4169 -1.8842 -0.7067
16537TIP3   OH271025   4.614   5.092   0.659  0.3488  0.0419  0.3698
16537TIP3    H171026   4.565   5.170   0.634 -1.4336 -0.6990  1.3354
16537TIP3    H271027   4.632   5.103   0.752 -0.1820 -0.7900  0.5887
16538TIP3   OH271028   3.745   4.251  14.631 -0.4396 -0.4041  0.0478
16538TIP3    H171029   3.727   4.285  14.719 -2.0355  0.1329 -0.4714
16538TIP3    H271030   3.714   4.160  14.634 -0.1650 -0.4965  0.1377
16539TIP3   OH271031   0.417   1.102  17.072  0.1517 -0.5777  0.0896
16539TIP3    H171032   0.382   1.024  17.028  0.3559 -0.5865 -0.0590
16539TIP3    H271033   0.506   1.111  17.038 -0.1802  0.2502 -0.5867
16540TIP3   OH271034   0.905   5.096  16.565  0.2594 -0.7905 -0.0480
16540TIP3    H171035   0.895   5.019  16.621  0.6330  0.2932  1.5935
16540TIP3    H271036   0.851   5.163  16.606  2.4941  0.7875  0.5404
16541TIP3   OH271037   6.209   0.982   1.970  0.2613  0.2285  0.2276
16541TIP3    H171038   6.239   0.955   1.883  0.3372  1.1980 -0.0623
16541TIP3    H271039   6.181   1.073   1.958  0.6897  0.5115  1.3200
16542TIP3   OH271040   0.222   1.927   6.315 -0.2525  0.7917  0.3018
16542TIP3    H171041   0.190   1.837   6.319  0.8722  0.3364 -0.3926
16542TIP3    H271042   0.144   1.981   6.325 -1.5779 -0.2460 -3.0729
16543TIP3   OH271043   2.727   6.759  11.716 -0.3499  0.5810 -0.0663
16543TIP3    H171044   2.653   6.820  11.722  0.2999  1.3392  0.6991
16543TIP3    H271045   2.707   6.691  11.781 -1.5940 -0.6558 -1.6690
16544TIP3   OH271046   4.921   5.002  14.878 -0.1118  0.2504 -0.1746
16544TIP3    H171047   4.949   4.995  14.787 -0.1180  1.6742 -0.3031
16544TIP3    H271048   4.845   5.061  14.876 -0.7869 -0.5568  0.6309
16545TIP3   OH271049   6.748   2.305   4.861 -0.0589  0.4129  0.2221
16545TIP3    H171050   6.654   2.318   4.869 -0.3755  1.1971 -3.2672
16545TIP3    H271051   6.786   2.376   4.913 -1.3343 -0.1148  1.9481
16546TIP3   OH271052   1.404   2.370   3.078 -0.2757  0.7805 -0.1433
16546TIP3    H171053   1.370   2.459   3.071 -0.6370  0.5916 -0.9824
16546TIP3    H271054   1.351   2.328   3.146  0.6304  1.5234  1.0453
16547TIP3   OH271055   1.135   5.335  12.546  0.0890 -0.1060 -0.2852
16547TIP3    H171056   1.117   5.421  12.506 -0.0034  0.1485  0.2947
16547TIP3    H271057   1.120   5.349  12.639  0.3889 -0.6770 -0.1516
16548TIP3   OH271058   3.273   2.179   3.983 -0.5264 -0.1487  0.4515
16548TIP3    H171059   3.219   2.141   3.913  1.7866  0.2630 -1.7278
16548TIP3    H271060   3.225   2.257   4.010 -1.3147 -0.1039 -0.9582
16549TIP3   OH271061   2.843   2.086  13.578 -0.4260  0.1227  0.4403
16549TIP3    H171062   2.842   2.019  13.509 -1.3470  0.5060  0.0662
16549TIP3    H271063   2.924   2.069  13.626 -1.0959 -1.8539  0.9533
16550TIP3   OH271064   2.731   5.854   6.224 -0.1942 -0.4146  0.0675
16550TIP3    H171065   2.695   5.934   6.261  2.2190  1.3594 -1.1382
16550TIP3    H271066   2.711   5.860   6.130  0.3554 -1.0502 -0.0983
16551TIP3   OH271067   3.925   4.664  16.301 -0.4545  0.3647 -0.2090
16551TIP3    H171068   3.896   4.651  16.392 -0.1025 -1.9424 -0.3607
16551TIP3    H271069   4.010   4.707  16.309  0.0411 -0.6949  0.6413
16552TIP3   OH271070   1.219   6.451  10.843  0.2071 -0.0571 -0.5108
16552TIP3    H171071   1.204   6.358  10.860  0.0616  0.4956  3.1500
16552TIP3    H271072   1.138   6.480  10.801  0.2537 -1.5495 -1.7125
16553TIP3   OH271073   3.969   5.991  11.136  0.1188 -0.4089 -0.0656
16553TIP3    H171074   3.885   5.962  11.101  0.0634 -1.6791  1.0599
16553TIP3    H271075   3.980   5.941  11.217  1.6100  0.2967  0.1948
16554TIP3   OH271076   4.845   5.879  17.066 -0.3929 -0.1074  0.1424
16554TIP3    H171077   4.795   5.939  17.010 -0.2392  1.4488  1.5707
16554TIP3    H271078   4.907   5.837  17.007 -0.1471  1.5601 -0.8561
16555TIP3   OH271079   0.048   3.358  16.444  0.4844  0.5750  0.3850
16555TIP3    H171080   0.001   3.314  16.374 -0.2635  0.7618  0.7587
16555TIP3    H271081   0.139   3.335  16.430 -0.0348 -2.8458  1.7949
16556TIP3   OH271082   1.826   6.725  11.284  0.3849  0.4062  0.2799
16556TIP3    H171083   1.823   6.792  11.216  0.4439  2.0541  1.8334
16556TIP3    H271084   1.890   6.757  11.348  2.2253 -2.2989 -0.0449
16557TIP3   OH271085   6.317   6.266   0.803 -0.0066  0.0363  0.6246
16557TIP3    H171086   6.268   6.339   0.764  0.0299 -0.6430 -0.7397
16557TIP3    H271087   6.293   6.268   0.895  0.0152  1.7945  0.6228
16558TIP3   OH271088   0.434   4.613   3.167 -0.7502 -0.0039 -0.3137
16558TIP3    H171089   0.365   4.561   3.208 -1.6649  0.4581 -1.2088
16558TIP3    H271090   0.419   4.602   3.073  0.5670 -0.0920 -0.5266
16559TIP3   OH271091   3.223   1.871   4.709 -0.3674  0.2184  0.4935
16559TIP3    H171092   3.149   1.921   4.742 -2.0573 -2.1890  0.6574
16559TIP3    H271093   3.207   1.863   4.615  0.5333  0.9363  0.2614
16560TIP3   OH271094   1.655   1.482  17.000  0.1834 -0.0874 -0.1289
16560TIP3    H171095   1.573   1.521  16.970  0.9273  0.2352 -1.8922
16560TIP3    H271096   1.704   1.555  17.039 -0.2971 -0.2527  0.8015
16561TIP3   OH271097   4.756   2.988  12.543 -0.2469 -0.1520 -0.0746
16561TIP3    H171098   4.726   3.033  12.463  0.7501 -1.6285 -1.3447
16561TIP3    H271099   4.822   3.047  12.579  0.4597 -0.1733 -1.2602
16562TIP3   OH271100   4.413   4.433   1.945 -0.2182 -0.0847 -0.0352
16562TIP3    H171101   4.502   4.403   1.926 -0.9694 -3.1296  0.6471
16562TIP3    H271102   4.422   4.527   1.962  2.5758  0.0414 -1.5104
16563TIP3   OH271103   0.706   4.769  14.888  0.0319  0.1331 -0.3538
16563TIP3    H171104   0.731   4.692  14.838  1.1718  1.0977 -1.3158
16563TIP3    H271105   0.614   4.783  14.865  0.4835  0.4695 -2.1037
16564TIP3   OH271106   2.472   1.892  14.046  0.3655  0.2150 -0.5872
16564TIP3    H171107   2.558   1.880  14.006 -0.0768  0.9097 -1.7718
16564TIP3    H271108   2.467   1.986  14.065 -0.0540  0.1434 -0.3293
16565TIP3   OH271109   0.746   2.340  12.321  0.4948 -0.0914  0.0930
16565TIP3    H171110   0.694   2.267  12.355 -2.2127  2.1935  1.3317
16565TIP3    H271111   0.830   2.334  12.366  0.3385 -2.3885  0.1690
16566TIP3   OH271112   6.121   1.447   0.851  0.4863 -0.1183 -0.4595
16566TIP3    H171113   6.064   1.489   0.916  1.5617  0.2218  0.2764
16566TIP3    H271114   6.060   1.406   0.790 -0.6070  1.8495 -0.7716
16567TIP3   OH271115   0.575   1.511   5.036  0.1898  0.8792  0.2624
16567TIP3    H171116   0.664   1.512   5.072  0.5915  1.1927 -0.7139
16567TIP3    H271117   0.586   1.540   4.946 -0.9631  1.3385  0.2620
16568TIP3   OH271118   1.708   1.644  14.217 -0.4966  0.0490 -0.4189
16568TIP3    H171119   1.791   1.689  14.205 -0.6031 -0.0139 -1.4922
16568TIP3    H271120   1.722   1.557  14.178 -1.9778  1.0729 -3.6321
16569TIP3   OH271121   0.893   1.991  14.602 -0.2440  0.4234  0.2856
16569TIP3    H171122   0.950   2.011  14.676 -0.2947  0.8605  0.2141
16569TIP3    H271123   0.907   1.898  14.584  0.0396  0.4020  0.6110
16570TIP3   OH271124   4.668   5.782  13.121 -0.4816  0.6151  0.2196
16570TIP3    H171125   4.653   5.717  13.190  2.7302 -0.8396 -0.2604
16570TIP3    H271126   4.590   5.777  13.066 -1.7957 -0.3532  2.0462
16571TIP3   OH271127   2.102   3.119  12.051 -0.5406 -0.2111  0.2323
16571TIP3    H171128   2.116   3.057  12.123  0.0175  0.6237  0.8531
16571TIP3    H271129   2.055   3.192  12.091  0.7248  0.7449 -0.0011
16572TIP3   OH271130   3.716   5.864   0.925  0.1936 -0.0386 -0.0231
16572TIP3    H171131   3.770   5.816   0.862 -0.8815 -1.3963  0.0507
16572TIP3    H271132   3.747   5.836   1.011  1.3460  1.4639  0.0985
16573TIP3   OH271133   0.934   2.296   2.987  0.1217  0.0650  0.2966
16573TIP3    H171134   0.903   2.379   2.951 -1.7756 -0.2245  1.0937
16573TIP3    H271135   1.003   2.320   3.049  1.6616  0.7513 -1.6033
16574TIP3   OH271136   6.031   6.382  11.022  0.2822 -0.3512  0.0292
16574TIP3    H171137   5.947   6.357  11.061  0.8278 -0.9234  0.8722
16574TIP3    H271138   6.011   6.460  10.971 -0.6593 -0.1669  0.6508
16575TIP3   OH271139   1.063   4.922  14.305  0.4825  0.4744  0.0728
16575TIP3    H171140   1.051   4.828  14.315  1.3503  0.3813  0.2965
16575TIP3    H271141   1.008   4.961  14.373 -0.7041  0.1875 -0.6842
16576TIP3   OH271142   3.975   0.070   2.121 -0.2650  0.3204 -0.0263
16576TIP3    H171143   3.925  -0.007   2.094 -0.9787  0.4793  0.8262
16576TIP3    H271144   3.919   0.145   2.100 -0.3239  0.5095  0.7743
16577TIP3   OH271145   5.302   6.299  12.964  0.2978 -0.1282  0.8508
16577TIP3    H171146   5.241   6.227  12.975  0.4742 -0.7614 -1.7653
16577TIP3    H271147   5.374   6.279  13.025 -1.2034 -0.2758  2.6711
16578TIP3   OH271148   6.269   1.975  14.338 -0.3406  0.5692  0.5947
16578TIP3    H171149   6.222   1.976  14.254  0.9621  1.0731 -0.1629
16578TIP3    H271150   6.295   1.884  14.350 -0.1450  0.5747  0.2240
16579TIP3   OH271151   2.709   2.851  10.852  0.1101  0.2475  0.0870
16579TIP3    H171152   2.620   2.876  10.828  1.1282  1.8050 -2.4779
16579TIP3    H271153   2.728   2.774  10.799  0.3626  0.0577  0.4490
16580TIP3   OH271154   3.730   5.354   3.531 -0.3153  0.4900 -0.1807
16580TIP3    H171155   3.741   5.261   3.551 -2.1168  0.2423 -0.1862
16580TIP3    H271156   3.726   5.397   3.616 -0.2066  0.4629 -0.1623
16581TIP3   OH271157   2.219   1.305  13.126  0.2420  0.0957 -0.3206
16581TIP3    H171158   2.296   1.250  13.112 -0.1759 -0.5292 -0.1854
16581TIP3    H271159   2.221   1.328  13.218  1.1692  1.4604 -0.6537
16582TIP3   OH271160   6.692   5.361  12.014 -0.8262 -0.5144  0.2269
16582TIP3    H171161   6.658   5.398  11.933 -0.9765  0.9593  0.9145
16582TIP3    H271162   6.617   5.357  12.072 -1.0035 -2.8196 -0.0911
16583TIP3   OH271163   6.095   2.995  16.234 -0.6713  0.3005 -0.7262
16583TIP3    H171164   6.106   2.963  16.324 -1.1227  1.0679 -0.3821
16583TIP3    H271165   6.032   3.067  16.242 -1.1250  0.0366 -1.7368
16584TIP3   OH271166   0.880   2.156  15.014  0.2049  0.2413  0.8171
16584TIP3    H171167   0.962   2.148  15.062  1.1452 -0.8431 -0.8722
16584TIP3    H271168   0.863   2.067  14.981 -0.3231  0.9471 -0.9150
16585TIP3   OH271169   2.321   6.330   4.346 -0.1681 -0.3621 -0.6129
16585TIP3    H171170   2.410   6.365   4.339  0.9233 -2.7771  0.0876
16585TIP3    H271171   2.308   6.281   4.264 -0.1806 -1.3892 -0.0128
16586TIP3   OH271172   1.269   5.826   5.124 -0.6746  0.0705  0.1071
16586TIP3    H171173   1.221   5.902   5.157 -0.7629 -0.2195  0.6623
16586TIP3    H271174   1.221   5.798   5.047 -0.9603  0.2433  0.2227
16587TIP3   OH271175   4.842   0.076   0.997 -0.0768  0.0866  0.0390
16587TIP3    H171176   4.910   0.044   0.937 -0.5763  0.1870 -0.5982
16587TIP3    H271177   4.876   0.058   1.084  0.6683 -0.0685 -0.2765
16588TIP3   OH271178   4.413   1.245   6.387  0.0497  0.1911 -0.3461
16588TIP3    H171179   4.508   1.243   6.396 -0.0635 -0.9563  0.9885
16588TIP3    H271180   4.382   1.172   6.441 -1.7114  1.7663  0.9080
16589TIP3   OH271181   2.536   2.418   3.990 -0.0339  0.1231 -1.0004
16589TIP3    H171182   2.482   2.475   3.935 -1.6870  0.8493  1.2145
16589TIP3    H271183   2.572   2.476   4.057  0.2648 -1.0279 -0.1253
16590TIP3   OH271184   4.864   5.127  10.379 -0.2006  0.3813 -0.3788
16590TIP3    H171185   4.791   5.080  10.419  0.5585 -0.1020  0.4925
16590TIP3    H271186   4.823   5.196  10.327 -1.3296 -0.9573 -1.3263
16591TIP3   OH271187   3.997   0.433  16.871 -0.1538  0.1564 -0.2527
16591TIP3    H171188   4.057   0.359  16.877 -1.0559 -0.5326  0.5016
16591TIP3    H271189   4.051   0.509  16.893  0.0012 -0.6745  2.5961
16592TIP3   OH271190   0.641   3.567  12.086  0.5403 -0.5905 -0.0808
16592TIP3    H171191   0.693   3.489  12.066  2.6687  0.3093  1.5449
16592TIP3    H271192   0.562   3.533  12.126  1.6168 -1.9480  0.9964
16593TIP3   OH271193   0.456   6.574  13.672 -0.9187  0.2591  0.4337
16593TIP3    H171194   0.488   6.638  13.608  0.9745  1.7985  2.7581
16593TIP3    H271195   0.373   6.610  13.702 -0.8901  0.5037  0.2274
16594TIP3   OH271196   3.860   2.824   0.752 -0.2347 -0.4055 -0.0641
16594TIP3    H171197   3.794   2.788   0.694 -1.5734  0.0583  1.1153
16594TIP3    H271198   3.898   2.748   0.796 -1.7454 -0.5516  1.0558
16595TIP3   OH271199   3.694   0.237  12.770  0.3002 -0.0856 -0.8264
16595TIP3    H171200   3.711   0.304  12.703  1.0046 -2.2796 -2.9960
16595TIP3    H271201   3.602   0.248  12.792 -0.3535 -0.1308 -3.2640
16596TIP3   OH271202   4.443   6.680  16.145  0.1442 -0.0489 -0.4833
16596TIP3    H171203   4.506   6.660  16.076  0.9765 -0.3460  0.3347
16596TIP3    H271204   4.407   6.595  16.170 -1.3856  0.2221 -1.6615
16597TIP3   OH271205   4.410   0.578   4.504  0.2566  0.0317  0.2225
16597TIP3    H171206   4.317   0.562   4.485  0.1135  0.7344  0.3213
16597TIP3    H271207   4.447   0.600   4.419  0.3300 -0.2281  0.1869
16598TIP3   OH271208   0.789   3.876   2.526 -0.3717  0.5154 -0.1716
16598TIP3    H171209   0.880   3.892   2.501 -0.2484 -0.7509 -0.5926
16598TIP3    H271210   0.794   3.808   2.593 -0.9172  1.6522  1.0879
16599TIP3   OH271211   0.006   5.027  11.664 -0.2779 -0.2591 -0.1264
16599TIP3    H171212   0.082   4.991  11.618  0.8290 -0.7011  1.9153
16599TIP3    H271213   0.011   4.989  11.752 -1.3969  1.7148  0.8549
16600TIP3   OH271214   5.181   3.593  15.427 -0.2593  0.2207 -0.0094
16600TIP3    H171215   5.242   3.667  15.430 -2.1751  1.9071 -0.6154
16600TIP3    H271216   5.173   3.573  15.334  0.0018 -0.5858  0.1302
16601TIP3   OH271217   3.109   2.622   3.375  0.3880  0.4019  0.1050
16601TIP3    H171218   3.018   2.637   3.350  0.2082  1.5375  1.3455
16601TIP3    H271219   3.160   2.665   3.306 -0.0108  0.1023 -0.3820
16602TIP3   OH271220   3.809   3.455  16.815  0.1757  0.5033 -0.0111
16602TIP3    H171221   3.828   3.400  16.890  0.6056 -1.7892 -1.6936
16602TIP3    H271222   3.860   3.417  16.743  0.1627  2.8601 -1.4042
16603TIP3   OH271223   4.568   1.685  14.797  0.1675  0.2237 -0.2618
16603TIP3    H171224   4.619   1.624  14.743 -0.3744 -0.2213 -0.2831
16603TIP3    H271225   4.547   1.635  14.876  1.9562  1.2371  0.9414
16604TIP3   OH271226   5.151   6.789  12.842 -0.1164 -0.2787  0.2924
16604TIP3    H171227   5.200   6.708  12.857  2.2961  0.7070 -1.5431
16604TIP3    H271228   5.136   6.825  12.929 -0.7675 -2.3741  1.1172
16605TIP3   OH271229   1.079   1.753  12.379 -0.6486  0.1178  0.1956
16605TIP3    H171230   1.070   1.682  12.442 -1.9510 -0.7373 -0.8910
16605TIP3    H271231   1.169   1.744  12.346 -0.2563  0.0149  1.2399
16606TIP3   OH271232   0.402   1.991  10.968 -0.2540 -0.0343 -0.0618
16606TIP3    H171233   0.418   1.913  10.915 -2.5958 -0.9680  0.5021
16606TIP3    H271234   0.489   2.017  10.998  0.6965 -1.8211 -1.0882
16607TIP3   OH271235   1.593   0.017  16.636  0.2453  0.3592 -0.2874
16607TIP3    H171236   1.611   0.107  16.664  0.2690  0.7438 -1.4499
16607TIP3    H271237   1.626  -0.038  16.706  1.0828  1.2328  0.0162
16608TIP3   OH271238   3.221   1.713   1.256 -0.0709 -0.4639 -0.2790
16608TIP3    H171239   3.199   1.628   1.218 -1.0622 -0.1638 -0.4014
16608TIP3    H271240   3.250   1.766   1.182  0.5499 -0.6847 -0.2022
16609TIP3   OH271241   4.640   6.542   2.635 -0.3418 -0.0097  0.1963
16609TIP3    H171242   4.707   6.474   2.643  0.5543  0.9654  1.3479
16609TIP3    H271243   4.634   6.581   2.722 -1.5792  0.7111 -0.1780
16610TIP3   OH271244   2.698   3.857   0.886  0.1855  0.2689  0.0432
16610TIP3    H171245   2.738   3.935   0.922 -0.2629  0.6958 -0.3585
16610TIP3    H271246   2.625   3.837   0.945 -0.1852  0.6203 -0.2935
16611TIP3   OH271247   4.973   2.379  12.242  0.0085  0.4075  0.5496
16611TIP3    H171248   4.966   2.392  12.336  1.9794  0.7654  0.6863
16611TIP3    H271249   5.002   2.289  12.231 -2.1769 -0.3150  0.1372
16612TIP3   OH271250   5.379   3.175  12.461 -0.2331  0.3108  0.7105
16612TIP3    H171251   5.448   3.227  12.502  0.8309 -0.4479 -0.0847
16612TIP3    H271252   5.386   3.195  12.368  0.7425 -1.8563  0.2723
16613TIP3   OH271253   6.609   4.052  10.688  0.1483  0.4723 -0.0387
16613TIP3    H171254   6.702   4.049  10.711 -0.0416  0.3488  0.7679
16613TIP3    H271255   6.604   4.109  10.612  0.9618 -0.0304 -0.4828
16614TIP3   OH271256   3.819   1.414  10.946  0.3209 -0.5547 -0.0081
16614TIP3    H171257   3.790   1.382  11.032  0.0052 -2.0034 -0.6238
16614TIP3    H271258   3.880   1.347  10.915  0.0751 -0.2951 -1.1076
16615TIP3   OH271259   0.828   1.124  14.119  0.1438  0.0250 -0.0176
16615TIP3    H171260   0.767   1.053  14.100  0.9081 -0.4813 -0.6150
16615TIP3    H271261   0.911   1.095  14.082  1.0973  0.1063  1.9324
16616TIP3   OH271262   2.410   1.807   0.598  0.3979  0.1153  0.6317
16616TIP3    H171263   2.396   1.790   0.504  1.4742 -1.4066  0.7132
16616TIP3    H271264   2.390   1.724   0.641  0.2418  0.7036  1.7277
16617TIP3   OH271265   5.825   6.241   1.253  0.4143  0.2756 -0.3443
16617TIP3    H171266   5.766   6.166   1.249  2.3623 -1.3992  0.9064
16617TIP3    H271267   5.820   6.271   1.343  0.9883  0.5235 -0.3893
16618TIP3   OH271268   2.694   2.054  12.820 -0.2520 -0.6781  0.1651
16618TIP3    H171269   2.635   2.123  12.852  0.8199  0.0142  0.7169
16618TIP3    H271270   2.651   1.972  12.846 -1.9108 -0.2886 -1.1320
16619TIP3   OH271271   1.297   0.672   4.153 -0.3889 -0.0657  0.2996
16619TIP3    H171272   1.319   0.678   4.060 -0.3256  1.5332  0.3901
16619TIP3    H271273   1.374   0.631   4.193 -0.8282 -1.7285 -0.4574
16620TIP3   OH271274   0.755   2.612  13.327 -0.6408 -0.3117  0.1163
16620TIP3    H171275   0.800   2.536  13.292  1.3492  0.4983  0.7803
16620TIP3    H271276   0.702   2.578  13.398  1.7593 -0.8977  1.7366
16621TIP3   OH271277   5.395   0.152  12.927  0.6235  0.5511 -0.0944
16621TIP3    H171278   5.353   0.222  12.977 -0.9741 -1.3127  1.3167
16621TIP3    H271279   5.447   0.198  12.861  0.5183  3.0600  1.4425
16622TIP3   OH271280   6.225   4.438  12.868  0.2577  0.2261  0.0016
16622TIP3    H171281   6.182   4.494  12.932 -0.4126  1.4015 -1.4167
16622TIP3    H271282   6.221   4.350  12.907 -2.3242  0.4828  0.5264
16623TIP3   OH271283   6.507   6.108  11.758  0.5556  0.4290  0.3489
16623TIP3    H171284   6.552   6.082  11.678  1.8769 -0.6103  1.3840
16623TIP3    H271285   6.571   6.092  11.828 -0.3172  1.9444  1.5525
16624TIP3   OH271286   6.802   3.875  12.933 -0.4605 -0.4509 -0.0584
16624TIP3    H171287   6.758   3.950  12.973  0.6927 -0.1427  0.7128
16624TIP3    H271288   6.747   3.851  12.859 -2.3379 -0.6138  1.3087
16625TIP3   OH271289   5.972   2.017   0.469 -0.2760  0.2984 -0.0097
16625TIP3    H171290   5.919   2.084   0.512  1.3902  1.8267 -0.2088
16625TIP3    H271291   6.034   2.066   0.415 -0.4484 -1.4793 -1.9766
16626TIP3   OH271292   6.680   3.496   0.586  0.6732  0.0624  0.0045
16626TIP3    H171293   6.758   3.545   0.559 -0.4720  1.2951 -1.1959
16626TIP3    H271294   6.637   3.472   0.504  0.2730 -1.4716  0.6272
16627TIP3   OH271295   0.586   1.104   2.557  0.5403 -0.5545 -0.1064
16627TIP3    H171296   0.511   1.046   2.543 -0.1095  0.2060  0.1268
16627TIP3    H271297   0.547   1.190   2.575  1.4758  0.0973 -1.0437
16628TIP3   OH271298   6.156   0.182  15.528  0.1964 -0.0067 -0.1690
16628TIP3    H171299   6.140   0.228  15.445 -0.2051 -1.9270 -1.2348
16628TIP3    H271300   6.083   0.120  15.534  0.3466 -0.0496  1.5292
16629TIP3   OH271301   3.301   5.040   4.567  0.6923 -0.9233 -1.1968
16629TIP3    H171302   3.338   5.128   4.557 -2.2609  0.6447  0.3627
16629TIP3    H271303   3.224   5.040   4.510 -1.1179 -1.3007  1.0944
16630TIP3   OH271304   5.747   5.811   5.374 -0.2950  0.4709 -0.5844
16630TIP3    H171305   5.816   5.863   5.417 -0.3010  1.1050 -1.3158
16630TIP3    H271306   5.681   5.799   5.441 -0.0113  0.8934 -0.2189
16631TIP3   OH271307   2.986   4.484   0.114 -0.0792 -0.1323 -0.0030
16631TIP3    H171308   2.957   4.393   0.110 -0.1475 -0.1077 -0.0672
16631TIP3    H271309   3.002   4.508   0.022  2.0072 -0.7477  0.1619
16632TIP3   OH271310   6.005   3.648   3.420 -0.2863 -0.1094  0.2809
16632TIP3    H171311   5.966   3.681   3.501 -0.0424 -1.3537  0.9214
16632TIP3    H271312   6.052   3.569   3.445 -1.2567 -1.2590 -1.2606
16633TIP3   OH271313   4.016   4.025   0.597  0.4394  0.2243 -0.6851
16633TIP3    H171314   4.015   4.103   0.652  0.4468 -0.6430  0.6195
16633TIP3    H271315   3.924   3.997   0.596  0.8404 -1.5974  1.7492
16634TIP3   OH271316   0.417   0.184  10.487 -0.2804  0.0078  0.0421
16634TIP3    H171317   0.456   0.272  10.480  1.7746 -0.7892  0.7020
16634TIP3    H271318   0.384   0.179  10.576  2.3858 -0.8767  1.0804
16635TIP3   OH271319   6.077   5.897  14.091 -0.3857 -0.8035  0.2821
16635TIP3    H171320   6.038   5.853  14.015 -0.6443 -0.4681  0.2186
16635TIP3    H271321   6.166   5.919  14.063 -0.9010  0.4840 -0.3944
16636TIP3   OH271322   1.074   2.066  11.519 -0.2402  0.5586 -0.0494
16636TIP3    H171323   1.106   2.016  11.594  1.2315  1.5447  0.0231
16636TIP3    H271324   1.035   2.001  11.461  0.0585 -0.4216  0.8299
16637TIP3   OH271325   0.579   6.747  14.774 -0.0929 -0.1244  0.2572
16637TIP3    H171326   0.601   6.695  14.697  0.7740  0.5738  0.0258
16637TIP3    H271327   0.549   6.683  14.838 -0.8098 -0.7202 -0.6388
16638TIP3   OH271328   4.312   4.584  14.635 -0.2296  0.1120  0.0068
16638TIP3    H171329   4.389   4.558  14.584 -0.3283  0.2238 -0.2006
16638TIP3    H271330   4.257   4.631  14.572 -2.1158 -2.9537 -0.7901
16639TIP3   OH271331   4.875   6.560   3.028 -0.1512  0.4733 -0.0779
16639TIP3    H171332   4.844   6.650   3.029 -3.4296 -0.4996  0.2268
16639TIP3    H271333   4.817   6.514   3.090  1.4031 -1.8329 -0.1921
16640TIP3   OH271334   2.543   0.351  12.551  0.0212 -0.5418  0.3259
16640TIP3    H171335   2.493   0.368  12.471 -1.6014  1.9696  1.7846
16640TIP3    H271336   2.496   0.279  12.594  0.1001 -0.9618 -0.2687
16641TIP3   OH271337   1.655   0.340   0.686 -0.1331 -0.1823 -0.3185
16641TIP3    H171338   1.679   0.311   0.774 -0.6258 -2.8199 -0.9743
16641TIP3    H271339   1.581   0.399   0.700  0.9723  0.9284  1.1178
16642TIP3   OH271340   0.626   6.385   3.165 -0.0338 -0.2406 -0.1778
16642TIP3    H171341   0.552   6.441   3.142 -0.5701 -0.7540  0.2805
16642TIP3    H271342   0.698   6.416   3.109 -0.4937  0.4870 -0.3770
16643TIP3   OH271343   2.957   0.094  11.694 -0.0909  0.0864  0.0242
16643TIP3    H171344   3.024   0.031  11.665  0.2088 -0.0101  0.8989
16643TIP3    H271345   2.874   0.051  11.673  0.1135 -0.3377  0.0534
16644TIP3   OH271346   0.679   6.746  14.186 -0.1387  0.2019  0.1839
16644TIP3    H171347   0.641   6.771  14.271  2.0101  1.2630  0.9102
16644TIP3    H271348   0.773   6.741  14.203  0.3251  0.2606 -2.1019
16645TIP3   OH271349   0.914   3.183  14.234  0.0986  0.1008 -0.0202
16645TIP3    H171350   0.981   3.160  14.297 -0.9530 -0.9235  0.7621
16645TIP3    H271351   0.839   3.210  14.287 -0.5896 -0.1575 -0.8456
16646TIP3   OH271352   2.053   4.906   3.042  0.3431 -0.0240  0.4180
16646TIP3    H171353   1.987   4.842   3.018 -0.6827  1.1356  0.0542
16646TIP3    H271354   2.104   4.919   2.963  0.8006 -0.6445  0.5974
16647TIP3   OH271355   0.459   6.301  13.594 -0.3264  0.6400  0.2958
16647TIP3    H171356   0.521   6.266  13.530 -1.1863  0.2597 -0.3526
16647TIP3    H271357   0.484   6.393  13.604  1.2808  0.1488  1.2081
16648TIP3   OH271358   0.715   5.310  11.205  0.3788 -0.6268 -0.0906
16648TIP3    H171359   0.644   5.247  11.208 -0.8943  0.7640  0.6440
16648TIP3    H271360   0.673   5.392  11.177  1.3679  0.5940  1.7676
16649TIP3   OH271361   0.016   1.765   1.060 -0.6246  0.0817 -0.6082
16649TIP3    H171362  -0.037   1.771   0.981 -0.3548 -1.6025 -0.9487
16649TIP3    H271363  -0.047   1.762   1.132 -0.8813  1.1740 -0.7733
16650TIP3   OH271364   4.827   5.571   5.976 -0.7719 -0.1730 -0.0271
16650TIP3    H171365   4.891   5.537   6.039  0.2134  0.7582 -0.5157
16650TIP3    H271366   4.745   5.574   6.026 -0.2253 -0.4126  0.9128
16651TIP3   OH271367   4.309   0.860  16.413  0.5133 -0.2756  0.8051
16651TIP3    H171368   4.338   0.934  16.467 -0.1009  0.0064  0.7557
16651TIP3    H271369   4.216   0.877  16.397  0.2013 -1.3688  1.3153
16652TIP3   OH271370   3.004   4.847  13.470  0.1640 -0.0896 -0.0562
16652TIP3    H171371   2.992   4.753  13.456  0.3543  0.1933 -2.4715
16652TIP3    H271372   2.915   4.881  13.481 -0.0523 -0.3023 -1.0797
16653TIP3   OH271373   5.899   1.417  16.027  0.0430 -0.5027  0.1413
16653TIP3    H171374   5.903   1.367  15.946  3.3023 -0.6044  0.2086
16653TIP3    H271375   5.846   1.493  16.006 -1.0436 -1.6265 -1.3880
16654TIP3   OH271376   5.480   3.029  15.649 -0.3142 -0.1673 -0.6830
16654TIP3    H171377   5.412   3.013  15.715  1.0178 -1.7175  0.4051
16654TIP3    H271378   5.446   3.101  15.596 -2.3112 -0.1861  0.4769
16655TIP3   OH271379   5.784   1.573   5.565  0.0355 -0.3152 -0.5936
16655TIP3    H171380   5.712   1.554   5.506 -0.3686  1.3347 -0.6529
16655TIP3    H271381   5.752   1.548   5.652  0.4468 -2.2478 -0.9487
16656TIP3   OH271382   0.636   0.657  14.375  0.3050 -0.4271  0.0654
16656TIP3    H171383   0.670   0.698  14.454 -0.9765 -1.0948  0.9910
16656TIP3    H271384   0.545   0.688  14.369  0.0257 -1.3240 -0.4905
16657TIP3   OH271385   6.502   2.666   6.383  0.2110 -0.3660  0.6863
16657TIP3    H171386   6.440   2.732   6.352  1.5012  0.6243  0.1203
16657TIP3    H271387   6.469   2.583   6.349 -0.6070  0.1840  0.1126
16658TIP3   OH271388   5.901   4.374  15.546 -0.2190  0.0692 -0.2595
16658TIP3    H171389   5.883   4.466  15.561 -0.7807  0.2246 -1.6898
16658TIP3    H271390   5.926   4.369  15.454  1.2519 -1.0103  0.1594
16659TIP3   OH271391   3.648   4.379  12.725  0.0793 -0.2815 -0.0921
16659TIP3    H171392   3.606   4.304  12.766  0.3557 -0.3460  0.0734
16659TIP3    H271393   3.581   4.414  12.666  0.0031 -0.7501 -0.2886
16660TIP3   OH271394   0.165   1.502  11.421  0.5049 -0.1745 -0.4839
16660TIP3    H171395   0.185   1.467  11.508 -2.3774  0.0448  0.3806
16660TIP3    H271396   0.165   1.597  11.434  1.4328 -0.0761 -1.1066
16661TIP3   OH271397   2.800   0.647   1.251  0.1047  0.0859 -0.5732
16661TIP3    H171398   2.743   0.583   1.209 -1.0785 -0.0670  1.1475
16661TIP3    H271399   2.742   0.719   1.275  0.8573  0.4671  0.1712
16662TIP3   OH271400   4.519   4.502  12.457 -0.1210  0.7194 -0.6154
16662TIP3    H171401   4.514   4.480  12.364 -1.7109  1.3945 -0.7147
16662TIP3    H271402   4.435   4.542  12.477 -0.7505 -1.4939  1.6701
16663TIP3   OH271403   2.337   5.451   5.072  0.7386 -0.3267 -0.4911
16663TIP3    H171404   2.350   5.365   5.034  0.0364 -0.6201 -0.0824
16663TIP3    H271405   2.286   5.435   5.152  1.3528  0.3671  0.0661
16664TIP3   OH271406   5.627   2.921  13.261 -0.5636  0.2480  0.1341
16664TIP3    H171407   5.713   2.895  13.295 -1.0495 -0.5104  0.7981
16664TIP3    H271408   5.643   2.940  13.168  0.4475  0.7579  0.4015
16665TIP3   OH271409   3.245   3.458  16.681 -0.4624  0.1748 -0.2511
16665TIP3    H171410   3.284   3.381  16.722  0.0170  1.4034  1.7090
16665TIP3    H271411   3.275   3.532  16.734 -0.6464  1.7766 -2.2559
16666TIP3   OH271412   4.698   3.519  16.136 -0.4288 -0.2272 -0.4114
16666TIP3    H171413   4.722   3.433  16.102 -0.0339 -0.4209  0.3387
16666TIP3    H271414   4.779   3.570  16.133 -0.1431 -0.5488  1.1198
16667TIP3   OH271415   0.840   4.289   0.766  0.2184  0.0672 -0.1444
16667TIP3    H171416   0.776   4.287   0.696  0.3966 -0.6417 -0.2901
16667TIP3    H271417   0.925   4.291   0.722  0.3423 -0.7214  0.0385
16668TIP3   OH271418   2.890   5.711  15.955 -0.2717  0.2291  0.7595
16668TIP3    H171419   2.844   5.640  15.910  1.1347  0.7975 -1.7959
16668TIP3    H271420   2.827   5.783  15.957 -0.4698  0.0942 -0.1004
16669TIP3   OH271421   1.961   3.546  14.238  0.5904  0.2091 -0.3637
16669TIP3    H171422   1.874   3.579  14.263  1.0262 -0.1541  1.8730
16669TIP3    H271423   1.956   3.535  14.143 -1.6944  0.5235 -0.3436
16670TIP3   OH271424   3.943   0.902   2.696  0.0669 -0.2337  0.0785
16670TIP3    H171425   4.018   0.903   2.637 -1.7771 -2.9413 -2.5989
16670TIP3    H271426   3.957   0.824   2.751  1.0353  1.4482  2.3718
16671TIP3   OH271427   0.770   6.437  14.925 -0.1092 -0.0015  0.6110
16671TIP3    H171428   0.694   6.490  14.947 -1.0908 -1.1426  0.0872
16671TIP3    H271429   0.738   6.347  14.928  1.0775 -0.4733 -0.1817
16672TIP3   OH271430   5.558   1.379   3.028  0.1814 -0.1008  0.7705
16672TIP3    H171431   5.587   1.296   3.066  1.0394  0.5017  1.4823
16672TIP3    H271432   5.638   1.416   2.989  0.1312  1.0386  1.7085
16673TIP3   OH271433   5.490   5.757  14.690  0.4494 -0.3330  0.3233
16673TIP3    H171434   5.577   5.762  14.730  0.1495 -1.3276  1.1726
16673TIP3    H271435   5.499   5.692  14.620  0.9249  1.2595 -1.1521
16674TIP3   OH271436   2.901   2.363  12.389  0.5971  0.4227 -0.3573
16674TIP3    H171437   2.937   2.437  12.437 -0.9006  1.1405 -0.2789
16674TIP3    H271438   2.903   2.290  12.452 -0.4042  1.0946  0.4820
16675TIP3   OH271439   2.158   4.946  12.483  0.0869 -0.4789  0.3898
16675TIP3    H171440   2.112   4.929  12.401  0.0862  0.4288  0.1969
16675TIP3    H271441   2.237   4.993  12.456 -0.3785  0.6738  0.9831
16676TIP3   OH271442   0.130   0.174   4.861  0.4628 -0.3726 -0.9342
16676TIP3    H171443   0.052   0.209   4.903  0.8171 -1.7450  0.9932
16676TIP3    H271444   0.194   0.246   4.867  0.1283 -0.1256 -0.2001
16677TIP3   OH271445   4.321   0.993  10.577  0.0615 -0.2031 -0.0876
16677TIP3    H171446   4.351   1.044  10.502 -0.9293  0.6882  0.0911
16677TIP3    H271447   4.396   0.991  10.636  0.8990 -1.0446 -1.1499
16678TIP3   OH271448   6.375   2.052   4.419 -0.0342  0.2039 -0.4498
16678TIP3    H171449   6.312   2.049   4.347  1.6400  1.2067 -2.0329
16678TIP3    H271450   6.350   2.129   4.470 -0.9945 -0.2993 -0.1210
16679TIP3   OH271451   1.498   1.911   2.997  0.0808  0.2243  0.3458
16679TIP3    H171452   1.415   1.897   3.042  1.2750 -0.7099  2.4040
16679TIP3    H271453   1.543   1.977   3.050 -0.2732  2.5623 -2.1103
16680TIP3   OH271454   0.472   3.698   5.313 -0.0661 -0.4633  0.1433
16680TIP3    H171455   0.378   3.691   5.332  0.0331  0.4956  1.0945
16680TIP3    H271456   0.479   3.678   5.220 -1.0642 -1.6988  0.3151
16681TIP3   OH271457   2.156   5.739  15.833 -0.1611 -0.6351 -0.0639
16681TIP3    H171458   2.205   5.712  15.755 -0.9577  0.3243 -0.9262
16681TIP3    H271459   2.202   5.818  15.863 -0.9613  0.0963 -0.7023
16682TIP3   OH271460   3.543   1.787  15.088  0.2352 -0.2578 -0.3243
16682TIP3    H171461   3.548   1.748  15.175 -0.4097  1.9453  0.7950
16682TIP3    H271462   3.506   1.719  15.032 -0.1275 -1.4550  1.3154
16683TIP3   OH271463   5.513   0.141   2.916 -0.3579 -0.3467 -0.2213
16683TIP3    H171464   5.456   0.195   2.971 -1.0527 -0.4999 -0.7826
16683TIP3    H271465   5.569   0.095   2.979  0.3594  1.1225  0.2675
16684TIP3   OH271466   1.449   3.160   0.297 -0.0713 -0.2520 -0.0355
16684TIP3    H171467   1.405   3.244   0.282  0.9098  0.1559 -0.7113
16684TIP3    H271468   1.516   3.181   0.362 -0.3951 -0.7190  0.4582
16685TIP3   OH271469   6.281   5.935   6.824  0.1089 -0.2684  0.3421
16685TIP3    H171470   6.265   5.854   6.775  0.0173 -0.1608  0.1960
16685TIP3    H271471   6.262   6.005   6.762  0.0323 -0.1332  0.5199
16686TIP3   OH271472   4.499   0.038  11.543  0.1317  0.0239 -0.8521
16686TIP3    H171473   4.523  -0.048  11.579  1.4680  1.1469  1.1313
16686TIP3    H271474   4.518   0.100  11.613 -1.3052  1.9249 -2.0308
16687TIP3   OH271475   6.698   2.888  16.395 -0.1019  0.4506 -0.3464
16687TIP3    H171476   6.759   2.845  16.455  1.0576  0.6140 -1.3501
16687TIP3    H271477   6.624   2.828  16.388  0.8509 -0.7229 -0.6303
16688TIP3   OH271478   2.110   3.611   4.543 -0.1333 -0.3471  0.7632
16688TIP3    H171479   2.071   3.669   4.477  1.6420  0.5153  0.4318
16688TIP3    H271480   2.095   3.523   4.508 -2.8583 -0.1877  1.2722
16689TIP3   OH271481   3.127   2.984   4.848 -0.3230 -0.3018 -0.2634
16689TIP3    H171482   3.094   3.015   4.763 -0.5018 -2.3044 -0.9741
16689TIP3    H271483   3.048   2.959   4.896 -0.3733  2.3397  1.2161
16690TIP3   OH271484   0.079   6.725   3.677  0.3472  0.0019  0.2349
16690TIP3    H171485   0.097   6.734   3.583 -0.9181 -0.8376 -0.1220
16690TIP3    H271486  -0.009   6.686   3.680  0.5744 -0.4381  1.7623
16691TIP3   OH271487   4.971   5.789   0.195  0.0818 -0.2579 -0.5515
16691TIP3    H171488   4.940   5.699   0.197  0.6659 -0.4534  0.0431
16691TIP3    H271489   4.921   5.830   0.125 -1.5556 -0.5382  0.4025
16692TIP3   OH271490   6.464   5.920  10.816 -0.0312 -0.2753 -0.5095
16692TIP3    H171491   6.457   5.869  10.735  0.9343 -0.8381 -0.2508
16692TIP3    H271492   6.471   5.855  10.885 -0.3883  0.2074 -0.0046
16693TIP3   OH271493   3.154   0.262   3.701  0.1007  0.1872  0.6822
16693TIP3    H171494   3.113   0.189   3.656  1.5888  0.7094 -1.6842
16693TIP3    H271495   3.080   0.317   3.730 -0.9743  0.0790 -1.6164
16694TIP3   OH271496   1.500   1.735  13.680 -0.2011 -0.4188 -0.2373
16694TIP3    H171497   1.505   1.813  13.625 -1.2165 -0.1179  0.0795
16694TIP3    H271498   1.406   1.719  13.692 -0.0252 -0.2556  1.7058
16695TIP3   OH271499   0.498   5.257  14.573 -0.3740 -0.0732 -0.1352
16695TIP3    H171500   0.542   5.333  14.612 -1.3533  0.7330 -0.5274
16695TIP3    H271501   0.545   5.243  14.491 -0.4266  0.3763 -0.2498
16696TIP3   OH271502   3.378   3.571   4.141 -0.2900 -0.6611 -0.2762
16696TIP3    H171503   3.354   3.662   4.122  1.1102 -0.3798 -0.8616
16696TIP3    H271504   3.302   3.534   4.185  0.0412  1.5579  2.4205
16697TIP3   OH271505   3.428   5.545   4.725 -0.3821 -0.1029  0.4460
16697TIP3    H171506   3.438   5.611   4.657 -0.2754 -0.6392 -0.0680
16697TIP3    H271507   3.515   5.538   4.765  0.1214 -1.3134 -0.7997
16698TIP3   OH271508   5.135   1.593   1.546 -0.0604  0.3232 -0.4538
16698TIP3    H171509   5.165   1.509   1.511 -2.5948 -0.9457  0.2034
16698TIP3    H271510   5.120   1.577   1.639 -0.4635  1.5418 -0.2882
16699TIP3   OH271511   3.936   0.019  11.498 -0.0555 -0.1113  0.4420
16699TIP3    H171512   3.990  -0.001  11.574  0.0152  1.0564  0.7287
16699TIP3    H271513   3.979  -0.025  11.425 -0.0603 -1.1552  1.0427
16700TIP3   OH271514   3.819   1.646  10.346  0.0564  0.4449 -0.2276
16700TIP3    H171515   3.776   1.597  10.416  1.2309  0.3818  0.4648
16700TIP3    H271516   3.863   1.719  10.391  0.8521  0.3815 -0.8833
16701TIP3   OH271517   2.336   2.182  11.552 -0.1341 -0.6349  0.3206
16701TIP3    H171518   2.359   2.107  11.606 -1.9015 -0.9256  0.7549
16701TIP3    H271519   2.413   2.239  11.555  0.6860 -1.7423  1.1813
16702TIP3   OH271520   5.965   0.490  15.224  0.1981 -0.7246 -0.2076
16702TIP3    H171521   5.873   0.496  15.251  0.7614 -1.4789  2.0657
16702TIP3    H271522   6.001   0.577  15.242 -0.0616 -0.3807 -1.2446
16703TIP3   OH271523   3.718   0.274  10.500 -0.1464 -0.3054 -0.5184
16703TIP3    H171524   3.805   0.292  10.536 -0.0745 -0.6882 -0.4983
16703TIP3    H271525   3.714   0.328  10.421 -0.6678  1.2788  0.5407
16704TIP3   OH271526   4.823   0.669  11.609  0.2532  0.0179 -0.5846
16704TIP3    H171527   4.868   0.643  11.689 -1.4650 -1.0964  0.0677
16704TIP3    H271528   4.876   0.741  11.574  1.0124  0.5724  1.5622
16705TIP3   OH271529   2.230   3.485   1.832 -0.1714  0.0672 -0.3487
16705TIP3    H171530   2.198   3.490   1.922 -2.5706 -1.3204 -1.0137
16705TIP3    H271531   2.151   3.497   1.778  0.7445 -1.5765 -2.1954
16706TIP3   OH271532   2.033   2.171   2.024 -0.4961 -0.5332  0.5675
16706TIP3    H171533   1.999   2.245   1.973  2.7806  0.3003 -0.6299
16706TIP3    H271534   1.959   2.111   2.030 -1.7850  0.4134 -3.1209
16707TIP3   OH271535   6.035   1.329   1.391 -0.5137 -0.3112 -0.4485
16707TIP3    H171536   6.130   1.342   1.395 -0.5089 -0.6328  1.8929
16707TIP3    H271537   5.998   1.417   1.390 -0.1920 -0.1636  0.0032
16708TIP3   OH271538   4.460   2.082   0.970 -0.6108  0.7438  0.6665
16708TIP3    H171539   4.535   2.040   1.013 -0.6671 -1.2155 -0.9799
16708TIP3    H271540   4.444   2.160   1.022  2.4644  1.1650  1.2020
16709TIP3   OH271541   3.541   4.554  12.971  0.1390  0.5376 -0.4094
16709TIP3    H171542   3.602   4.627  12.962  0.5838  0.0312 -1.8796
16709TIP3    H271543   3.597   4.479  12.990 -0.4055  0.7168  2.2013
16710TIP3   OH271544   0.352   0.094   4.730  0.1501  0.0361 -0.0191
16710TIP3    H171545   0.294   0.093   4.806  1.5835  1.8861  1.1921
16710TIP3    H271546   0.428   0.044   4.758 -0.0600 -0.8316 -0.9432
16711TIP3   OH271547   2.521   4.068   5.039  0.6481 -0.3083 -0.1891
16711TIP3    H171548   2.547   4.108   4.956  0.8612 -1.8983 -0.9131
16711TIP3    H271549   2.431   4.100   5.053 -0.9013 -2.9189 -3.0053
16712TIP3   OH271550   4.262   4.622  12.553 -0.0619 -0.5808 -0.5941
16712TIP3    H171551   4.253   4.559  12.624 -0.9645 -0.9949 -1.0583
16712TIP3    H271552   4.213   4.583  12.480  1.1276 -0.3383 -1.5624
16713TIP3   OH271553   3.346   1.946  11.170  0.3158  0.2094 -0.6722
16713TIP3    H171554   3.378   2.010  11.106  3.2815 -0.7114 -0.2907
16713TIP3    H271555   3.407   1.873  11.162 -1.7354 -1.7063  0.3550
16714TIP3   OH271556   1.783   5.312  11.280 -0.0363 -0.4713  0.2298
16714TIP3    H171557   1.735   5.254  11.219  0.7695 -1.6951  0.7267
16714TIP3    H271558   1.777   5.268  11.364  0.8035  0.0541  0.5749
16715TIP3   OH271559   2.237   6.639   1.356 -0.4631 -0.0500  0.1998
16715TIP3    H171560   2.228   6.544   1.359  0.7764 -0.1700  1.2458
16715TIP3    H271561   2.317   6.654   1.305  0.5157  0.3018  1.7584
16716TIP3   OH271562   0.432   3.333   1.779  0.3691 -0.5061 -0.4723
16716TIP3    H171563   0.387   3.418   1.773  1.3990  0.0399 -0.6850
16716TIP3    H271564   0.484   3.328   1.699  0.8353 -1.0407 -0.1402
16717TIP3   OH271565   2.336   5.297  11.376 -0.3292 -0.4076 -0.2281
16717TIP3    H171566   2.398   5.224  11.381 -0.0342 -0.0751  2.8443
16717TIP3    H271567   2.258   5.265  11.421 -0.5818  0.7992  0.2183
16718TIP3   OH271568   4.863   1.397   3.537  0.6893  0.2962 -0.2685
16718TIP3    H171569   4.905   1.484   3.536 -0.5165  0.9199  0.8221
16718TIP3    H271570   4.837   1.383   3.445  0.1817  1.4738 -0.3358
16719TIP3   OH271571   3.281   3.827  15.742  0.0257 -0.3430 -0.8558
16719TIP3    H171572   3.193   3.834  15.777  0.7060  2.6555  0.5574
16719TIP3    H271573   3.293   3.905  15.688  1.7983 -0.6689 -1.0179
16720TIP3   OH271574   3.424   1.567  14.966 -0.0501 -0.0016  0.1840
16720TIP3    H171575   3.431   1.496  15.030 -0.4185 -0.7490 -0.5769
16720TIP3    H271576   3.429   1.522  14.881  0.8893  1.0059 -0.3173
16721TIP3   OH271577   2.632   4.610   3.642 -0.2501  0.4190 -0.2253
16721TIP3    H171578   2.552   4.645   3.603  0.7930  1.9741 -1.0794
16721TIP3    H271579   2.642   4.658   3.724 -0.0964  0.3849 -0.2229
16722TIP3   OH271580   3.074   5.716   3.541 -0.3216  0.3497  0.4094
16722TIP3    H171581   3.030   5.796   3.514  2.7303  1.4859 -1.8048
16722TIP3    H271582   3.004   5.659   3.573 -2.9516  2.9052 -0.4138
16723TIP3   OH271583   5.429   1.691   0.379  0.1095 -0.3346  0.1438
16723TIP3    H171584   5.496   1.724   0.319  0.4808 -0.2264  0.6119
16723TIP3    H271585   5.460   1.715   0.466 -0.7083  0.0235  0.3525
16724TIP3   OH271586   2.249   5.778   4.069  0.3312  0.3060  0.0074
16724TIP3    H171587   2.283   5.853   4.117  1.3310 -1.3663  2.0749
16724TIP3    H271588   2.325   5.739   4.027 -0.0081 -0.1271 -0.2228
16725TIP3   OH271589   6.672   0.961  11.072 -0.5521 -0.2642 -0.2471
16725TIP3    H171590   6.613   0.998  11.006 -0.4435  0.2307 -0.0736
16725TIP3    H271591   6.733   0.907  11.022  0.3859  1.1903 -0.7424
16726TIP3   OH271592   6.748   6.677   2.751  0.0007  0.1658  0.0414
16726TIP3    H171593   6.671   6.629   2.722 -1.6315  0.3784  3.5480
16726TIP3    H271594   6.815   6.610   2.763 -1.1149 -0.7476  1.3757
16727TIP3   OH271595   2.582   4.833  14.646  0.1160  0.2422 -0.0677
16727TIP3    H171596   2.641   4.908  14.652 -0.7379  1.0809 -1.7135
16727TIP3    H271597   2.505   4.859  14.697 -0.2397  0.5477 -0.7579
16728TIP3   OH271598   6.492   0.915  13.685 -0.2910 -0.2271 -0.1943
16728TIP3    H171599   6.489   0.990  13.745 -2.1504 -0.6581  0.3265
16728TIP3    H271600   6.579   0.919  13.645 -0.4963  2.4746 -0.5303
16729TIP3   OH271601   5.684   4.179   4.944  0.3220 -0.5640 -0.6738
16729TIP3    H171602   5.655   4.148   4.858  0.4912 -1.3170 -0.4710
16729TIP3    H271603   5.733   4.259   4.926 -0.3421 -0.2584 -1.1929
16730TIP3   OH271604   2.881   4.209  11.546  0.1389 -0.3337  0.2503
16730TIP3    H171605   2.807   4.243  11.596  1.0599 -2.2952  3.1758
16730TIP3    H271606   2.841   4.146  11.486 -0.6875 -0.6987  1.1527
16731TIP3   OH271607   5.774   2.750  14.118  0.1677 -0.3655  0.2342
16731TIP3    H171608   5.853   2.702  14.093  2.4330  2.5324  1.2406
16731TIP3    H271609   5.785   2.764  14.212  0.4475  3.2577 -0.2197
16732TIP3   OH271610   1.188   2.844  13.334 -0.5855  0.0149 -0.0328
16732TIP3    H171611   1.218   2.814  13.419  0.5844 -0.9977 -0.7746
16732TIP3    H271612   1.092   2.838  13.338 -0.6658  1.6141  1.7649
16733TIP3   OH271613   0.453   2.159  15.312 -0.3869  0.5883 -0.3929
16733TIP3    H171614   0.524   2.161  15.247  0.0946  2.2859  0.1420
16733TIP3    H271615   0.486   2.102  15.381  0.7410  1.8405  0.1338
16734TIP3   OH271616   0.942   5.904  12.248 -0.1106 -0.7855 -0.1759
16734TIP3    H171617   0.887   5.847  12.303 -0.6355 -1.7347 -1.6116
16734TIP3    H271618   0.881   5.967  12.211  0.4121  0.5227  1.1048
16735TIP3   OH271619   0.362   1.349  15.613 -0.6063 -0.2753 -0.8120
16735TIP3    H171620   0.311   1.411  15.561 -1.4500 -1.4264 -1.4137
16735TIP3    H271621   0.358   1.383  15.702 -0.7888  0.6975 -1.1811
16736TIP3   OH271622   1.890   6.423  16.760  0.0045  0.7141  0.3075
16736TIP3    H171623   1.980   6.426  16.790 -0.2897  2.6704  1.1896
16736TIP3    H271624   1.852   6.348  16.805  0.6902  1.0727  1.5333
16737TIP3   OH271625   1.290   3.544   3.912 -0.5021  0.3825  0.3934
16737TIP3    H171626   1.384   3.554   3.925 -0.5160  0.8272  0.1679
16737TIP3    H271627   1.255   3.633   3.917 -0.5950  0.5420 -1.9093
16738TIP3   OH271628   3.549   4.499  11.943  0.1998  0.3928 -0.1190
16738TIP3    H171629   3.531   4.411  11.911 -0.7358  0.5048  0.0478
16738TIP3    H271630   3.616   4.488  12.010  0.5822 -0.1040 -0.5719
16739TIP3   OH271631   0.808   0.599   1.226 -0.2408 -0.3757  0.6929
16739TIP3    H171632   0.798   0.553   1.309 -0.1182  0.6889  1.3128
16739TIP3    H271633   0.873   0.547   1.178 -0.6276 -1.2342  1.0840
16740TIP3   OH271634   3.256   6.671   2.665 -0.4409 -0.0456  0.0709
16740TIP3    H171635   3.260   6.630   2.751 -1.5215  1.5383  0.9279
16740TIP3    H271636   3.207   6.753   2.679 -0.6874  0.2414 -2.0462
16741TIP3   OH271637   4.305   3.166  12.125 -0.1118 -0.4596  0.4465
16741TIP3    H171638   4.359   3.109  12.070  0.1121 -0.9369  1.1469
16741TIP3    H271639   4.353   3.171  12.208  2.6079  4.7469 -0.9971
16742TIP3   OH271640   2.934   0.830  14.330 -0.1046 -0.0721  0.3661
16742TIP3    H171641   3.000   0.883  14.284  0.0326  0.6778  1.3746
16742TIP3    H271642   2.981   0.751  14.356  0.1778  0.0962  0.3747
16743TIP3   OH271643   1.358   3.821   0.123  0.3541 -0.2795  0.1763
16743TIP3    H171644   1.389   3.857   0.207 -1.8393 -0.0415  0.9338
16743TIP3    H271645   1.391   3.883   0.058  0.6945  0.4454  1.0083
16744TIP3   OH271646   3.297   5.736   3.129 -0.2089 -0.2130  0.1380
16744TIP3    H171647   3.267   5.645   3.120 -0.3239 -0.1188 -0.4396
16744TIP3    H271648   3.372   5.743   3.071 -0.4288  0.1656 -0.1050
16745TIP3   OH271649   3.675   4.980   2.662 -0.5985 -0.2187 -0.4463
16745TIP3    H171650   3.602   4.919   2.657 -0.0891 -0.8817 -0.0902
16745TIP3    H271651   3.692   4.988   2.756 -0.0488 -0.2882 -0.5346
16746TIP3   OH271652   5.565   5.488   2.794  0.5295  0.7236 -0.1489
16746TIP3    H171653   5.570   5.450   2.882  0.0647  0.0348 -0.4068
16746TIP3    H271654   5.650   5.468   2.755  1.4882  2.6899  0.7628
16747TIP3   OH271655   6.688   2.265   1.751  0.4401 -0.2537  0.7596
16747TIP3    H171656   6.619   2.214   1.794  1.0478 -2.8326 -1.0900
16747TIP3    H271657   6.765   2.252   1.806  0.3683 -0.5376  0.7929
16748TIP3   OH271658   3.863   3.649   2.052 -0.1422  0.3645  0.1724
16748TIP3    H171659   3.802   3.587   2.092  1.0757 -0.1989  1.2279
16748TIP3    H271660   3.860   3.629   1.959  0.5225 -1.5969  0.5289
16749TIP3   OH271661   5.088   3.967   1.298 -0.2086  0.0393  0.0474
16749TIP3    H171662   4.993   3.970   1.305 -0.2547 -2.3409  1.1015
16749TIP3    H271663   5.119   4.012   1.376 -0.5298 -1.5637  1.1340
16750TIP3   OH271664   6.462   4.989  15.814 -0.5397 -0.7470  0.1515
16750TIP3    H171665   6.438   5.037  15.893 -1.2142 -0.3307 -0.2949
16750TIP3    H271666   6.558   4.986  15.816 -0.5647 -1.5118  1.4256
16751TIP3   OH271667   3.705   3.161  10.049  0.4639  0.5346 -0.3350
16751TIP3    H171668   3.728   3.107  10.125 -0.8947  1.4062  0.7502
16751TIP3    H271669   3.616   3.132  10.027  0.1195  1.6055 -0.3855
16752TIP3   OH271670   2.392   0.390   6.521  0.0995 -0.8294 -0.2563
16752TIP3    H171671   2.355   0.478   6.523 -1.0309 -1.3066  1.2994
16752TIP3    H271672   2.388   0.360   6.611 -0.3834 -2.8295 -0.9016
16753TIP3   OH271673   1.859   2.524   4.808  0.1633  0.2937  0.0877
16753TIP3    H171674   1.858   2.529   4.904 -0.6931  1.3184  0.0450
16753TIP3    H271675   1.812   2.444   4.787  0.3947  0.0425  0.5236
16754TIP3   OH271676   3.409   5.856  15.496 -0.3409 -0.1334 -0.7341
16754TIP3    H171677   3.400   5.784  15.560  0.3795 -0.5619 -1.1087
16754TIP3    H271678   3.427   5.812  15.413 -0.0026  0.4810 -0.9904
16755TIP3   OH271679   3.705   5.736   5.426  0.6493  0.8773  1.0393
16755TIP3    H171680   3.720   5.812   5.482 -0.5985  0.4743  1.9614
16755TIP3    H271681   3.661   5.772   5.348  1.9136  1.3636  0.5305
16756TIP3   OH271682   6.556   5.422  11.771 -0.1562 -0.3405 -0.0137
16756TIP3    H171683   6.496   5.389  11.704  0.4760 -1.3369 -0.1035
16756TIP3    H271684   6.570   5.514  11.747  0.4212 -0.7993 -1.5244
16757TIP3   OH271685   0.797   2.399  14.346 -0.0770  0.1910  0.1042
16757TIP3    H171686   0.830   2.309  14.346 -0.9966 -0.1606  0.3163
16757TIP3    H271687   0.733   2.401  14.274 -0.7153  0.4179  0.6707
16758TIP3   OH271688   2.945   0.694  14.637  0.0055 -0.6230 -0.1700
16758TIP3    H171689   2.858   0.732  14.624  1.0714  1.2558 -2.9465
16758TIP3    H271690   2.955   0.631  14.565  0.5019 -1.7779  0.8752
16759TIP3   OH271691   2.797   3.918  16.037 -0.2459 -0.0320 -0.4708
16759TIP3    H171692   2.809   3.824  16.028 -0.7286 -0.3108  1.2999
16759TIP3    H271693   2.702   3.931  16.032 -0.2744  0.1879  0.3490
16760TIP3   OH271694   5.675   3.484  14.198 -0.6833  0.2467 -0.6137
16760TIP3    H171695   5.697   3.395  14.171  0.9782  0.5614 -0.3747
16760TIP3    H271696   5.641   3.525  14.119  1.6265  0.3558 -1.6390
16761TIP3   OH271697   4.419   6.003  10.513  0.3909  0.7121 -0.2362
16761TIP3    H171698   4.474   6.059  10.568  3.0038 -2.0882  0.2913
16761TIP3    H271699   4.440   6.029  10.424  0.3620  1.6113  0.0123
16762TIP3   OH271700   1.156   4.107   6.219  0.0920 -0.1745 -0.0480
16762TIP3    H171701   1.164   4.142   6.308 -1.1119 -1.6652  0.6815
16762TIP3    H271702   1.116   4.178   6.168 -0.6918  0.1397  0.9807
16763TIP3   OH271703   6.653   4.320  16.078 -0.4688  0.3456  0.1832
16763TIP3    H171704   6.589   4.385  16.108 -0.4282  0.7945 -0.6680
16763TIP3    H271705   6.612   4.236  16.097 -0.4052  0.6067  1.5581
16764TIP3   OH271706   2.987   0.494  11.442 -0.1640  0.1329  0.1799
16764TIP3    H171707   2.991   0.481  11.347 -1.5964  2.0456 -0.2019
16764TIP3    H271708   2.941   0.417  11.475  1.0775 -0.9650 -0.5206
16765TIP3   OH271709   0.758   0.875   4.414 -0.9596  0.1040 -0.9303
16765TIP3    H171710   0.751   0.912   4.326 -1.5920  1.5535 -0.3095
16765TIP3    H271711   0.696   0.926   4.467  0.8482  0.6830  0.7974
16766TIP3   OH271712   6.040   3.942  13.162 -0.0736  0.6531 -0.2577
16766TIP3    H171713   6.123   3.912  13.199 -0.0406 -1.0026 -1.5313
16766TIP3    H271714   6.061   3.963  13.071 -1.1981 -0.6961 -0.8675
16767TIP3   OH271715   6.621   3.640  12.023  0.3240 -0.4661 -0.1309
16767TIP3    H171716   6.664   3.646  12.108 -1.0233  0.5821  0.5342
16767TIP3    H271717   6.530   3.617  12.044 -0.1448  0.2779 -1.2415
16768TIP3   OH271718   0.131   5.077  14.930 -0.4782  0.5345  0.5467
16768TIP3    H171719   0.083   5.048  15.007  1.1715 -1.6761  0.8516
16768TIP3    H271720   0.214   5.111  14.964  0.9743 -1.9857 -0.2236
16769TIP3   OH271721   6.088   2.584  12.864  0.3579  0.5287  0.7383
16769TIP3    H171722   6.024   2.655  12.868  1.4839  1.7003 -0.6304
16769TIP3    H271723   6.121   2.575  12.953  1.0697  2.5877  0.7177
16770TIP3   OH271724   2.342   4.763  14.113 -0.0131 -0.3824 -0.4912
16770TIP3    H171725   2.289   4.831  14.071 -1.6757 -1.2770  0.0659
16770TIP3    H271726   2.338   4.689  14.052  0.6633 -0.4338 -0.4750
16771TIP3   OH271727   5.115   1.053  13.808 -0.6830 -0.2605  0.1841
16771TIP3    H171728   5.049   1.044  13.877 -1.0395 -0.6480 -0.2042
16771TIP3    H271729   5.155   0.967  13.802 -0.7174 -0.2562 -0.1538
16772TIP3   OH271730   4.945   4.326  14.327 -0.2903 -0.2118 -0.2631
16772TIP3    H171731   4.968   4.338  14.419  0.5970 -0.1240 -0.4885
16772TIP3    H271732   4.859   4.282  14.329 -1.7645  2.5110  0.5748
16773TIP3   OH271733   3.003   6.100  16.692 -0.5983 -0.2480  0.0884
16773TIP3    H171734   2.932   6.120  16.753 -0.8229 -0.9194  0.0562
16773TIP3    H271735   3.011   6.005  16.695 -1.2772 -0.4079 -1.6368
16774TIP3   OH271736   4.643   0.242  16.096  0.0251  0.3910  0.1023
16774TIP3    H171737   4.696   0.177  16.050  1.1317  1.9137 -0.8261
16774TIP3    H271738   4.626   0.311  16.032 -0.4180  1.4351  1.2941
16775TIP3   OH271739   3.288   4.812  15.910  0.2041  0.0051  0.0188
16775TIP3    H171740   3.192   4.803  15.914 -0.0240  1.6227 -0.9532
16775TIP3    H271741   3.303   4.876  15.840  1.9989 -0.1111  0.2598
16776TIP3   OH271742   2.045   1.401   1.404 -0.2087  0.2268 -0.1143
16776TIP3    H171743   2.116   1.422   1.343 -1.6966 -0.0434 -2.0080
16776TIP3    H271744   2.056   1.308   1.422  0.0813  0.2476 -0.1796
16777TIP3   OH271745   5.787   1.138  11.803  0.7139  0.0618  0.3407
16777TIP3    H171746   5.714   1.187  11.765  1.0840 -0.1832 -0.7252
16777TIP3    H271747   5.746   1.078  11.865  0.1138  0.6459  0.5180
16778TIP3   OH271748   0.773   2.090   2.901  0.3595  0.5287 -0.4745
16778TIP3    H171749   0.794   2.009   2.854 -2.1001 -0.6377  0.2743
16778TIP3    H271750   0.858   2.119   2.936  1.1911 -2.4716  0.3298
16779TIP3   OH271751   0.690   3.178   2.328 -0.8041  0.4083  0.1652
16779TIP3    H171752   0.679   3.272   2.337 -0.3538  0.3372  1.8816
16779TIP3    H271753   0.649   3.156   2.244 -0.8531  2.1206 -0.2893
16780TIP3   OH271754   1.092   2.232  10.707  0.4139 -0.3443 -0.3218
16780TIP3    H171755   1.115   2.166  10.642 -0.6457 -0.5315 -0.5309
16780TIP3    H271756   1.049   2.182  10.777 -3.4236  0.3416 -1.9181
16781TIP3   OH271757   3.681   6.129  15.114  0.3744  0.4106 -0.0226
16781TIP3    H171758   3.652   6.098  15.200  2.0644 -1.0169  0.0742
16781TIP3    H271759   3.612   6.101  15.054  1.0806 -2.2287  0.3066
16782TIP3   OH271760   1.340   5.695  11.560  0.5807  0.2677 -0.5561
16782TIP3    H171761   1.291   5.748  11.497  0.6860 -0.5922 -1.3853
16782TIP3    H271762   1.316   5.605  11.539  1.7202 -0.1083 -0.2937
16783TIP3   OH271763   5.351   3.247   1.192 -0.1501 -0.6953  0.4057
16783TIP3    H171764   5.424   3.199   1.230 -0.4399  1.1131  3.6052
16783TIP3    H271765   5.382   3.274   1.105  3.4989  0.8739  1.9851
16784TIP3   OH271766   2.478   5.260   3.759 -0.4017 -0.4603  0.1385
16784TIP3    H171767   2.535   5.184   3.767  0.8097  0.3947 -0.0038
16784TIP3    H271768   2.528   5.321   3.705 -0.7094  0.9897  1.4068
16785TIP3   OH271769   4.755   3.959   5.106 -0.0917 -0.2544 -0.1018
16785TIP3    H171770   4.727   3.969   5.015  1.9647 -1.8602 -1.0134
16785TIP3    H271771   4.674   3.945   5.155 -1.4483  2.6878 -1.2907
16786TIP3   OH271772   1.047   5.992  13.020 -0.2519  0.3962  0.1895
16786TIP3    H171773   1.060   6.044  12.940  0.9628  0.1293  0.2001
16786TIP3    H271774   1.121   6.016  13.076 -0.9388  0.3610  1.1309
16787TIP3   OH271775   1.318   6.541   5.975  0.1391  0.0802  0.1276
16787TIP3    H171776   1.305   6.602   6.047  1.3801  1.1160 -0.4732
16787TIP3    H271777   1.411   6.550   5.953  0.3528 -1.9939 -0.0261
16788TIP3   OH271778   0.767   6.096  12.187  0.7537  0.2816 -0.9616
16788TIP3    H171779   0.749   6.185  12.155  1.1234  0.4249 -0.7746
16788TIP3    H271780   0.711   6.086  12.263  2.2508  1.1570  0.3325
16789TIP3   OH271781   1.449   2.171   4.900 -0.2927 -0.0895 -0.4907
16789TIP3    H171782   1.420   2.081   4.888  0.2934 -0.2637 -0.6383
16789TIP3    H271783   1.425   2.192   4.990 -2.0534  0.2228 -0.9899
16790TIP3   OH271784   3.459   3.338   2.153 -0.5875  0.1294 -0.0213
16790TIP3    H171785   3.420   3.306   2.235 -1.3867  0.3899 -0.2897
16790TIP3    H271786   3.463   3.433   2.163  0.4235  0.0688  0.1878
16791TIP3   OH271787   4.527   4.981  13.641 -0.3281  0.3372  0.4412
16791TIP3    H171788   4.528   4.886  13.654 -0.5301 -0.0995 -2.1777
16791TIP3    H271789   4.470   5.014  13.711  0.6610 -1.3097  2.1036
16792TIP3   OH271790   4.365   2.685   4.662 -0.0160  0.2968 -0.3247
16792TIP3    H171791   4.302   2.619   4.632  0.9607 -0.5969 -0.4570
16792TIP3    H271792   4.419   2.640   4.726  1.6805  0.4658 -1.5543
16793TIP3   OH271793   4.637   3.521   3.983 -0.0357 -0.5953 -0.2750
16793TIP3    H171794   4.606   3.583   4.050  0.6869 -1.4801  0.9124
16793TIP3    H271795   4.598   3.437   4.009 -2.1113 -0.4771 -2.6096
16794TIP3   OH271796   4.994   5.068  11.042  0.1732  0.3132 -0.2172
16794TIP3    H171797   4.905   5.044  11.067 -0.9263  1.3060 -2.8003
16794TIP3    H271798   5.010   5.020  10.961  2.3720 -0.4879  0.6103
16795TIP3   OH271799   4.240   2.303  12.625  0.0264  0.0070 -0.6501
16795TIP3    H171800   4.228   2.398  12.627  1.6707  0.2273 -0.3575
16795TIP3    H271801   4.334   2.289  12.638 -0.4983 -1.7647  2.3611
16796TIP3   OH271802   4.847   1.195  10.598  0.4093 -0.2141 -0.3715
16796TIP3    H171803   4.856   1.155  10.512 -2.0073 -0.9617 -0.3385
16796TIP3    H271804   4.814   1.126  10.654  2.2758  0.1605  1.3149
16797TIP3   OH271805   3.166   5.895  13.759  0.5320 -0.2898 -0.5848
16797TIP3    H171806   3.233   5.832  13.733  1.3687  0.8350 -1.2324
16797TIP3    H271807   3.115   5.910  13.680 -0.0023 -0.5408 -0.2949
16798TIP3   OH271808   1.194   5.555   5.473 -0.2937 -0.2717 -0.3802
16798TIP3    H171809   1.220   5.464   5.487  1.5871 -0.0279 -1.8608
16798TIP3    H271810   1.159   5.583   5.557 -0.8173 -2.3091  0.1416
16799TIP3   OH271811   3.244   4.968  13.568 -0.5668 -0.3872 -0.6207
16799TIP3    H171812   3.317   4.912  13.596 -1.6685 -1.0887  0.9724
16799TIP3    H271813   3.174   4.906  13.546 -1.2151  0.3153 -0.5574
16800TIP3   OH271814   0.520   2.200  13.960 -0.3271 -0.3247 -0.5480
16800TIP3    H171815   0.458   2.268  13.988  0.1714  0.9292 -2.2924
16800TIP3    H271816   0.467   2.122  13.948 -1.3805  0.4312 -0.9106
16801TIP3   OH271817   1.806   0.004   5.738  0.1573 -0.1152  0.2748
16801TIP3    H171818   1.730   0.020   5.795 -0.7738 -1.7198 -0.4650
16801TIP3    H271819   1.773   0.021   5.650  0.1249 -2.3984 -0.2165
16802TIP3   OH271820   4.205   6.354   4.430 -0.1071 -0.5874 -0.4998
16802TIP3    H171821   4.140   6.381   4.495  0.9397 -0.2076  0.4164
16802TIP3    H271822   4.161   6.285   4.380 -1.1977 -0.3740  0.1271
16803TIP3   OH271823   0.182   3.315   4.972 -0.2633  0.6156  0.5375
16803TIP3    H171824   0.251   3.301   4.906 -0.1232  1.3250  0.5338
16803TIP3    H271825   0.156   3.406   4.961 -2.1886  0.0211 -0.4046
16804TIP3   OH271826   0.060   1.722   4.212 -0.3037  0.4131  0.1244
16804TIP3    H171827   0.147   1.705   4.174 -0.2844  0.0126  0.3445
16804TIP3    H271828   0.059   1.817   4.227  0.5583  0.2598  1.2509
16805TIP3   OH271829   3.922   2.724   5.272  0.6761 -0.0157  0.4628
16805TIP3    H171830   3.878   2.659   5.217 -3.0735  3.0308 -0.5848
16805TIP3    H271831   3.983   2.767   5.213  0.7109 -0.3590  0.2401
16806TIP3   OH271832   6.410   0.535  14.856 -0.2993  0.0969 -0.0797
16806TIP3    H171833   6.336   0.549  14.796  0.5815 -0.1100 -1.2499
16806TIP3    H271834   6.370   0.503  14.936 -1.4855 -0.0039 -0.6894
16807TIP3   OH271835   1.198   1.394   2.670  0.4216 -0.1419 -0.3196
16807TIP3    H171836   1.248   1.316   2.646 -1.4747 -1.1665 -1.1935
16807TIP3    H271837   1.126   1.397   2.607 -0.0147  1.8893  0.1836
16808TIP3   OH271838   2.993   1.735   2.658 -0.6400 -0.2729  0.0261
16808TIP3    H171839   3.032   1.706   2.741 -0.0589 -0.7405 -0.3964
16808TIP3    H271840   2.985   1.829   2.667 -0.0912 -0.2569  0.4211
16809TIP3   OH271841   4.428   3.164   2.111 -0.0905 -0.4650 -0.2072
16809TIP3    H171842   4.453   3.253   2.137  0.8536  0.0842 -2.7051
16809TIP3    H271843   4.336   3.172   2.086  0.1038 -0.0567 -0.8271
16810TIP3   OH271844   2.679   1.319   0.601  0.2664  0.1845  0.0571
16810TIP3    H171845   2.723   1.342   0.518  1.6859  1.9908  1.2134
16810TIP3    H271846   2.586   1.322   0.580  0.5701 -1.8420 -2.0266
16811TIP3   OH271847   1.908   6.225  15.865  0.1521 -0.4288 -0.3575
16811TIP3    H171848   1.957   6.244  15.945  3.7135 -1.6745 -2.0419
16811TIP3    H271849   1.863   6.143  15.884  2.0439 -1.4335  0.0207
16812TIP3   OH271850   2.636   5.599   2.270  0.1478  0.4381 -0.0573
16812TIP3    H171851   2.724   5.591   2.307  1.1364  0.7701 -2.2053
16812TIP3    H271852   2.586   5.530   2.314  1.5958 -0.0927  0.8409
16813TIP3   OH271853   5.565   3.828  16.483  0.0389  0.3272 -0.2501
16813TIP3    H171854   5.508   3.896  16.520 -0.2611  0.3815 -0.8014
16813TIP3    H271855   5.537   3.821  16.392  0.4735 -0.1167 -0.3501
16814TIP3   OH271856   4.298   5.916   6.312 -0.2603 -0.1418  0.0408
16814TIP3    H171857   4.332   5.840   6.358 -0.8225  0.4553  1.5244
16814TIP3    H271858   4.373   5.952   6.264  0.7621  0.0921  1.7547
16815TIP3   OH271859   4.094   6.079  15.381 -0.3794 -0.3596 -0.5853
16815TIP3    H171860   4.020   6.051  15.328 -1.0470  1.0178 -0.4506
16815TIP3    H271861   4.146   6.134  15.322  0.1488 -0.7236 -0.4674
16816TIP3   OH271862   3.049   2.294  15.482 -0.2654  0.1034  0.1478
16816TIP3    H171863   3.034   2.385  15.507 -0.4184 -0.3492  1.8003
16816TIP3    H271864   3.143   2.289  15.465 -0.4776  0.8975 -1.5494
16817TIP3   OH271865   4.974   5.027   0.810  0.6419  0.6033  0.7148
16817TIP3    H171866   5.035   4.974   0.861  0.0155 -0.4849  0.3698
16817TIP3    H271867   4.897   5.035   0.867 -0.4825 -1.5159 -0.3986
16818TIP3   OH271868   2.621   0.801  17.071 -0.3635  0.0445  0.0138
16818TIP3    H171869   2.652   0.763  16.988 -0.4593  0.3271 -0.1526
16818TIP3    H271870   2.552   0.741  17.100 -0.3929 -0.0045 -0.1569
16819TIP3   OH271871   5.266   3.370   5.292 -0.1399  0.0823  0.2994
16819TIP3    H171872   5.361   3.361   5.299 -0.0786  0.1314 -0.3802
16819TIP3    H271873   5.248   3.370   5.198 -0.6726  1.4857  0.3675
16820TIP3   OH271874   1.895   1.721  11.091  0.0275 -0.3073 -0.0479
16820TIP3    H171875   1.940   1.761  11.017 -0.3751  0.1199 -0.0696
16820TIP3    H271876   1.943   1.640  11.109  0.9385  0.2539  0.0783
16821TIP3   OH271877   3.459   1.476  11.798 -0.1733 -0.0350  0.4854
16821TIP3    H171878   3.546   1.513  11.787 -0.6759  1.6355  1.6218
16821TIP3    H271879   3.474   1.390  11.837  0.9790  0.0514  0.2675
16822TIP3   OH271880   5.515   4.247  13.445  0.0460  0.4583  0.1622
16822TIP3    H171881   5.591   4.217  13.495 -0.1829  1.0842  0.9155
16822TIP3    H271882   5.447   4.182  13.463  0.5340 -0.3742 -0.9101
16823TIP3   OH271883   4.855   0.084   3.602 -0.7282 -0.2565 -0.0185
16823TIP3    H171884   4.778   0.087   3.545 -0.6488  2.6894 -0.1334
16823TIP3    H271885   4.826   0.123   3.684  0.0918 -1.2137  0.7569
16824TIP3   OH271886   4.231   0.055   4.718  0.6365 -0.2509 -0.4265
16824TIP3    H171887   4.266  -0.034   4.710  3.0230  0.7060 -1.4862
16824TIP3    H271888   4.137   0.045   4.699  0.8022 -2.5444 -0.3587
16825TIP3   OH271889   2.508   2.365   5.594  0.5870 -0.0952  0.1346
16825TIP3    H171890   2.557   2.437   5.556  0.6857 -0.2921 -0.1153
16825TIP3    H271891   2.535   2.288   5.543 -1.1494  0.0300 -1.0627
16826TIP3   OH271892   3.460   3.130  14.317 -0.5306  0.2705  0.7913
16826TIP3    H171893   3.525   3.118  14.248 -1.2696  1.2550 -0.0944
16826TIP3    H271894   3.457   3.045  14.362  1.1076  0.1057  0.6466
16827TIP3   OH271895   1.500   5.612  11.072  0.4700 -0.4209 -0.2956
16827TIP3    H171896   1.499   5.621  10.976 -2.0225 -1.1042 -0.4051
16827TIP3    H271897   1.441   5.680  11.103  0.4100 -0.9048  0.6809
16828TIP3   OH271898   1.230   2.889  12.492 -0.1720  0.2780  0.5301
16828TIP3    H171899   1.189   2.936  12.565  0.8199  1.0679  0.5944
16828TIP3    H271900   1.277   2.956  12.444  3.4527 -0.9180  2.0677
16829TIP3   OH271901   1.338   2.912  14.798  0.0256  0.1538  0.3023
16829TIP3    H171902   1.261   2.920  14.854 -1.5568 -2.3343 -1.3172
16829TIP3    H271903   1.320   2.972  14.725  0.8356  1.4091  1.1042
16830TIP3   OH271904   2.931   5.411  11.895  0.9540  0.0126  0.2269
16830TIP3    H171905   3.018   5.386  11.863  0.1721 -0.0877 -1.9436
16830TIP3    H271906   2.939   5.504  11.917  0.9858  0.7571 -2.5538
16831TIP3   OH271907   5.301   3.398   4.479 -0.2039 -0.4822  0.4082
16831TIP3    H171908   5.262   3.313   4.499 -0.1908 -0.5394  0.1856
16831TIP3    H271909   5.277   3.415   4.388  0.5093 -0.6372  0.1868
16832TIP3   OH271910   0.515   2.532  12.411 -0.2334 -0.6388 -0.1236
16832TIP3    H171911   0.568   2.471  12.360  0.6428  1.4338 -1.8688
16832TIP3    H271912   0.446   2.560  12.351 -0.2882  0.4777  0.4264
16833TIP3   OH271913   2.691   2.038   1.132  0.2813  0.5359  0.1380
16833TIP3    H171914   2.626   2.108   1.131  0.5370  0.7733  0.2156
16833TIP3    H271915   2.639   1.957   1.131 -0.0031  0.7178 -0.8625
16834TIP3   OH271916   1.749   4.514   2.882 -0.2128 -0.8522 -0.3917
16834TIP3    H171917   1.792   4.429   2.882 -0.0969 -0.8399  1.7784
16834TIP3    H271918   1.762   4.547   2.793 -0.2007 -3.0378 -1.2646
16835TIP3   OH271919   6.148   5.279  11.403 -0.0937  0.1865  0.1516
16835TIP3    H171920   6.055   5.265  11.387 -0.0292  1.7523 -2.1203
16835TIP3    H271921   6.189   5.264  11.318  1.5501  0.8821  0.7823
16836TIP3   OH271922   3.565   2.220  12.603  0.5383  0.1979  0.3997
16836TIP3    H171923   3.489   2.165  12.586  1.2492 -0.3405 -1.2139
16836TIP3    H271924   3.559   2.243  12.695  0.0278 -2.3020  1.0362
16837TIP3   OH271925   1.183   2.950   2.354  0.5084  0.6462 -0.1939
16837TIP3    H171926   1.122   3.021   2.377  0.8485  1.4723 -1.7297
16837TIP3    H271927   1.135   2.896   2.292  1.7927  2.2222 -2.7186
16838TIP3   OH271928   0.395   5.605   4.127  0.6215  0.4942  0.3433
16838TIP3    H171929   0.443   5.688   4.132  0.4910  0.6796 -1.2346
16838TIP3    H271930   0.446   5.546   4.183  1.1406  1.4177  0.8823
16839TIP3   OH271931   1.059   1.722   3.866  0.2786  0.4883 -0.1443
16839TIP3    H171932   1.138   1.764   3.901  0.7625 -0.6592  0.1818
16839TIP3    H271933   1.003   1.712   3.943  0.0660  0.7448 -0.2656
16840TIP3   OH271934   0.950   1.268  14.965 -0.2314  0.0039  0.3245
16840TIP3    H171935   0.892   1.316  14.905  0.9357  0.4250 -0.4988
16840TIP3    H271936   0.897   1.195  14.996 -0.8244 -0.3142 -1.3436
16841TIP3   OH271937   5.495   0.608   1.032  0.1846  0.2347 -0.3407
16841TIP3    H171938   5.562   0.565   0.980  0.3482 -2.6573  2.0050
16841TIP3    H271939   5.444   0.536   1.069 -0.7502  2.1381  2.3610
16842TIP3   OH271940   6.791   6.045   2.577  0.1453  0.1261 -0.1718
16842TIP3    H171941   6.855   6.073   2.512  0.8650  0.6527  0.7361
16842TIP3    H271942   6.758   6.126   2.615 -0.0577 -0.1745  0.3038
16843TIP3   OH271943   2.926   3.938  13.705 -0.0511 -0.0209  0.1623
16843TIP3    H171944   2.974   3.990  13.770  0.2104 -0.7600  0.5824
16843TIP3    H271945   2.905   3.857  13.752  0.4974 -0.7373 -0.7971
16844TIP3   OH271946   6.480   0.745  12.205  0.5738 -0.6652 -0.2407
16844TIP3    H171947   6.390   0.717  12.221  0.6842 -0.5312  0.6821
16844TIP3    H271948   6.471   0.829  12.160  0.2432 -1.2780 -1.3398
16845TIP3   OH271949   4.733   1.460   5.195  0.2825 -0.7900  0.1296
16845TIP3    H171950   4.739   1.454   5.100  2.4233  0.4949  0.1444
16845TIP3    H271951   4.689   1.543   5.211  0.8364 -0.5178  0.2579
16846TIP3   OH271952   1.687   0.292   5.914 -0.3661 -0.2912  0.1293
16846TIP3    H171953   1.648   0.255   5.992 -1.0926  2.1961  1.0613
16846TIP3    H271954   1.781   0.293   5.932 -0.2470 -2.2162 -0.2299
16847TIP3   OH271955   2.682   5.004  12.259 -0.7647 -0.1373 -0.1079
16847TIP3    H171956   2.641   5.041  12.180 -3.2103 -0.8763  0.7205
16847TIP3    H271957   2.706   5.080  12.312 -1.1201  0.3234 -0.5980
16848TIP3   OH271958   4.801   1.202   1.220  0.4437  0.2060  0.0387
16848TIP3    H171959   4.708   1.211   1.196  0.7946  1.8384 -0.8155
16848TIP3    H271960   4.844   1.276   1.179  2.8156 -2.4821 -2.8634
16849TIP3   OH271961   6.163   3.091  11.836 -0.1361 -0.3136  0.4265
16849TIP3    H171962   6.121   3.080  11.921  1.6806 -0.7481  1.3312
16849TIP3    H271963   6.203   3.178  11.841  0.5335 -0.6092  0.2964
16850TIP3   OH271964   6.065   0.805  12.921 -0.2586 -0.2602  0.0029
16850TIP3    H171965   6.105   0.720  12.940 -0.1849 -0.4872 -1.1103
16850TIP3    H271966   5.976   0.798  12.955 -0.4575 -1.0247 -0.6482
16851TIP3   OH271967   4.985   5.262   5.806 -0.3372 -0.2517 -0.0109
16851TIP3    H171968   4.979   5.356   5.792 -0.0112 -0.1298  0.5934
16851TIP3    H271969   5.000   5.253   5.901  3.0892 -0.7163 -0.4638
16852TIP3   OH271970   6.695   1.392  15.733 -0.4023  0.0281 -0.4025
16852TIP3    H171971   6.640   1.420  15.806  0.2338  0.9106 -0.2403
16852TIP3    H271972   6.717   1.473  15.687  2.3599  0.0172  0.6873
16853TIP3   OH271973   4.504   4.406  11.934 -0.4705  0.7446 -0.1948
16853TIP3    H171974   4.581   4.463  11.924 -0.3294  0.9429  1.7481
16853TIP3    H271975   4.430   4.461  11.908 -0.1101  1.0675 -0.5531
16854TIP3   OH271976   1.342   5.684   0.535  0.0428  0.1082  1.2200
16854TIP3    H171977   1.353   5.778   0.554  2.3214 -0.2241  1.8086
16854TIP3    H271978   1.274   5.656   0.596  1.1359  0.8847  2.8830
16855TIP3   OH271979   0.755   4.570   0.987 -0.0194  0.3275  0.1817
16855TIP3    H171980   0.703   4.528   0.919  0.8339 -0.1594 -0.1843
16855TIP3    H271981   0.743   4.515   1.064  1.4315 -0.8932 -0.4060
16856TIP3   OH271982   1.402   4.234  11.592 -0.6197 -0.5454  0.1256
16856TIP3    H171983   1.469   4.230  11.524 -1.0994 -0.2623 -0.3756
16856TIP3    H271984   1.323   4.261  11.545 -0.4168  2.1332  1.1998
16857TIP3   OH271985   4.416   3.885  14.049  0.3776 -0.4602 -0.1967
16857TIP3    H171986   4.467   3.808  14.023  0.8132 -0.6183  1.0699
16857TIP3    H271987   4.481   3.946  14.083 -0.0426  0.2370 -0.6317
16858TIP3   OH271988   2.765   3.208  16.706  0.3358 -0.0810 -0.0144
16858TIP3    H171989   2.856   3.236  16.710  0.3549 -0.2440  1.7768
16858TIP3    H271990   2.754   3.172  16.618  1.8052  0.5432 -0.4778
16859TIP3   OH271991   2.301   6.409   0.826 -0.0699 -0.1624 -0.4591
16859TIP3    H171992   2.223   6.462   0.842 -0.0728 -0.1272 -0.5900
16859TIP3    H271993   2.316   6.363   0.908 -0.6635 -0.7422 -0.6634
16860TIP3   OH271994   1.237   3.850   1.443  0.1537  0.4457 -0.2951
16860TIP3    H171995   1.202   3.763   1.459  1.0630  0.0645 -0.3513
16860TIP3    H271996   1.332   3.839   1.443  0.2662  1.1950 -1.6812
16861TIP3   OH271997   1.995   2.841   4.967 -0.5724 -0.1238 -0.1696
16861TIP3    H171998   1.924   2.905   4.960 -0.0476  0.5453  0.5347
16861TIP3    H271999   1.963   2.776   5.029  0.0476  1.0569  1.4662
16862TIP3   OH272000   0.513   3.674   2.702  0.0470 -0.5163  0.6194
16862TIP3    H172001   0.425   3.649   2.674 -0.3196 -0.5437  1.7696
16862TIP3    H272002   0.503   3.763   2.736  0.8060  0.1512 -0.8107
16863TIP3   OH272003   5.612   2.235   2.476 -0.2291  0.0344 -0.5662
16863TIP3    H172004   5.690   2.282   2.447 -0.4573  2.9390  2.8130
16863TIP3    H272005   5.645   2.151   2.508  1.4645  0.8438 -0.0355
16864TIP3   OH272006   2.725   0.424   3.433 -0.5170 -0.2979 -0.4039
16864TIP3    H172007   2.814   0.445   3.460 -0.2073 -1.4380 -0.5012
16864TIP3    H272008   2.691   0.506   3.396  0.6933 -0.0194 -0.9278
16865TIP3   OH272009   1.108   5.765  13.544  0.2213  0.8042  0.0476
16865TIP3    H172010   1.134   5.698  13.606  0.0231  0.8321  0.1608
16865TIP3    H272011   1.138   5.732  13.459 -1.8377 -0.5004 -0.2354
16866TIP3   OH272012   5.955   5.571  17.089  0.6244  0.1877  0.3287
16866TIP3    H172013   5.982   5.639  17.151 -1.3915  0.5987  0.8441
16866TIP3    H272014   5.908   5.507  17.143  2.2439 -1.5350 -0.1899
16867TIP3   OH272015   1.947   5.166  16.092 -0.5201 -0.3944  0.5988
16867TIP3    H172016   2.040   5.175  16.109 -0.7053 -1.8367  2.6302
16867TIP3    H272017   1.942   5.108  16.016  0.2254  0.5589 -0.2060
16868TIP3   OH272018   4.446   4.186  14.740 -0.2316 -0.3268  0.5046
16868TIP3    H172019   4.404   4.225  14.816  0.8006  1.3036  0.2789
16868TIP3    H272020   4.409   4.233  14.665  0.8598  0.0823  0.2054
16869TIP3   OH272021   2.204   4.036  15.626  0.0685 -0.8215  0.2542
16869TIP3    H172022   2.206   4.059  15.719  1.4099 -0.3730  0.1485
16869TIP3    H272023   2.141   4.096  15.588  1.1444  0.5595  0.5369
16870TIP3   OH272024   6.197   3.558   5.747 -0.3094  0.3963 -0.0924
16870TIP3    H172025   6.192   3.643   5.791 -2.2681  1.4468 -2.1126
16870TIP3    H272026   6.211   3.580   5.655 -0.3555 -1.5090 -0.5863
16871TIP3   OH272027   4.073   6.013   2.126 -0.5229  0.0874 -0.3235
16871TIP3    H172028   4.079   6.052   2.213 -1.7788  0.1180 -0.2227
16871TIP3    H272029   4.093   5.920   2.140  4.6077  0.8461 -0.8978
16872TIP3   OH272030   3.626   2.911   4.519 -0.1942 -0.1564  0.0301
16872TIP3    H172031   3.642   2.818   4.501 -1.0906 -0.0059 -1.7597
16872TIP3    H272032   3.553   2.911   4.581 -0.3849 -0.6479 -0.1865
16873TIP3   OH272033   2.943   5.476  12.242 -0.0966  0.1307  0.3325
16873TIP3    H172034   3.002   5.506  12.312 -0.6786  0.4837  0.6831
16873TIP3    H272035   2.856   5.480  12.281 -0.3308 -0.6770 -0.0848
16874TIP3   OH272036   4.743   2.025   5.878  0.2169 -0.6811  0.0241
16874TIP3    H172037   4.684   1.992   5.810  1.3706 -1.9576 -0.4174
16874TIP3    H272038   4.708   2.111   5.901 -0.7733 -0.6414 -1.4826
16875TIP3   OH272039   1.771   5.538   3.084  0.0784  0.1376 -1.0466
16875TIP3    H172040   1.781   5.454   3.039 -2.8152 -1.6682  1.2985
16875TIP3    H272041   1.808   5.523   3.171  0.2362  1.5855 -0.8439
16876TIP3   OH272042   0.293   3.426  16.933 -0.3092 -0.1178  0.1946
16876TIP3    H172043   0.288   3.498  16.870 -0.2113  0.2824  0.6365
16876TIP3    H272044   0.226   3.364  16.903  0.3701 -0.3709 -0.8244
16877TIP3   OH272045   3.613   4.809   3.259 -0.1842 -0.5825  0.9004
16877TIP3    H172046   3.565   4.880   3.300 -0.2481 -0.7213  1.0648
16877TIP3    H272047   3.702   4.815   3.295  0.3525  0.5952 -0.5001
16878TIP3   OH272048   0.740   0.526   2.585 -0.4246 -0.6489  0.1194
16878TIP3    H172049   0.759   0.456   2.647 -0.4814 -0.8708 -0.1132
16878TIP3    H272050   0.819   0.533   2.532 -1.0675 -1.7564 -1.0253
16879TIP3   OH272051   1.164   1.482  15.907  0.0153 -0.4036  0.3124
16879TIP3    H172052   1.100   1.416  15.933  0.3721 -0.7947  0.2247
16879TIP3    H272053   1.205   1.445  15.828  0.3397 -0.1593  0.3656
16880TIP3   OH272054   1.677   0.394   5.618  0.4358 -0.0781  0.0766
16880TIP3    H172055   1.671   0.350   5.703  1.5747  0.0657  0.2444
16880TIP3    H272056   1.760   0.364   5.581  0.7429  1.1179 -0.2519
16881TIP3   OH272057   5.493   5.479  11.924 -0.0876 -0.2616  0.2369
16881TIP3    H172058   5.430   5.427  11.875 -0.2213 -0.6779  0.8425
16881TIP3    H272059   5.565   5.495  11.862 -1.0786  0.7879 -0.6736
16882TIP3   OH272060   2.607   4.767  12.428 -0.2879  0.5623 -0.2543
16882TIP3    H172061   2.625   4.801  12.515  0.4260  0.5903 -0.4131
16882TIP3    H272062   2.623   4.841  12.369  0.1812  0.2649 -0.5001
16883TIP3   OH272063   2.024   5.331   3.827 -0.1915  0.2762 -0.2095
16883TIP3    H172064   2.071   5.392   3.883 -2.2038  0.6110  1.2222
16883TIP3    H272065   2.052   5.244   3.856  1.5830  0.4302 -1.2821
16884TIP3   OH272066   0.227   4.632  12.531  0.2652  0.0349  0.8214
16884TIP3    H172067   0.225   4.537  12.519 -0.8932  0.1502 -0.0263
16884TIP3    H272068   0.226   4.644  12.626 -0.5376 -0.7912  0.9293
16885TIP3   OH272069   1.628   6.443  11.717 -0.8235  0.0810 -0.3860
16885TIP3    H172070   1.616   6.530  11.754 -0.6714  1.0207 -2.4329
16885TIP3    H272071   1.685   6.456  11.642  2.3458 -2.3537  1.3730
16886TIP3   OH272072   0.715   4.718   5.130  0.2583 -0.0128 -0.0425
16886TIP3    H172073   0.659   4.650   5.167 -1.4233  1.4606  0.2732
16886TIP3    H272074   0.737   4.774   5.205 -0.2223  0.9994 -0.6325
16887TIP3   OH272075   1.880   0.215   4.098 -0.1208  0.2949  1.0407
16887TIP3    H172076   1.911   0.268   4.172  2.3772 -1.5286  1.4078
16887TIP3    H272077   1.828   0.145   4.138  0.5784 -0.2460  1.0150
16888TIP3   OH272078   4.146   5.430  12.941  0.0290  0.2459  0.0419
16888TIP3    H172079   4.222   5.371  12.937 -0.0181  0.1196  0.8027
16888TIP3    H272080   4.073   5.372  12.963 -0.1788  0.4593 -0.0848
16889TIP3   OH272081   2.668   4.728  12.059  0.2990 -0.3342  0.3894
16889TIP3    H172082   2.729   4.752  12.128  1.4527 -2.6925  0.2714
16889TIP3    H272083   2.721   4.684  11.993 -1.2633 -1.0339 -0.4746
16890TIP3   OH272084   4.970   4.979   5.676 -0.3652  0.4259 -0.0243
16890TIP3    H172085   4.923   4.941   5.750  0.3790  1.1458  0.8421
16890TIP3    H272086   4.948   5.072   5.679 -0.0302  0.5226 -0.4962
16891TIP3   OH272087   6.308   6.697   4.387 -0.0360 -0.7565 -0.3813
16891TIP3    H172088   6.279   6.625   4.444 -2.4418  0.4456  0.0362
16891TIP3    H272089   6.283   6.669   4.299  1.4549 -1.5282 -0.6041
16892TIP3   OH272090   6.692   3.261   3.812 -0.3059 -0.2509  0.2214
16892TIP3    H172091   6.617   3.275   3.870 -1.1383  2.3829 -1.3686
16892TIP3    H272092   6.767   3.258   3.871 -0.9459  3.7594  1.5030
16893TIP3   OH272093   0.316   6.743  15.023  0.0266  0.1014 -0.3464
16893TIP3    H172094   0.232   6.705  14.998  0.9272 -0.6960 -2.3665
16893TIP3    H272095   0.308   6.758  15.117 -2.0521 -0.7435 -0.3263
16894TIP3   OH272096   1.770   3.858  11.671 -0.5504 -0.1357 -0.7786
16894TIP3    H172097   1.782   3.853  11.766 -2.3874  0.6867 -0.4576
16894TIP3    H272098   1.859   3.860  11.636  0.1701 -0.6078  0.9075
16895TIP3   OH272099   5.304   0.401  11.180 -0.0626 -0.4731 -0.2964
16895TIP3    H172100   5.250   0.323  11.186 -0.6615  0.0396  1.7359
16895TIP3    H272101   5.347   0.408  11.265  0.5234  1.0264 -0.6777
16896TIP3   OH272102   3.286   1.244   3.022 -0.7283  0.4372 -0.1308
16896TIP3    H172103   3.244   1.201   2.948  0.0081 -0.8811  0.1754
16896TIP3    H272104   3.233   1.219   3.098 -0.4264  0.2271  0.0171
16897TIP3   OH272105   2.724   2.353   2.668  0.1088 -0.0165  0.7889
16897TIP3    H172106   2.780   2.383   2.596 -0.4271 -1.0295 -0.0818
16897TIP3    H272107   2.781   2.295   2.720  0.1762 -0.1786  0.5353
16898TIP3   OH272108   0.493   4.840   1.909 -0.2191  0.4752  0.0254
16898TIP3    H172109   0.525   4.911   1.854  3.3423 -0.0949  1.0790
16898TIP3    H272110   0.466   4.884   1.990 -0.5297  0.8489 -0.2764
16899TIP3   OH272111   2.267   0.056  13.497  0.1202  0.1010 -0.3004
16899TIP3    H172112   2.345   0.071  13.550 -0.1169 -1.0453  0.4015
16899TIP3    H272113   2.227  -0.023  13.534 -2.2930  1.5586  0.4260
16900TIP3   OH272114   2.808   2.898  11.896 -1.0582 -0.5389 -0.0657
16900TIP3    H172115   2.804   2.811  11.937 -0.6949 -0.5760 -0.1060
16900TIP3    H272116   2.871   2.888  11.825  0.1165  0.1263  0.8498
16901TIP3   OH272117   0.106   1.255   2.441 -0.1135  0.2140  0.0859
16901TIP3    H172118   0.183   1.242   2.385  0.4132  1.6420  0.4346
16901TIP3    H272119   0.132   1.220   2.526 -0.6932 -1.3803 -0.3432
16902TIP3   OH272120   6.547   5.185  11.555  0.5851 -0.3047 -0.1828
16902TIP3    H172121   6.560   5.166  11.648  0.5024 -0.0907 -0.1272
16902TIP3    H272122   6.475   5.128  11.529 -0.6648  0.9670  0.3403
16903TIP3   OH272123   2.847   1.097   3.229 -0.1309  0.4275  0.0371
16903TIP3    H172124   2.789   1.136   3.163  0.1814  0.8396  0.0057
16903TIP3    H272125   2.905   1.040   3.178  1.5807  2.4140 -0.3785
16904TIP3   OH272126   0.570   4.869  10.764  0.3389 -0.3578  0.0127
16904TIP3    H172127   0.616   4.790  10.736 -1.3946 -1.6551  0.6336
16904TIP3    H272128   0.593   4.935  10.698  3.3067 -0.7711  0.4875
16905TIP3   OH272129   4.938   2.949   2.119  0.4803 -0.2408 -0.0668
16905TIP3    H172130   4.926   2.908   2.205  0.2901  2.1112  1.0896
16905TIP3    H272131   4.852   2.941   2.078 -0.8881  2.5945  1.8814
16906TIP3   OH272132   4.825   6.020  12.198  0.0362 -0.6324 -0.0547
16906TIP3    H172133   4.832   5.925  12.192  1.2123 -0.6634  1.3508
16906TIP3    H272134   4.848   6.040  12.289  0.1522  1.0300 -0.4213
16907TIP3   OH272135   1.611   5.445  14.551 -0.6194  0.3054  0.0664
16907TIP3    H172136   1.707   5.445  14.552 -0.5369 -1.8324 -1.4948
16907TIP3    H272137   1.586   5.358  14.583 -1.9304 -0.0255 -1.6974
16908TIP3   OH272138   4.548   5.141   0.223  0.1366 -0.0774  0.6689
16908TIP3    H172139   4.494   5.149   0.301  0.1518 -0.8248  0.7575
16908TIP3    H272140   4.527   5.055   0.187  2.2516 -0.9810  1.4454
16909TIP3   OH272141   2.327   0.959   1.386  0.1280  0.7825  0.3870
16909TIP3    H172142   2.320   0.867   1.359  0.0484  1.2901 -1.4672
16909TIP3    H272143   2.361   0.955   1.475 -0.5437 -1.0633  0.6228
16910TIP3   OH272144   4.422   5.565   1.384  0.5149  0.3400  0.4293
16910TIP3    H172145   4.435   5.475   1.415  2.5316 -0.1448 -1.5751
16910TIP3    H272146   4.497   5.613   1.417  1.2764  0.4261 -1.2896
16911TIP3   OH272147   5.004   0.889  14.332 -0.1417  0.4261 -0.2182
16911TIP3    H172148   4.925   0.846  14.367 -0.1512 -0.3675 -1.1643
16911TIP3    H272149   5.076   0.835  14.365 -0.1364 -0.1660 -1.1643
16912TIP3   OH272150   1.793   0.379  10.763 -0.2974 -0.0143  0.2019
16912TIP3    H172151   1.715   0.409  10.810  0.3837  0.6630  0.9360
16912TIP3    H272152   1.760   0.342  10.682 -1.2952  1.3160 -0.0212
16913TIP3   OH272153   3.721   4.630   2.403  0.4545 -0.4855 -0.4303
16913TIP3    H172154   3.663   4.600   2.333 -1.3539  1.3881  0.1538
16913TIP3    H272155   3.809   4.622   2.366 -0.3771 -0.3927 -2.5983
16914TIP3   OH272156   6.292   6.335  14.055  0.6629 -0.6516  0.8864
16914TIP3    H172157   6.261   6.361  14.142  0.5649 -0.2255  0.7255
16914TIP3    H272158   6.353   6.264  14.072  1.4271  0.1057  1.3800
16915TIP3   OH272159   4.899   6.501   3.941 -0.0252 -0.2360 -0.3447
16915TIP3    H172160   4.993   6.493   3.921 -0.2194 -0.1559 -1.2959
16915TIP3    H272161   4.884   6.438   4.011  0.4976 -1.1047 -1.0012
16916TIP3   OH272162   2.492   6.367   6.345  0.0653 -0.0979 -0.2647
16916TIP3    H172163   2.485   6.405   6.257  0.2752 -0.1222 -0.2933
16916TIP3    H272164   2.415   6.398   6.391 -0.9156 -1.3915 -0.9504
16917TIP3   OH272165   6.023   1.680  14.506  0.0881  0.2377 -0.2656
16917TIP3    H172166   6.059   1.719  14.586 -0.0629  1.7757 -0.8987
16917TIP3    H272167   6.097   1.678  14.445 -0.2927  1.1786 -0.7895
16918TIP3   OH272168   5.199   6.411  12.465  0.1990 -0.0826  0.1277
16918TIP3    H172169   5.155   6.444  12.386  0.3969 -1.9408 -0.8082
16918TIP3    H272170   5.211   6.489  12.519 -1.2791  1.0114 -1.0169
16919TIP3   OH272171   3.873   0.403  15.859 -0.0173 -0.0950 -0.3035
16919TIP3    H172172   3.906   0.315  15.838 -0.4860 -1.7418  4.6499
16919TIP3    H272173   3.951   0.454  15.879  0.0988 -1.1100  2.0655
16920TIP3   OH272174   4.748   1.014  16.569  0.1521  0.3221 -0.1747
16920TIP3    H172175   4.699   0.950  16.620  3.0947 -0.3702  2.0257
16920TIP3    H272176   4.762   0.971  16.484  0.8638 -1.4074  0.7766
16921TIP3   OH272177   0.671   4.144   3.889 -0.1872 -0.1468  0.0954
16921TIP3    H172178   0.713   4.143   3.975 -0.0839 -1.5163  0.0590
16921TIP3    H272179   0.666   4.051   3.864  0.5716  0.2698 -1.7594
16922TIP3   OH272180   6.303   0.654   4.822 -0.5003 -0.0249 -0.5781
16922TIP3    H172181   6.293   0.706   4.742 -0.8080 -1.0321 -1.2086
16922TIP3    H272182   6.397   0.659   4.842 -0.8691  2.9891  0.9273
16923TIP3   OH272183   6.395   3.846  14.561 -0.0277 -0.0169  0.1261
16923TIP3    H172184   6.362   3.756  14.558  0.8013 -0.3272  0.0882
16923TIP3    H272185   6.489   3.838  14.544  0.1084  0.8252  0.4252
16924TIP3   OH272186   3.365   1.752   0.064 -0.0210  0.1248  0.3445
16924TIP3    H172187   3.366   1.717   0.153  3.1740 -0.3542  0.2388
16924TIP3    H272188   3.324   1.684   0.012  0.4814 -0.7723  1.0849
16925TIP3   OH272189   5.408   3.869   1.499 -0.3369 -0.1715 -0.0857
16925TIP3    H172190   5.439   3.835   1.583  1.8290  1.0645 -0.3107
16925TIP3    H272191   5.480   3.850   1.438 -3.0267 -3.8538 -2.5154
16926TIP3   OH272192   3.504   4.649   4.285 -0.5055 -0.1514  0.6755
16926TIP3    H172193   3.487   4.626   4.376 -1.2088 -1.0976  0.3301
16926TIP3    H272194   3.422   4.630   4.240 -0.7939  2.1259  0.1450
16927TIP3   OH272195   3.692   2.697   0.582  0.2661  0.5308  0.2768
16927TIP3    H172196   3.639   2.774   0.563  1.0594  1.1575  0.5174
16927TIP3    H272197   3.632   2.636   0.624 -0.5148  0.7752 -0.4640
16928TIP3   OH272198   2.437   3.672   4.379 -0.0280 -0.0577  0.1915
16928TIP3    H172199   2.480   3.648   4.297  0.6524  1.7756 -0.0401
16928TIP3    H272200   2.407   3.761   4.365  1.8654  1.0846  2.5646
16929TIP3   OH272201   2.589   1.579   4.666 -0.1385  0.0926  0.8644
16929TIP3    H172202   2.590   1.577   4.762 -0.3009  1.1820  0.9077
16929TIP3    H272203   2.569   1.489   4.640  0.5201 -0.3538  1.8343
16930TIP3   OH272204   5.628   3.126  14.897 -0.2146  0.2497  0.0237
16930TIP3    H172205   5.556   3.155  14.841  0.9166 -1.0573 -2.2331
16930TIP3    H272206   5.674   3.207  14.920  0.6210  0.7346 -2.9017
16931TIP3   OH272207   3.362   2.642   0.386 -0.4246 -0.5527  0.3247
16931TIP3    H172208   3.310   2.692   0.449 -1.7832 -2.7533  1.0727
16931TIP3    H272209   3.297   2.609   0.323  0.8898  1.6203 -2.3495
16932TIP3   OH272210   3.102   3.274  12.405 -0.2074  0.0512 -0.0165
16932TIP3    H172211   3.139   3.291  12.319  0.7713 -1.0993  0.1484
16932TIP3    H272212   3.030   3.214  12.389  0.2768 -0.5434 -0.0006
16933TIP3   OH272213   4.845   5.783   2.660 -0.7752  0.0424 -0.4004
16933TIP3    H172214   4.933   5.816   2.678 -0.2008 -0.8945 -1.3457
16933TIP3    H272215   4.816   5.745   2.743 -0.1773  0.1398 -0.1441
16934TIP3   OH272216   1.970   5.435  13.405 -0.0981 -1.2442  0.1849
16934TIP3    H172217   1.891   5.411  13.454  0.5478 -2.3509  0.7256
16934TIP3    H272218   1.959   5.391  13.320  0.2801 -2.0278  0.5372
16935TIP3   OH272219   0.592   4.671   1.663 -0.2266  0.1419  0.2038
16935TIP3    H172220   0.663   4.709   1.714  0.0552 -0.4671  0.2723
16935TIP3    H272221   0.635   4.616   1.598 -0.5308  1.6492 -1.3372
16936TIP3   OH272222   5.254   5.321   0.879 -0.4958  0.1841 -0.3186
16936TIP3    H172223   5.248   5.258   0.807 -0.2255  1.2123 -1.2658
16936TIP3    H272224   5.331   5.294   0.928 -1.4533 -1.3609  0.4404
16937TIP3   OH272225   5.600   5.843   3.033 -0.3180  0.1142  0.4084
16937TIP3    H172226   5.671   5.906   3.043  0.4121 -0.6131 -0.0077
16937TIP3    H272227   5.593   5.801   3.119  2.1885 -2.2655 -0.4128
16938TIP3   OH272228   5.756   4.603   3.468 -0.0319 -0.1906  0.1000
16938TIP3    H172229   5.749   4.658   3.391 -0.7384  0.2879  0.4967
16938TIP3    H272230   5.666   4.592   3.499  0.1886 -0.8146  0.5512
16939TIP3   OH272231   3.263   6.217   5.292  0.5967  0.5158  0.6030
16939TIP3    H172232   3.201   6.196   5.361 -0.8104  1.6085 -0.2633
16939TIP3    H272233   3.303   6.133   5.269  0.3805 -0.0111  2.0417
16940TIP3   OH272234   4.422   3.159  12.380 -0.2456  0.4651 -0.7924
16940TIP3    H172235   4.505   3.196  12.413 -1.0458 -0.2410  2.3449
16940TIP3    H272236   4.441   3.066  12.366 -0.5921  0.2025  0.3967
16941TIP3   OH272237   4.011   6.703  11.254  0.6845 -0.9292 -0.0146
16941TIP3    H172238   3.974   6.640  11.191 -0.0851 -0.4921 -0.0110
16941TIP3    H272239   4.056   6.767  11.200 -3.6116  1.9715 -0.6325
16942TIP3   OH272240   1.720   0.190   5.320  0.3091 -0.0725 -0.4459
16942TIP3    H172241   1.737   0.115   5.377  1.8115  1.0288  0.6573
16942TIP3    H272242   1.639   0.168   5.274 -1.6555 -0.5905  2.9126
16943TIP3   OH272243   6.410   2.802  11.484 -0.1472 -0.3905 -0.5526
16943TIP3    H172244   6.413   2.793  11.579 -0.2626 -0.1468 -0.5248
16943TIP3    H272245   6.481   2.746  11.452  1.0621  0.8945 -0.2171
16944TIP3   OH272246   5.587   0.599   3.376 -0.3120  0.1227  0.0816
16944TIP3    H172247   5.594   0.665   3.308 -2.6235  0.6269  0.2631
16944TIP3    H272248   5.659   0.538   3.358 -0.4418  0.6023 -2.3970
16945TIP3   OH272249   5.249   4.016  14.312  0.7758  0.1393  0.6866
16945TIP3    H172250   5.286   4.103  14.326  1.0001  0.2900 -0.6971
16945TIP3    H272251   5.275   3.993  14.224 -0.9452 -0.5018  0.2949
16946TIP3   OH272252   3.998   5.296  16.233  0.2455 -0.4107 -0.2467
16946TIP3    H172253   4.033   5.339  16.311  1.6076  0.0543 -1.0738
16946TIP3    H272254   3.971   5.367  16.175 -0.7991 -0.7497 -0.2054
16947TIP3   OH272255   5.780   2.651  11.476  0.0201 -0.4954  0.2103
16947TIP3    H172256   5.811   2.561  11.464 -0.8909 -0.7706 -0.1703
16947TIP3    H272257   5.855   2.705  11.455  0.7006 -1.1731  0.8288
16948TIP3   OH272258   1.427   5.209   2.480 -0.2803 -0.1579 -0.4124
16948TIP3    H172259   1.398   5.299   2.463 -0.7246 -0.2384 -0.0914
16948TIP3    H272260   1.484   5.188   2.406  0.2742  0.5843 -0.1966
16949TIP3   OH272261   0.950   1.515   6.769  0.0143 -0.2242  0.1051
16949TIP3    H172262   0.884   1.447   6.779 -2.4930  1.7995 -1.4923
16949TIP3    H272263   1.021   1.473   6.720 -1.8851 -1.4931 -1.7256
16950TIP3   OH272264   3.034   0.377   0.142 -0.0313  0.1395  0.2624
16950TIP3    H172265   2.941   0.401   0.140 -1.1070 -3.4268  0.7572
16950TIP3    H272266   3.046   0.335   0.227  1.3151 -1.8134 -0.8259
16951TIP3   OH272267   4.725   0.862   4.361 -0.5077  0.5321 -0.5639
16951TIP3    H172268   4.745   0.924   4.430  0.6978 -3.4447  3.0580
16951TIP3    H272269   4.633   0.880   4.339 -1.7910  0.6018  3.8938
16952TIP3   OH272270   4.125   4.146  12.590 -0.6884 -0.0159 -0.4547
16952TIP3    H172271   4.161   4.097  12.516  0.9369 -0.4354  0.5643
16952TIP3    H272272   4.201   4.189  12.629 -0.9330 -2.0962  2.6554
16953TIP3   OH272273   3.915   1.297   2.602 -0.1492  0.3850  0.0045
16953TIP3    H172274   3.967   1.378   2.597  0.3818  0.0698  0.3473
16953TIP3    H272275   3.949   1.243   2.531 -0.3902  0.3928 -0.1179
16954TIP3   OH272276   4.263   2.685   2.506 -0.0195 -0.0129  0.5034
16954TIP3    H172277   4.347   2.719   2.476  0.0552 -0.0742  0.6416
16954TIP3    H272278   4.206   2.689   2.429 -0.0839  0.6674  0.5789
16955TIP3   OH272279   1.368   1.076  13.056  0.1159  0.6612  0.4843
16955TIP3    H172280   1.449   1.034  13.082  0.1587  0.0964 -0.5162
16955TIP3    H272281   1.353   1.144  13.122  1.7565  1.2396  0.2854
16956TIP3   OH272282   6.122   0.389  15.740 -0.3625 -0.2068  0.7092
16956TIP3    H172283   6.084   0.448  15.675 -0.9838 -0.4388  0.8600
16956TIP3    H272284   6.137   0.307  15.693 -0.3446 -0.2186  0.7353
16957TIP3   OH272285   2.081   4.407  12.098  0.3362 -0.5449 -0.5011
16957TIP3    H172286   2.174   4.386  12.089  0.4854 -0.7795  1.2890
16957TIP3    H272287   2.080   4.494  12.138 -0.1841 -0.9917  0.4950
16958TIP3   OH272288   6.138   5.090   0.937  0.8060 -0.4074  0.3464
16958TIP3    H172289   6.083   5.040   0.997  0.6291 -2.4278 -1.4074
16958TIP3    H272290   6.228   5.062   0.958  0.8627 -0.0601  0.5808
16959TIP3   OH272291   3.076   1.546   2.481 -0.1503 -0.0650  0.2583
16959TIP3    H172292   3.041   1.598   2.553 -2.1552  0.8807 -1.2973
16959TIP3    H272293   3.159   1.587   2.460  0.7114 -0.6566  2.2844
16960TIP3   OH272294   0.031   5.671   3.876  0.1674 -0.2224  0.3151
16960TIP3    H172295   0.027   5.642   3.785  1.1932 -1.1801  0.5605
16960TIP3    H272296   0.079   5.602   3.921 -1.6697 -0.5319  1.9031
16961TIP3   OH272297   0.063   1.169  15.085 -0.4552  0.0115  0.8284
16961TIP3    H172298   0.121   1.171  15.009  0.6798 -0.5881  1.6415
16961TIP3    H272299   0.036   1.077  15.092 -0.2869 -0.0049  1.3276
16962TIP3   OH272300   1.479   1.663  15.856  0.1196  0.3921 -0.2497
16962TIP3    H172301   1.420   1.739  15.859 -1.1020 -0.5285  0.0911
16962TIP3    H272302   1.477   1.634  15.765  1.3902  1.3581 -0.5990
16963TIP3   OH272303   3.302   1.575  15.655 -0.5723  0.1920  0.0427
16963TIP3    H172304   3.383   1.625  15.646 -1.1464  1.2865  0.7549
16963TIP3    H272305   3.290   1.564  15.749 -0.8499 -0.6655 -0.0824
16964TIP3   OH272306   2.108   6.779   4.818 -0.0899 -0.7157  0.0385
16964TIP3    H172307   2.113   6.699   4.869 -0.7579 -1.0328 -0.3831
16964TIP3    H272308   2.107   6.849   4.882  0.5790 -1.0337  0.4091
16965TIP3   OH272309   6.778   5.505  11.004 -0.0782  0.0899  0.2513
16965TIP3    H172310   6.706   5.463  10.956  1.2919 -1.0307 -0.9058
16965TIP3    H272311   6.830   5.548  10.936  0.6222  0.4739  1.0136
16966TIP3   OH272312   3.666   3.094  11.237  0.5981 -0.1509 -0.0545
16966TIP3    H172313   3.622   3.022  11.282 -0.4501 -0.3219 -1.3059
16966TIP3    H272314   3.727   3.129  11.302 -0.7809 -0.4499  1.4576
16967TIP3   OH272315   2.960   0.390   1.061 -0.0802  1.4307 -0.5902
16967TIP3    H172316   2.957   0.486   1.061  1.0144  1.4793  0.0032
16967TIP3    H272317   2.955   0.366   1.153  3.9246  1.1477 -0.2538
16968TIP3   OH272318   0.019   1.858  16.082  0.2487  0.0310 -0.0463
16968TIP3    H172319  -0.067   1.887  16.053 -0.1135 -0.1949  0.7569
16968TIP3    H272320   0.063   1.938  16.111  0.3788  0.1700 -0.6228
16969TIP3   OH272321   4.745   4.936  11.091  0.1095  0.2608  0.0249
16969TIP3    H172322   4.697   5.019  11.082  1.3732  1.1017  0.7266
16969TIP3    H272323   4.731   4.891  11.008 -0.5433  1.2171 -0.4025
16970TIP3   OH272324   0.501   3.304   4.077 -0.2576 -0.1651  0.1578
16970TIP3    H172325   0.505   3.280   3.984 -0.6543 -0.7601  0.2902
16970TIP3    H272326   0.462   3.228   4.120 -0.0567  0.0972  0.8202
16971TIP3   OH272327   3.784   3.988   3.112 -0.6173  0.1497 -0.4530
16971TIP3    H172328   3.790   4.059   3.175 -1.5607  0.0440 -0.2272
16971TIP3    H272329   3.690   3.973   3.102 -0.4576 -0.3336 -1.3218
16972TIP3   OH272330   3.728   4.843  12.022 -0.4201 -0.2466 -0.0566
16972TIP3    H172331   3.736   4.931  11.987 -0.1243 -0.7018 -1.1620
16972TIP3    H272332   3.767   4.786  11.955  1.3411 -1.0422  1.5421
16973TIP3   OH272333   1.000   5.862  16.596 -0.8137  0.0449  0.4147
16973TIP3    H172334   0.948   5.920  16.540 -1.2272 -1.8941 -1.3511
16973TIP3    H272335   0.937   5.800  16.633 -0.4300  0.8224  2.4919
16974TIP3   OH272336   6.457   2.226  15.302  0.0507  0.1539  0.3346
16974TIP3    H172337   6.550   2.249  15.301 -0.0376  0.6816  1.8581
16974TIP3    H272338   6.447   2.164  15.230  1.0275  2.0890 -1.6008
16975TIP3   OH272339   2.102   1.778  16.715 -0.5132 -0.4249  0.4533
16975TIP3    H172340   2.053   1.816  16.642 -1.6698  3.0339  2.7780
16975TIP3    H272341   2.074   1.687  16.718 -2.0889 -0.1245 -2.0479
16976TIP3   OH272342   0.779   3.778  11.969  0.4409  0.2282 -0.3955
16976TIP3    H172343   0.730   3.704  12.005  0.6620  1.2763  2.3347
16976TIP3    H272344   0.869   3.745  11.959  0.6186  0.1889  1.1437
16977TIP3   OH272345   6.437   6.777  14.355  0.4079  0.1125 -0.6915
16977TIP3    H172346   6.444   6.853  14.297  0.7012  2.9425  2.7149
16977TIP3    H272347   6.527   6.750  14.370  0.4652  0.6520 -0.0478
16978TIP3   OH272348   3.612   4.773  10.630  0.0204  0.1883  0.0678
16978TIP3    H172349   3.624   4.790  10.537 -0.0020  0.7468  0.1629
16978TIP3    H272350   3.603   4.678  10.637 -0.1520  0.1617 -0.5170
16979TIP3   OH272351   6.698   4.977  15.429 -0.6917 -0.0583  0.0428
16979TIP3    H172352   6.681   4.926  15.508 -0.4081  0.3335  0.3617
16979TIP3    H272353   6.772   5.034  15.452 -0.5234 -0.0250 -0.5406
16980TIP3   OH272354   0.558   1.933   3.149 -0.1285 -0.4254 -0.2399
16980TIP3    H172355   0.648   1.947   3.178 -0.3117 -0.4631  0.3477
16980TIP3    H272356   0.565   1.929   3.053  0.3071  0.9788 -0.2937
16981TIP3   OH272357   5.048   0.314  16.383  0.1726 -0.2595 -0.0715
16981TIP3    H172358   5.050   0.381  16.314 -0.0625  0.6559  0.7865
16981TIP3    H272359   5.119   0.338  16.442 -0.0314 -0.6577  0.3421
16982TIP3   OH272360   0.104   4.960  14.693  0.2763  0.2385  0.5380
16982TIP3    H172361   0.128   4.989  14.781  0.3741  0.0113  0.5877
16982TIP3    H272362   0.156   5.013  14.634  1.5095 -0.7846  0.6583
16983TIP3   OH272363   6.793   0.147  15.324  0.0307 -1.0677  0.4034
16983TIP3    H172364   6.736   0.089  15.274 -1.0326  0.1537  0.1568
16983TIP3    H272365   6.782   0.233  15.282  3.3732 -1.0708 -0.8038
16984TIP3   OH272366   0.386   4.527  15.337  0.3038  0.4401 -0.6642
16984TIP3    H172367   0.380   4.619  15.312  0.2765 -0.0379 -2.5739
16984TIP3    H272368   0.479   4.514  15.358  0.2979  0.8986 -0.3370
16985TIP3   OH272369   1.686   5.209   0.255 -0.1743 -0.1090 -0.4511
16985TIP3    H172370   1.621   5.239   0.192 -1.5213 -1.3566  0.2932
16985TIP3    H272371   1.723   5.130   0.217  1.2167  0.7803 -1.0335
16986TIP3   OH272372   6.445   4.725  11.153  0.6094  0.2214 -0.7265
16986TIP3    H172373   6.362   4.707  11.197  0.8623  0.7563 -0.0078
16986TIP3    H272374   6.456   4.652  11.093 -0.8900  0.6670 -1.5907
16987TIP3   OH272375   3.648   2.895  13.412  1.0122  0.0865 -0.6527
16987TIP3    H172376   3.742   2.878  13.414  1.1096  0.5616 -1.0488
16987TIP3    H272377   3.626   2.913  13.504  0.9238 -1.9480 -0.2168
16988TIP3   OH272378   5.198   6.604   2.041  0.8467 -0.4031 -0.2461
16988TIP3    H172379   5.143   6.543   2.091 -1.5169  2.0318  0.3281
16988TIP3    H272380   5.288   6.574   2.059  0.0455 -0.9768  3.7836
16989TIP3   OH272381   6.498   2.991  13.674 -0.1372  0.1730  0.7759
16989TIP3    H172382   6.544   2.964  13.753  1.1325  0.9557  0.3334
16989TIP3    H272383   6.425   3.045  13.706  0.2180  0.2813  1.4257
16990TIP3   OH272384   1.449   6.368   6.302 -0.0209 -0.2404  0.4096
16990TIP3    H172385   1.507   6.430   6.347  0.2888  0.1439 -0.4996
16990TIP3    H272386   1.363   6.411   6.302  0.2116  0.2342 -0.2941
16991TIP3   OH272387   3.305   6.006   1.942  0.1673 -0.3571 -0.9580
16991TIP3    H172388   3.330   5.924   1.983 -1.0220 -0.2087  0.1308
16991TIP3    H272389   3.339   6.074   2.001  1.5929 -0.0064 -2.1036
16992TIP3   OH272390   2.928   6.291   1.814 -0.0825 -0.0501 -0.5824
16992TIP3    H172391   2.847   6.254   1.777  0.0267 -1.8054  0.7745
16992TIP3    H272392   2.967   6.218   1.863  1.3459  1.2970  0.3817
16993TIP3   OH272393   5.314   6.010   6.107  0.1206 -0.0133  0.1320
16993TIP3    H172394   5.246   6.017   6.174  0.3277 -0.6488  0.4091
16993TIP3    H272395   5.391   5.979   6.153 -0.2184 -2.2681 -0.6736
16994TIP3   OH272396   2.164   2.000  15.360  0.0749  0.1532 -0.7401
16994TIP3    H172397   2.186   2.062  15.291  0.1799  0.1708 -0.6899
16994TIP3    H272398   2.084   2.035  15.399  2.0891  2.3459  1.8160
16995TIP3   OH272399   6.663   3.938  11.686 -0.3784 -0.3427 -1.0712
16995TIP3    H172400   6.688   3.989  11.763  0.7771 -2.6019  0.1583
16995TIP3    H272401   6.665   4.001  11.614 -1.9722  1.9669  0.7576
16996TIP3   OH272402   4.738   2.118   1.897  0.1764  0.0022 -0.0486
16996TIP3    H172403   4.702   2.106   1.984  1.7142 -0.3590  0.5658
16996TIP3    H272404   4.832   2.106   1.908  0.3885 -0.1658 -1.7801
16997TIP3   OH272405   6.269   1.791   1.796  0.4815  0.1025  0.1309
16997TIP3    H172406   6.306   1.703   1.800 -1.3075 -0.6952  0.0289
16997TIP3    H272407   6.190   1.786   1.850 -0.3376  1.2907 -0.8973
16998TIP3   OH272408   1.399   3.115  12.644  0.0901  0.2396  0.7507
16998TIP3    H172409   1.476   3.159  12.681  1.5891  2.2262 -3.9530
16998TIP3    H272410   1.342   3.187  12.615 -1.2082 -1.1134 -0.2064
16999TIP3   OH272411   2.697   0.907   1.403  0.3671  0.2406 -0.4062
16999TIP3    H172412   2.685   0.999   1.424 -1.4453 -0.0631  0.0400
16999TIP3    H272413   2.643   0.892   1.326 -0.8664 -0.8263  0.6137
17000TIP3   OH272414   0.410   0.122  12.738  0.8752 -0.2757  0.0517
17000TIP3    H172415   0.396   0.080  12.823 -0.4076 -0.6983 -0.3376
17000TIP3    H272416   0.480   0.185  12.753  1.1552 -0.8531  1.2444
17001TIP3   OH272417   4.851   3.744  14.237 -0.0584 -0.2865 -0.2003
17001TIP3    H172418   4.936   3.741  14.281  0.2999 -1.0153 -0.9089
17001TIP3    H272419   4.823   3.835  14.246  0.6028 -0.1265  0.3967
17002TIP3   OH272420   5.762   1.906   1.659  0.3286 -0.4555 -0.7006
17002TIP3    H172421   5.843   1.884   1.704  0.9816 -0.3780 -1.8042
17002TIP3    H272422   5.780   1.990   1.616 -0.9036  0.4281  0.4241
17003TIP3   OH272423   2.876   3.087   1.158  0.4030 -0.6636 -0.3480
17003TIP3    H172424   2.941   3.158   1.165  1.7721 -1.7623 -1.3372
17003TIP3    H272425   2.895   3.031   1.234  2.6259 -2.5082 -2.1137
17004TIP3   OH272426   2.479   1.292  15.500  0.1469 -0.5914  0.3793
17004TIP3    H172427   2.512   1.274  15.412  0.6102  3.4393 -0.4420
17004TIP3    H272428   2.557   1.303  15.554 -0.0371  0.1611  0.5097
17005TIP3   OH272429   5.248   3.401  11.938  0.2485  0.7613  0.2673
17005TIP3    H172430   5.176   3.409  11.877 -0.6408 -0.8902  1.0273
17005TIP3    H272431   5.302   3.330  11.903  0.5211  0.7746  0.6506
17006TIP3   OH272432   0.628   2.810   3.446  0.2812  0.0782  0.1502
17006TIP3    H172433   0.650   2.798   3.354 -0.8814 -0.4163 -0.0790
17006TIP3    H272434   0.563   2.742   3.465 -2.8523  2.8123  0.1162
17007TIP3   OH272435   4.902   4.125   1.013 -0.4390 -0.1505  0.0934
17007TIP3    H172436   4.978   4.178   0.990 -0.0398 -0.3665  0.8805
17007TIP3    H272437   4.829   4.186   1.009  0.2544  1.0365  2.9151
17008TIP3   OH272438   4.997   1.043   5.724 -0.6280 -0.6948  0.4888
17008TIP3    H172439   4.915   1.081   5.756 -0.9779 -2.3658  1.7071
17008TIP3    H272440   5.027   1.104   5.657 -2.0643  0.7558  1.1043
17009TIP3   OH272441   1.869   4.962  11.710  0.7578  0.2703 -0.2172
17009TIP3    H172442   1.941   4.969  11.772  0.3951 -1.2307  0.4188
17009TIP3    H272443   1.791   4.983  11.761  0.3607 -1.8082  0.1189
17010TIP3   OH272444   1.457   5.908  15.748  0.1805 -0.0887  0.1815
17010TIP3    H172445   1.502   5.855  15.814 -1.0447 -0.7388  0.5183
17010TIP3    H272446   1.524   5.969  15.717  1.8263 -2.1787 -0.6253
17011TIP3   OH272447   1.063   6.371  12.351 -0.2321 -0.2187  0.0693
17011TIP3    H172448   1.121   6.443  12.324  2.2236 -1.5958  1.3600
17011TIP3    H272449   1.008   6.356  12.274  1.2341  1.0680 -1.3264
17012TIP3   OH272450   3.582   6.278   3.127  0.3606 -0.0623 -0.4172
17012TIP3    H172451   3.638   6.309   3.056 -0.6257 -0.5780 -1.4456
17012TIP3    H272452   3.599   6.184   3.131 -0.7317 -0.2917 -1.0179
17013TIP3   OH272453   6.069   2.167   1.634 -0.6737  0.2940  0.2071
17013TIP3    H172454   6.055   2.132   1.722  0.6285 -0.5891  0.0787
17013TIP3    H272455   6.164   2.169   1.622 -0.8174  0.4550 -1.1643
17014TIP3   OH272456   0.842   6.494   0.011 -0.3547 -0.3461 -0.0377
17014TIP3    H172457   0.818   6.403  -0.010 -2.7121 -0.1464  1.3976
17014TIP3    H272458   0.901   6.486   0.085 -1.5156 -0.7247  0.8819
17015TIP3   OH272459   1.599   0.785  12.223  0.9664 -0.3641 -0.0694
17015TIP3    H172460   1.679   0.737  12.201  1.5194  1.2149 -1.6893
17015TIP3    H272461   1.581   0.839  12.147 -2.1976 -1.3053 -0.1152
17016TIP3   OH272462   5.147   0.945  10.494  0.1851 -0.2137  0.0971
17016TIP3    H172463   5.107   0.933  10.580  0.3713  0.0843  0.2289
17016TIP3    H272464   5.075   0.975  10.438 -0.2568 -1.7326 -0.2068
17017TIP3   OH272465   0.094   1.335   0.256  0.3266 -0.5315 -0.3419
17017TIP3    H172466   0.128   1.260   0.207  0.7886 -0.7719  0.3266
17017TIP3    H272467   0.065   1.298   0.340 -0.2523 -0.0948 -0.3485
17018TIP3   OH272468   3.528   5.290   3.016 -0.7114  0.0889  0.8833
17018TIP3    H172469   3.556   5.212   2.967 -1.1814  1.5458 -1.8628
17018TIP3    H272470   3.564   5.277   3.104  0.7403 -2.3702  0.0135
17019TIP3   OH272471   4.203   6.203   4.214  0.5826  0.2816  0.4752
17019TIP3    H172472   4.296   6.221   4.229  0.8938 -0.0374 -0.9872
17019TIP3    H272473   4.199   6.108   4.204  0.4009  0.4422 -1.2817
17020TIP3   OH272474   4.499   0.282  13.073 -0.1464 -0.3829 -0.1257
17020TIP3    H172475   4.458   0.198  13.053 -0.0517  0.0864 -2.5216
17020TIP3    H272476   4.580   0.282  13.023 -0.4754  1.4067 -0.7200
17021TIP3   OH272477   1.699   5.256  16.161 -0.4548  0.4409  0.2181
17021TIP3    H172478   1.786   5.225  16.137 -1.3930 -1.1302 -1.4067
17021TIP3    H272479   1.647   5.247  16.081 -2.1033  1.4227  1.1188
17022TIP3   OH272480   1.924   0.086  12.833 -0.4032 -0.2459  0.3029
17022TIP3    H172481   1.955   0.000  12.862 -0.4708  0.1016  1.4174
17022TIP3    H272482   1.993   0.147  12.860 -0.1925  0.0214 -0.7875
17023TIP3   OH272483   2.284   2.420   5.037 -0.2022  0.3574  0.1888
17023TIP3    H172484   2.368   2.383   5.063  0.7609  1.9385 -0.5560
17023TIP3    H272485   2.278   2.404   4.943 -0.2564  1.1506  0.0517
17024TIP3   OH272486   6.180   1.088   5.314  0.3468 -0.4996 -0.5499
17024TIP3    H172487   6.087   1.074   5.298 -0.1929  1.1132  0.9029
17024TIP3    H272488   6.195   1.181   5.295  0.7002  0.3276  3.0465
17025TIP3   OH272489   6.681   5.620   0.424 -0.9597 -0.3565 -0.4595
17025TIP3    H172490   6.699   5.531   0.453  1.5339  0.6781  1.4998
17025TIP3    H272491   6.621   5.655   0.489  1.6674  0.7547  1.5263
17026TIP3   OH272492   0.603   2.136  11.093  0.2158 -0.5203  0.0191
17026TIP3    H172493   0.666   2.110  11.025  0.1968 -0.3015 -0.0828
17026TIP3    H272494   0.638   2.098  11.174  0.1789 -0.8745 -0.1313
17027TIP3   OH272495   6.354   3.554  14.221  0.0024  0.7390  0.1016
17027TIP3    H172496   6.403   3.635  14.209 -0.9567  1.1500 -1.1791
17027TIP3    H272497   6.264   3.582  14.237 -0.2460 -0.0567  0.1454
17028TIP3   OH272498   6.444   3.538   1.286 -0.3566 -0.0692 -0.7710
17028TIP3    H172499   6.432   3.447   1.313  0.1078 -0.2243 -1.0867
17028TIP3    H272500   6.535   3.557   1.305 -0.7158  0.6799  0.3210
17029TIP3   OH272501   0.061   3.450  12.861 -0.2730 -0.6363  0.5928
17029TIP3    H172502   0.109   3.522  12.901 -1.0428  0.5818 -0.6110
17029TIP3    H272503  -0.005   3.426  12.925  0.2489 -0.5624  1.1696
17030TIP3   OH272504   6.131   4.358   2.856 -0.5075  0.1109 -0.2086
17030TIP3    H172505   6.102   4.421   2.790  0.7485  2.0705  0.9809
17030TIP3    H272506   6.073   4.374   2.931  0.2343  0.3439  0.3288
17031TIP3   OH272507   5.798   2.511  11.899  0.2639 -0.9045  0.2125
17031TIP3    H172508   5.745   2.492  11.821 -1.0100 -0.1952  0.8685
17031TIP3    H272509   5.735   2.546  11.962  1.7838  1.3864  0.5381
17032TIP3   OH272510   5.664   4.305  15.656 -0.0509  0.0048  0.0364
17032TIP3    H172511   5.652   4.249  15.732  1.6325  0.2918  0.5610
17032TIP3    H272512   5.754   4.288  15.628 -0.5683  0.0430 -1.8011
17033TIP3   OH272513   1.046   6.318   5.412  0.1961 -0.2232 -0.6228
17033TIP3    H172514   1.050   6.378   5.487 -2.0370  0.0637 -0.6657
17033TIP3    H272515   1.045   6.231   5.452 -1.9226 -0.0539 -0.1934
17034TIP3   OH272516   4.024   4.973   2.746 -0.4196  0.6763  0.1579
17034TIP3    H172517   4.101   4.928   2.781 -0.1013  0.1777 -1.1411
17034TIP3    H272518   3.951   4.916   2.769 -0.0147 -0.5852 -1.5055
17035TIP3   OH272519   3.163   3.065   1.186 -0.8002 -0.4866  0.2110
17035TIP3    H172520   3.174   3.020   1.102  1.6337 -1.0314  0.7490
17035TIP3    H272521   3.174   3.158   1.165 -1.5595 -0.4874 -0.2448
17036TIP3   OH272522   3.363   2.849   0.591 -0.0045  0.1568  0.4799
17036TIP3    H172523   3.298   2.896   0.539  0.9436  0.0571 -0.8534
17036TIP3    H272524   3.409   2.917   0.641 -2.2920  0.0705  2.9016
17037TIP3   OH272525   2.584   2.635  12.850 -0.3500  0.2600 -0.3069
17037TIP3    H172526   2.616   2.616  12.762  0.3728  0.1746 -0.0309
17037TIP3    H272527   2.565   2.729  12.849  1.9340  0.7911  0.1251
17038TIP3   OH272528   5.862   6.068  13.166 -0.4248  0.6748  0.1590
17038TIP3    H172529   5.837   6.158  13.144  0.6709  0.8793 -0.3321
17038TIP3    H272530   5.943   6.053  13.116 -0.1930 -0.3255  0.8093
17039TIP3   OH272531   4.520   3.129   6.124  0.0011  0.5812  0.0886
17039TIP3    H172532   4.587   3.068   6.157  0.8298  0.7995 -1.1426
17039TIP3    H272533   4.437   3.089   6.148  0.5533 -0.5028  0.2366
17040TIP3   OH272534   2.286   0.952  11.263 -0.0199 -0.5084  0.1833
17040TIP3    H172535   2.317   1.040  11.243 -2.4130  0.7195  1.3583
17040TIP3    H272536   2.351   0.917  11.324  0.8353  0.5532 -0.0827
17041TIP3   OH272537   6.577   2.073   1.051 -0.2366  0.0325  0.2778
17041TIP3    H172538   6.586   2.164   1.080  1.6154 -0.2227  0.6655
17041TIP3    H272539   6.607   2.075   0.960  0.0261 -0.2135  0.3577
17042TIP3   OH272540   3.454   5.967   5.375 -0.8052  0.2524 -0.2137
17042TIP3    H172541   3.508   5.952   5.297  0.9041  0.2428  0.9216
17042TIP3    H272542   3.504   6.030   5.427 -0.9452 -1.2239  1.7936
17043TIP3   OH272543   1.535   0.341   4.300 -0.0013  0.2480 -0.3480
17043TIP3    H172544   1.451   0.307   4.271  0.2765  0.4825 -1.4991
17043TIP3    H272545   1.518   0.378   4.387 -0.7828 -0.8470 -0.0087
17044TIP3   OH272546   5.234   4.867  16.164  0.0034 -0.0079  0.2800
17044TIP3    H172547   5.288   4.841  16.239 -1.4125 -0.5503  1.1476
17044TIP3    H272548   5.162   4.916  16.202 -1.4132 -1.3354 -0.5535
17045TIP3   OH272549   1.740   2.114   2.853 -0.2830 -0.0938  0.6270
17045TIP3    H172550   1.653   2.100   2.817 -0.9317 -0.4382  2.2368
17045TIP3    H272551   1.768   2.197   2.815 -0.2279 -1.1554 -1.8554
17046TIP3   OH272552   1.287   2.362  12.550  0.1949 -0.4008  0.0128
17046TIP3    H172553   1.300   2.271  12.578 -2.4197 -0.6929  0.4631
17046TIP3    H272554   1.266   2.409  12.631 -0.5531  0.1640 -0.5014
17047TIP3   OH272555   3.743   6.292  16.254  0.7623  0.2799  0.2536
17047TIP3    H172556   3.788   6.352  16.314 -0.2989  3.5136 -1.8955
17047TIP3    H272557   3.672   6.256  16.306  0.9720  1.5121  1.4749
17048TIP3   OH272558   1.755   3.278   4.943 -0.6609  0.1032 -0.4049
17048TIP3    H172559   1.707   3.308   4.866  1.4983  0.9143 -1.4983
17048TIP3    H272560   1.841   3.253   4.910  0.6321  1.3000  1.8407
17049TIP3   OH272561   4.776   5.828  15.820 -0.0656  0.6545 -0.1144
17049TIP3    H172562   4.815   5.884  15.888  0.9667  0.5793 -0.6269
17049TIP3    H272563   4.829   5.844  15.742 -2.1678  1.9086 -1.3905
17050TIP3   OH272564   0.280   0.373   1.781 -0.5325 -0.1656  0.0839
17050TIP3    H172565   0.319   0.421   1.853 -1.0469  0.7242 -0.2151
17050TIP3    H272566   0.341   0.301   1.764  0.4838  0.6397  0.2471
17051TIP3   OH272567   0.114   1.546   3.010 -0.0339  0.4199 -0.3589
17051TIP3    H172568   0.146   1.625   3.053  1.9290 -0.1102 -0.7792
17051TIP3    H272569   0.019   1.551   3.019  0.1726  1.7240  1.5249
17052TIP3   OH272570   0.080   0.778   2.988  0.5064 -0.1770  0.1208
17052TIP3    H172571  -0.014   0.761   2.979 -0.1990  1.0325  3.6405
17052TIP3    H272572   0.087   0.874   2.982  1.6141 -0.2763 -0.4581
17053TIP3   OH272573   3.134   1.073  11.217 -0.2558 -0.5258 -0.1458
17053TIP3    H172574   3.079   1.076  11.139  0.5180 -0.8489 -0.7195
17053TIP3    H272575   3.088   1.013  11.276  0.0196 -1.7005 -1.0608
17054TIP3   OH272576   0.472   0.860   2.258 -0.6399  0.8483  0.1055
17054TIP3    H172577   0.478   0.917   2.181  0.9551  1.8420  0.9186
17054TIP3    H272578   0.497   0.774   2.226 -2.1649  0.7411 -0.9381
17055TIP3   OH272579   5.837   6.269   5.207 -0.3731 -0.0607 -0.4158
17055TIP3    H172580   5.803   6.328   5.139 -2.9354 -1.0952 -0.1249
17055TIP3    H272581   5.796   6.299   5.288  1.2033 -0.0002  0.4015
17056TIP3   OH272582   1.548   5.533   1.764  0.6233  0.3135  0.1401
17056TIP3    H172583   1.596   5.461   1.724 -0.0686 -0.9915  1.5308
17056TIP3    H272584   1.461   5.529   1.724  0.6077  0.4289  0.1623
17057TIP3   OH272585   3.494   5.429  13.658 -0.3407  0.1318 -0.2218
17057TIP3    H172586   3.404   5.451  13.682 -0.0756 -0.2959  1.2868
17057TIP3    H272587   3.486   5.347  13.609 -0.8246  0.4715 -0.7196
17058TIP3   OH272588   5.749   2.360  15.197  0.1349  0.3942  0.7815
17058TIP3    H172589   5.789   2.361  15.110 -0.7977  0.7638  0.3440
17058TIP3    H272590   5.728   2.268  15.212  1.5057  0.1209  1.2085
17059TIP3   OH272591   4.348   4.528   0.752  0.9438 -0.2701  0.0985
17059TIP3    H172592   4.315   4.439   0.762 -0.9465  0.4010  0.0918
17059TIP3    H272593   4.277   4.577   0.711  1.4915  1.5096  1.1297
17060TIP3   OH272594   2.779   1.353   0.335  0.0641  0.3647 -0.1694
17060TIP3    H172595   2.804   1.327   0.247  1.2079  2.0917 -0.4001
17060TIP3    H272596   2.715   1.423   0.324 -0.8563 -0.3478  0.4122
17061TIP3   OH272597   0.650   4.273  11.532 -0.3495  0.5519 -0.0261
17061TIP3    H172598   0.640   4.240  11.621 -0.9180 -1.5291 -0.7968
17061TIP3    H272599   0.652   4.194  11.477  1.5542  1.6682 -1.7260
17062TIP3   OH272600   3.918   0.973   0.572  0.2482  0.4299 -0.2896
17062TIP3    H172601   3.838   1.023   0.589 -0.2809 -0.8660  1.3219
17062TIP3    H272602   3.948   0.945   0.659  0.8383 -1.5285 -1.0541
17063TIP3   OH272603   1.522   5.809  11.317 -0.3879 -0.4858  0.3714
17063TIP3    H172604   1.459   5.790  11.248 -0.5152 -0.3706  0.4549
17063TIP3    H272605   1.505   5.743  11.384 -0.3128 -0.5523  0.3256
17064TIP3   OH272606   6.304   5.981  14.315  0.4108  0.0706 -0.3107
17064TIP3    H172607   6.315   5.995  14.409 -0.4838 -0.0696 -0.1722
17064TIP3    H272608   6.338   5.893  14.300 -1.7530 -0.9641  0.3728
17065TIP3   OH272609   5.053   1.795   4.583  0.0683 -0.1989 -0.6774
17065TIP3    H172610   5.088   1.737   4.651 -0.9759  2.6905  2.6420
17065TIP3    H272611   4.959   1.777   4.582 -0.2902  1.3922  0.4904
17066TIP3   OH272612   5.501   1.551  16.338  0.5021 -0.0290 -0.1396
17066TIP3    H172613   5.442   1.567  16.411 -1.3886 -0.8224 -1.4148
17066TIP3    H272614   5.580   1.514  16.377 -1.0504 -1.9083  1.3895
17067TIP3   OH272615   2.248   1.161  15.009 -0.4384 -0.4757  0.7943
17067TIP3    H172616   2.309   1.100  14.968 -1.8728 -0.3731 -1.6956
17067TIP3    H272617   2.199   1.107  15.071 -0.3732 -1.4147  0.0454
17068TIP3   OH272618   1.989   4.244   4.815 -0.3634 -0.2340 -0.1489
17068TIP3    H172619   2.030   4.328   4.836 -1.9313  0.3202  0.8589
17068TIP3    H272620   2.061   4.181   4.822  0.3353  0.6817  1.6225
17069TIP3   OH272621   2.042   3.132   0.745 -0.4843 -0.0970  0.0492
17069TIP3    H172622   2.083   3.050   0.719 -0.2907 -0.6015  1.8281
17069TIP3    H272623   2.115   3.188   0.771 -0.6305  0.5999 -0.9497
17070TIP3   OH272624   4.666   5.966  15.032 -0.2747 -0.3811  0.2264
17070TIP3    H172625   4.619   6.042  14.998 -1.3336 -0.4855  1.3772
17070TIP3    H272626   4.678   5.909  14.956  1.3891  1.3248 -0.8634
17071TIP3   OH272627   4.256   5.204   1.793  0.0019  0.4004  0.5707
17071TIP3    H172628   4.280   5.156   1.872 -1.3968 -1.1611  0.1023
17071TIP3    H272629   4.340   5.223   1.750  0.6354 -2.4294  0.3455
17072TIP3   OH272630   0.054   2.316  13.126  0.0111 -0.3194 -0.0381
17072TIP3    H172631   0.084   2.292  13.214  1.2284 -1.0756 -0.6303
17072TIP3    H272632   0.118   2.380  13.095  1.1228 -1.9466 -1.3210
17073TIP3   OH272633   4.051   1.788  12.541  0.1536  0.2916 -0.0654
17073TIP3    H172634   4.093   1.830  12.466 -0.3464  1.4376  0.2764
17073TIP3    H272635   4.110   1.716  12.564  2.6156  2.5075  1.1102
17074TIP3   OH272636   0.852   0.031  16.516 -0.3975 -0.1481 -0.9264
17074TIP3    H172637   0.879   0.122  16.510  0.8448 -0.5221 -1.3887
17074TIP3    H272638   0.805   0.013  16.435  2.8351 -0.9599 -2.7789
17075TIP3   OH272639   3.590   4.260   4.593  0.3732  0.0525 -0.4747
17075TIP3    H172640   3.550   4.189   4.643  0.1853 -0.1477 -0.9100
17075TIP3    H272641   3.522   4.327   4.587  0.2394 -0.1140 -0.8531
17076TIP3   OH272642   0.208   3.925   2.787  0.2362 -0.1482 -0.4565
17076TIP3    H172643   0.189   3.895   2.876  1.7969  1.2722  0.4210
17076TIP3    H272644   0.221   4.020   2.797  0.8265 -0.0252 -2.1407
17077TIP3   OH272645   1.187   6.685  13.571  0.9545 -0.1979  0.2329
17077TIP3    H172646   1.269   6.641  13.546 -0.2739 -2.1086 -0.7490
17077TIP3    H272647   1.157   6.727  13.490 -0.7699 -2.5897 -0.5090
17078TIP3   OH272648   1.336   6.637  13.048  0.2245 -0.2471  0.4125
17078TIP3    H172649   1.243   6.635  13.029  0.3201  1.2557 -0.3790
17078TIP3    H272650   1.365   6.723  13.017  1.8486 -0.6361  0.7540
17079TIP3   OH272651   2.980   3.141   2.249  0.1427  0.4869 -0.4326
17079TIP3    H172652   2.904   3.121   2.194 -0.3322 -1.0125  0.7206
17079TIP3    H272653   2.952   3.119   2.338  1.9301 -0.1213  0.0220
17080TIP3   OH272654   0.542   0.001  12.522  0.0204  0.8600 -0.3006
17080TIP3    H172655   0.471   0.021  12.460 -1.8726  0.5999  1.6401
17080TIP3    H272656   0.497  -0.008  12.607  1.9481 -2.2246  0.5770
17081TIP3   OH272657   0.564   5.600   3.489 -0.0171  0.6308  0.4677
17081TIP3    H172658   0.532   5.526   3.438  1.8446 -0.0183  0.1343
17081TIP3    H272659   0.560   5.571   3.580  0.5984  0.1454  0.3470
17082TIP3   OH272660   5.336   3.310   4.180  0.4044  0.3109 -0.2064
17082TIP3    H172661   5.414   3.309   4.125  1.3095  0.8367  1.0139
17082TIP3    H272662   5.263   3.322   4.119  1.4310  1.7192 -1.2116
17083TIP3   OH272663   5.240   3.657   1.511  0.0241 -0.1793 -0.2623
17083TIP3    H172664   5.303   3.587   1.498  0.4188  0.0246  0.5251
17083TIP3    H272665   5.289   3.738   1.494  0.4046  0.0699  1.7302
17084TIP3   OH272666   3.791   5.359  13.681  0.6675 -0.0588 -0.1704
17084TIP3    H172667   3.759   5.348  13.771  0.1461  1.0093 -0.2102
17084TIP3    H272668   3.716   5.335  13.626 -0.0052  2.1036 -0.2688
17085TIP3   OH272669   2.376   0.254   5.091  0.6928 -0.8252  0.5777
17085TIP3    H172670   2.377   0.159   5.094  1.6947 -0.9322 -1.6544
17085TIP3    H272671   2.340   0.280   5.176  0.7326 -3.1605  1.3761
17086TIP3   OH272672   5.007   5.021  12.492 -0.0423 -0.1684 -0.4187
17086TIP3    H172673   4.962   5.067  12.562  2.2718  0.1591  0.9756
17086TIP3    H272674   4.956   4.942  12.478 -1.7880  0.8276  0.0456
17087TIP3   OH272675   0.013   1.427  16.649 -0.0820 -0.4043 -0.9223
17087TIP3    H172676  -0.020   1.510  16.615 -0.2414 -0.1960 -0.2536
17087TIP3    H272677   0.104   1.424  16.619 -0.5200 -0.7340 -2.3062
17088TIP3   OH272678   0.042   4.717   4.236  0.5006 -0.1001  1.1958
17088TIP3    H172679   0.020   4.691   4.146  0.3681  2.1413  0.5151
17088TIP3    H272680  -0.038   4.758   4.269  0.8248 -0.1300  2.0527
17089TIP3   OH272681   1.550   3.033  12.006 -0.3071  0.0392 -0.6969
17089TIP3    H172682   1.462   2.998  12.018  0.5368 -2.5778 -1.3038
17089TIP3    H272683   1.545   3.086  11.926 -1.5527  0.9313 -0.0575
17090TIP3   OH272684   6.737   6.656   0.278 -0.0086  0.8650  0.1616
17090TIP3    H172685   6.811   6.614   0.235  0.2578  0.3795  1.0771
17090TIP3    H272686   6.748   6.637   0.371 -2.3082 -0.8649  0.1649
17091TIP3   OH272687   0.804   4.524  16.892 -0.2885 -0.3107 -0.1129
17091TIP3    H172688   0.890   4.494  16.865 -0.5518 -1.3786  0.1995
17091TIP3    H272689   0.818   4.562  16.979 -0.2009 -0.8642  0.1183
17092TIP3   OH272690   3.376   3.004  15.353 -0.0146  0.0199 -0.0612
17092TIP3    H172691   3.375   3.018  15.258  0.2578 -0.1752 -0.0942
17092TIP3    H272692   3.287   2.976  15.374  0.1770 -0.8688 -0.4084
17093TIP3   OH272693   5.251   3.357  11.337  0.3776 -0.0062  0.2356
17093TIP3    H172694   5.208   3.441  11.350  0.9929  0.1389  1.5396
17093TIP3    H272695   5.344   3.374  11.352  0.4173 -1.0562  1.4424
17094TIP3   OH272696   5.051   3.108  14.879  0.0385 -0.9690  0.1962
17094TIP3    H172697   5.062   3.175  14.947 -1.7868 -0.8165  0.4006
17094TIP3    H272698   5.110   3.037  14.905  0.8872 -0.0727  0.7929
17095TIP3   OH272699   6.109   0.683   1.609  0.1311 -0.0638  0.0732
17095TIP3    H172700   6.032   0.722   1.650 -2.0186 -1.8308 -1.9574
17095TIP3    H272701   6.133   0.610   1.666  0.3307  0.5055  0.7222
17096TIP3   OH272702   6.313   0.100   3.660 -0.2973 -0.1595  0.0198
17096TIP3    H172703   6.318   0.194   3.641  2.7825 -0.0460  0.8451
17096TIP3    H272704   6.393   0.064   3.621 -0.5359 -2.1491  1.2396
17097TIP3   OH272705   1.761   0.813   0.270 -0.0303 -0.1297 -0.4222
17097TIP3    H172706   1.760   0.905   0.244 -0.6519 -0.0082  0.0111
17097TIP3    H272707   1.679   0.778   0.238  1.5892 -1.4159 -3.5696
17098TIP3   OH272708   1.568   3.457  13.902 -0.0095 -0.1274  0.1871
17098TIP3    H172709   1.540   3.457  13.994  0.4754 -1.0318  0.3459
17098TIP3    H272710   1.492   3.428  13.853 -0.3229  0.5186  0.2774
17099TIP3   OH272711   0.381   5.717   6.098 -0.0588 -0.1047 -0.3055
17099TIP3    H172712   0.394   5.776   6.172 -1.6206  0.2547 -0.2793
17099TIP3    H272713   0.287   5.720   6.081 -0.2916 -3.0221  0.0278
17100TIP3   OH272714   2.943   1.903   0.644 -0.3048 -0.0803  0.2115
17100TIP3    H172715   3.014   1.856   0.600 -0.4103  0.4357 -0.5350
17100TIP3    H272716   2.878   1.836   0.663 -0.6632 -0.1965 -1.2635
17101TIP3   OH272717   4.725   1.379  15.867 -0.0631  0.2448 -0.1883
17101TIP3    H172718   4.699   1.376  15.775  0.2168  0.0767 -0.2644
17101TIP3    H272719   4.643   1.382  15.915 -0.3292 -2.3526 -0.3390
17102TIP3   OH272720   2.222   3.828  11.350 -0.2381 -0.4926 -0.0838
17102TIP3    H172721   2.207   3.903  11.292 -0.6423 -2.1500 -2.1990
17102TIP3    H272722   2.150   3.769  11.332  0.3087 -1.6104  1.2475
17103TIP3   OH272723   2.623   0.895   4.383  0.1234 -0.2182 -0.3803
17103TIP3    H172724   2.597   0.946   4.307  0.0724 -0.8363 -0.7850
17103TIP3    H272725   2.718   0.889   4.377 -0.0454 -3.2838 -2.4386
17104TIP3   OH272726   5.637   4.395   5.257  0.2539 -0.1296 -0.1231
17104TIP3    H172727   5.568   4.334   5.282  0.0506  0.0702 -0.1892
17104TIP3    H272728   5.709   4.376   5.317  0.4450 -0.8906 -0.5759
17105TIP3   OH272729   4.717   1.800   0.173 -0.0513  0.1277 -1.1147
17105TIP3    H172730   4.726   1.883   0.127 -0.2979  0.6557 -0.2349
17105TIP3    H272731   4.629   1.803   0.212  0.8251  0.5352  0.9576
17106TIP3   OH272732   6.169   4.943  14.334 -0.2885  0.2025 -0.2832
17106TIP3    H172733   6.132   4.900  14.256 -0.9562 -0.5687  0.4436
17106TIP3    H272734   6.187   4.871  14.394  1.6073  0.6414 -0.2584
17107TIP3   OH272735   6.011   1.626   1.320  0.0895 -0.1057 -0.0275
17107TIP3    H172736   5.938   1.682   1.347 -0.6230  0.6956 -3.2369
17107TIP3    H272737   6.084   1.687   1.307 -0.1429 -0.1308 -1.6593
17108TIP3   OH272738   3.802   0.833  16.278  0.0762  0.4949 -0.0407
17108TIP3    H172739   3.733   0.851  16.343  2.7291  2.4083  2.5097
17108TIP3    H272740   3.799   0.738  16.266 -1.1053  0.1669  2.2666
17109TIP3   OH272741   2.650   0.133  15.404 -0.6407 -0.4207 -0.3751
17109TIP3    H172742   2.684   0.192  15.337  0.7632 -0.2425  0.4662
17109TIP3    H272743   2.573   0.178  15.439 -0.8124 -0.0739 -1.1615
17110TIP3   OH272744   6.531   3.791  11.379  0.1322 -0.1061  0.4516
17110TIP3    H172745   6.467   3.821  11.443 -1.9536 -3.3541  0.1210
17110TIP3    H272746   6.485   3.794  11.296  2.4093  2.8703 -0.8816
17111TIP3   OH272747   6.645   0.241  13.165 -0.0917 -0.1489 -0.1913
17111TIP3    H172748   6.593   0.320  13.182 -1.2994 -0.5850 -1.5879
17111TIP3    H272749   6.590   0.170  13.199 -0.4022 -0.6058 -1.5689
17112TIP3   OH272750   1.494   3.659   5.387 -0.2383  0.2099  0.4557
17112TIP3    H172751   1.421   3.598   5.395  1.2139 -1.4730  1.4820
17112TIP3    H272752   1.515   3.657   5.293 -1.9194  1.3032  0.0011
17113TIP3   OH272753   5.435   4.249  11.124  0.3544  0.8596 -0.1490
17113TIP3    H172754   5.417   4.174  11.181 -0.3116  1.2690  0.1988
17113TIP3    H272755   5.473   4.211  11.045  0.0465  0.1523  0.0374
17114TIP3   OH272756   3.631   0.110   4.725 -0.2645 -0.4638  0.3533
17114TIP3    H172757   3.626   0.152   4.640 -2.7935  1.0888  1.1572
17114TIP3    H272758   3.676   0.174   4.781 -0.6545 -0.5001  0.7079
17115TIP3   OH272759   2.527   5.073   1.025  0.1172 -0.6275 -0.3212
17115TIP3    H172760   2.487   5.115   0.949 -0.1156 -1.2815 -0.5621
17115TIP3    H272761   2.617   5.105   1.026 -0.6680  1.8212  0.9070
17116TIP3   OH272762   5.281   0.258  14.863  0.0589 -0.2879  0.1324
17116TIP3    H172763   5.230   0.208  14.926 -2.0331  0.1408 -1.0973
17116TIP3    H272764   5.327   0.192  14.811 -1.2675 -0.8718 -0.3408
17117TIP3   OH272765   3.554   3.064  15.095 -0.0214  0.4091  0.2094
17117TIP3    H172766   3.606   3.131  15.139 -0.0563  0.4286  0.2201
17117TIP3    H272767   3.496   3.112  15.037  0.3579  0.3589 -0.2203
17118TIP3   OH272768   2.219   0.647  16.686  0.5551  0.2694  0.1299
17118TIP3    H172769   2.142   0.660  16.630  1.1534  1.9660 -0.3546
17118TIP3    H272770   2.226   0.728  16.736  0.1185 -1.1370  2.6494
17119TIP3   OH272771   5.574   4.927   5.660 -0.1987  0.6959  0.3210
17119TIP3    H172772   5.529   4.846   5.683 -1.2375  1.8877  2.9115
17119TIP3    H272773   5.614   4.909   5.575 -0.7414 -2.3549  0.5948
17120TIP3   OH272774   5.994   6.257  13.535 -0.2791 -0.7370 -0.1236
17120TIP3    H172775   5.931   6.329  13.542 -0.2627 -0.8209  1.0706
17120TIP3    H272776   6.046   6.278  13.458  1.9948  2.3569  2.0298
17121TIP3   OH272777   0.836   2.123  14.374 -0.8313  0.3482  0.3797
17121TIP3    H172778   0.878   2.074  14.443  0.6192  0.1109 -0.6328
17121TIP3    H272779   0.770   2.064  14.338  1.7121 -1.4509 -1.6509
17122TIP3   OH272780   6.754   3.569  10.833  0.0967 -0.2518  0.2042
17122TIP3    H172781   6.752   3.665  10.837  0.9271  0.0067 -3.0281
17122TIP3    H272782   6.843   3.548  10.805 -0.7305 -1.7883 -1.4650
17123TIP3   OH272783   3.101   2.640  14.105 -0.2151  0.0479  0.4745
17123TIP3    H172784   3.012   2.619  14.077  0.5026  0.3447 -2.2884
17123TIP3    H272785   3.110   2.734  14.087  1.0343 -0.2430 -0.5740
17124TIP3   OH272786   1.297   3.235   4.985  0.5147 -0.1180 -0.6258
17124TIP3    H172787   1.345   3.288   4.921 -1.1088  0.9316 -1.0284
17124TIP3    H272788   1.287   3.150   4.942  0.5843  0.1613 -1.2095
17125TIP3   OH272789   6.216   3.630  16.519  0.0751  0.3532 -0.0620
17125TIP3    H172790   6.266   3.619  16.600  0.2529  0.0063 -0.2167
17125TIP3    H272791   6.141   3.571  16.529  0.4891 -0.2479 -0.4608
17126TIP3   OH272792   0.176   2.895  14.013 -0.1835  0.1045 -0.1422
17126TIP3    H172793   0.192   2.898  13.918 -0.4628 -0.9763 -0.2396
17126TIP3    H272794   0.108   2.829  14.023  2.2144 -2.3440  1.0939
17127TIP3   OH272795   5.952   6.767   4.004  0.1082  0.1631 -0.1475
17127TIP3    H172796   5.925   6.850   3.964  1.4051  0.5875 -0.1912
17127TIP3    H272797   5.993   6.793   4.087 -0.4252 -0.5276  0.3432
17128TIP3   OH272798   5.792   0.788  13.012  0.3855 -0.3127 -0.0575
17128TIP3    H172799   5.777   0.727  12.939 -1.1142  0.1362 -0.1568
17128TIP3    H272800   5.709   0.790  13.059  1.1734 -0.1920  1.3818
17129TIP3   OH272801   3.308   1.927  13.931  0.1351 -0.0674 -0.3726
17129TIP3    H172802   3.351   1.909  13.847 -3.4320  0.2247 -2.4557
17129TIP3    H272803   3.325   2.020  13.947 -0.4872  0.3078 -1.6986
17130TIP3   OH272804   6.685   6.099   5.865 -0.3048  0.2103  0.2970
17130TIP3    H172805   6.657   6.171   5.922  0.4039  0.2826  0.5536
17130TIP3    H272806   6.741   6.140   5.800  1.4066 -0.3228  1.3759
17131TIP3   OH272807   3.989   5.865   0.057  0.0459 -0.6251  0.6502
17131TIP3    H172808   3.917   5.831   0.110  0.1299 -2.5749 -0.3911
17131TIP3    H272809   4.055   5.893   0.120 -0.6957 -0.9415  1.5833
17132TIP3   OH272810   1.510   3.950   2.764  0.2717  0.0634  0.1303
17132TIP3    H172811   1.535   3.880   2.824  0.7577  0.3472  0.2658
17132TIP3    H272812   1.570   3.940   2.690 -1.1483 -1.0849 -0.9289
17133TIP3   OH272813   4.835   4.735   1.062  0.1958 -0.1126  0.0798
17133TIP3    H172814   4.901   4.717   0.995 -1.0394 -1.3855 -0.8489
17133TIP3    H272815   4.833   4.656   1.117 -1.5945 -0.7833 -0.8530
17134TIP3   OH272816   3.297   4.579   0.871 -0.3020 -0.7229  0.3576
17134TIP3    H172817   3.295   4.491   0.909  0.2526 -0.5104  0.9071
17134TIP3    H272818   3.250   4.633   0.934  0.2743 -0.4383  0.5505
17135TIP3   OH272819   4.698   0.164   3.816  0.3879 -0.0348 -0.3585
17135TIP3    H172820   4.617   0.140   3.770  1.5397 -1.0515 -1.9609
17135TIP3    H272821   4.713   0.092   3.876 -0.4902  0.7246  0.8088
17136TIP3   OH272822   2.999   1.482   4.395  0.9373  0.1135  0.2445
17136TIP3    H172823   3.078   1.536   4.382  0.9914 -0.4250 -2.0874
17136TIP3    H272824   2.990   1.433   4.314 -1.4128 -0.4063  0.7504
17137TIP3   OH272825   4.438   5.405  16.778  0.9785  0.1358  0.3666
17137TIP3    H172826   4.476   5.362  16.854  1.0931  0.3837  0.4494
17137TIP3    H272827   4.438   5.337  16.710  0.3034 -0.2766  0.7650
17138TIP3   OH272828   4.846   6.366   2.675  0.0483 -0.6010 -0.1089
17138TIP3    H172829   4.805   6.293   2.722 -1.0339  0.8684  1.3346
17138TIP3    H272830   4.907   6.404   2.739 -0.5336  0.6790 -0.2959
17139TIP3   OH272831   2.038   1.880   0.999  0.0002 -0.6692  0.1620
17139TIP3    H172832   2.115   1.870   0.943  0.7691 -0.1183  1.1085
17139TIP3    H272833   2.061   1.948   1.061 -0.8469 -1.2471  1.1481
17140TIP3   OH272834   2.815   2.188   4.884 -0.7058 -0.1005  0.3283
17140TIP3    H172835   2.858   2.104   4.867 -0.5475 -0.1820  1.0948
17140TIP3    H272836   2.747   2.194   4.817 -0.2313 -0.4927 -0.1961
17141TIP3   OH272837   4.153   0.418   5.508 -0.1303  0.4257 -0.0302
17141TIP3    H172838   4.151   0.400   5.602 -1.0804  1.3507  0.1428
17141TIP3    H272839   4.244   0.440   5.489 -0.0163  0.6370  0.7547
17142TIP3   OH272840   2.464   5.895  11.571 -0.4283  0.1860  0.6209
17142TIP3    H172841   2.497   5.985  11.567 -0.3022  0.1119  0.0106
17142TIP3    H272842   2.541   5.840  11.555 -0.7686  0.0071 -0.4918
17143TIP3   OH272843   3.776   5.646   2.237 -0.4717 -0.3735  0.4889
17143TIP3    H172844   3.831   5.724   2.246 -0.6614  0.0714 -1.7298
17143TIP3    H272845   3.694   5.679   2.201 -0.3173 -1.6322 -1.1404
17144TIP3   OH272846   5.174   3.995  16.834  0.6323  0.3820  0.3108
17144TIP3    H172847   5.241   4.016  16.898 -1.1607  1.7057  1.8924
17144TIP3    H272848   5.096   3.974  16.887 -0.9658  1.6786 -1.4020
17145TIP3   OH272849   4.223   6.163  14.174  0.0132  0.6354  0.3193
17145TIP3    H172850   4.256   6.248  14.144  0.1882  0.1619 -0.8820
17145TIP3    H272851   4.295   6.125  14.225  1.0424 -0.0035 -1.5300
17146TIP3   OH272852   5.620   2.846  16.412  0.0729 -0.5282 -0.2774
17146TIP3    H172853   5.567   2.925  16.422  1.1220  0.1361  0.2541
17146TIP3    H272854   5.668   2.859  16.330  2.1967  0.6349  1.0580
17147TIP3   OH272855   2.266   3.302  15.103 -0.4983 -0.3149  0.0909
17147TIP3    H172856   2.238   3.243  15.174  0.2874  0.5031  1.1122
17147TIP3    H272857   2.262   3.389  15.142  0.9412  0.0575 -0.5586
17148TIP3   OH272858   3.233   2.892  16.467 -0.0790  0.2832 -0.9426
17148TIP3    H172859   3.220   2.961  16.532 -1.6756  1.7749 -2.7268
17148TIP3    H272860   3.324   2.902  16.439 -0.2851  1.6702 -1.1552
17149TIP3   OH272861   2.700   1.130   6.216 -0.1765  0.5730 -0.1502
17149TIP3    H172862   2.725   1.181   6.294 -0.4840 -0.5269  0.6847
17149TIP3    H272863   2.693   1.040   6.247 -0.7028  0.1716 -1.3739
17150TIP3   OH272864   4.202   1.071  11.610 -0.2980 -0.4119  0.7636
17150TIP3    H172865   4.118   1.117  11.612  0.3930  0.8901  0.3093
17150TIP3    H272866   4.223   1.062  11.517  0.5447  0.1639  0.8922
17151TIP3   OH272867   4.271   4.815   0.629  0.7968  0.2478 -0.1106
17151TIP3    H172868   4.231   4.899   0.651 -1.5303 -0.8040  0.0938
17151TIP3    H272869   4.365   4.832   0.627  0.3283  3.4167 -2.6365
17152TIP3   OH272870   6.599   1.842   1.848  0.5401 -0.3654 -0.0325
17152TIP3    H172871   6.695   1.843   1.848  0.6456 -2.9769  0.2011
17152TIP3    H272872   6.574   1.914   1.791  2.6027  1.1165  0.8051
17153TIP3   OH272873   4.018   4.321   0.568  0.3392 -0.1009  0.1916
17153TIP3    H172874   4.001   4.412   0.592  0.9867 -0.0005  0.2894
17153TIP3    H272875   4.113   4.314   0.566  0.2946 -0.8775  0.5535
17154TIP3   OH272876   2.854   6.548   1.860  0.6210  0.4533 -0.3307
17154TIP3    H172877   2.913   6.616   1.828 -1.1348  0.9614 -2.8222
17154TIP3    H272878   2.902   6.466   1.848  0.9075  0.8527 -2.1965
17155TIP3   OH272879   1.634   0.781  16.259  0.2566  0.2173 -0.3293
17155TIP3    H172880   1.566   0.769  16.193  1.2350 -1.5077 -1.0814
17155TIP3    H272881   1.597   0.743  16.339 -0.7224  1.8310  0.0147
17156TIP3   OH272882   0.041   6.796   2.421 -0.2611  0.6733 -0.1537
17156TIP3    H172883   0.038   6.874   2.477 -0.5160  0.5706 -0.0237
17156TIP3    H272884   0.120   6.750   2.450  0.0010  0.9791 -0.3642
17157TIP3   OH272885   6.755   5.779  16.191  0.4867  0.0462  0.1959
17157TIP3    H172886   6.666   5.774  16.226  0.4019  0.6959  0.0868
17157TIP3    H272887   6.775   5.873  16.191  0.5915  0.0438 -1.2069
17158TIP3   OH272888   2.057   3.913   3.877  0.1006  0.4308 -0.4595
17158TIP3    H172889   2.095   3.874   3.956 -0.4067  1.9476  0.5699
17158TIP3    H272890   1.968   3.877   3.873  0.0482  0.5299 -0.2110
17159TIP3   OH272891   4.742   6.548   5.004 -0.0448 -0.6658  0.4572
17159TIP3    H172892   4.725   6.581   4.916  0.0708  0.1023  0.7160
17159TIP3    H272893   4.837   6.535   5.008 -0.1565 -1.6947  0.1384
17160TIP3   OH272894   5.659   1.871  15.572 -0.3951  0.0776  0.1343
17160TIP3    H172895   5.569   1.868  15.604 -0.1635  1.1325  0.9243
17160TIP3    H272896   5.710   1.832  15.643 -0.2140 -0.5118 -0.3110
17161TIP3   OH272897   2.648   1.843   1.927 -0.4490  0.2270 -0.1482
17161TIP3    H172898   2.667   1.919   1.982  0.4408  1.0631 -1.5508
17161TIP3    H272899   2.647   1.769   1.988  0.9181  1.0522  0.9377
17162TIP3   OH272900   2.603   6.370   5.890 -0.3956 -0.1147 -0.2794
17162TIP3    H172901   2.681   6.425   5.882 -0.6442  0.3307  0.3794
17162TIP3    H272902   2.552   6.409   5.960 -1.2482 -0.3718 -0.7392
17163TIP3   OH272903   2.754   0.855  13.202 -0.0288 -0.2616  0.0206
17163TIP3    H172904   2.713   0.769  13.193  1.3537 -1.0611  0.8670
17163TIP3    H272905   2.701   0.900  13.267 -1.0328 -0.2768 -0.7596
17164TIP3   OH272906   1.132   3.444   5.836  0.0044 -0.1248  0.4044
17164TIP3    H172907   1.079   3.517   5.804 -0.7104 -0.5634  0.5669
17164TIP3    H272908   1.220   3.461   5.803  0.4335  2.1025  2.4206
17165TIP3   OH272909   3.508   6.673  12.360  0.2463  0.1262  0.0046
17165TIP3    H172910   3.436   6.698  12.419 -0.2670 -1.3653  0.0607
17165TIP3    H272911   3.562   6.752  12.354 -0.9424  1.0340  0.6225
17166TIP3   OH272912   0.431   4.627   0.014 -0.5161  0.3246  0.0769
17166TIP3    H172913   0.498   4.695   0.024  0.5368 -0.7989  1.1666
17166TIP3    H272914   0.417   4.595   0.103 -0.3060 -1.4943 -0.5105
17167TIP3   OH272915   3.536   4.175  12.845  0.1243 -0.9602  0.3042
17167TIP3    H172916   3.441   4.178  12.853  0.1430  1.5843  0.3696
17167TIP3    H272917   3.566   4.130  12.925 -0.9284  0.2412  1.4147
17168TIP3   OH272918   1.795   1.041  11.839 -0.1886 -0.5641 -0.5178
17168TIP3    H172919   1.889   1.054  11.827 -0.1803 -0.8775 -0.7990
17168TIP3    H272920   1.770   1.108  11.903  0.1240 -0.1133 -0.8522
17169TIP3   OH272921   6.086   4.606  12.503  0.6606 -0.4509  0.6522
17169TIP3    H172922   6.130   4.609  12.418  0.9873 -0.2299  0.8294
17169TIP3    H272923   6.128   4.675  12.554 -0.5231  0.4090  0.5182
17170TIP3   OH272924   3.441   1.885  12.356  0.0529 -0.3899  0.0969
17170TIP3    H172925   3.454   1.798  12.396 -1.1962 -1.1928 -1.1731
17170TIP3    H272926   3.528   1.908  12.323 -0.0216 -2.3331 -1.7410
17171TIP3   OH272927   4.392   6.575   1.471  0.3289  0.2405 -0.3546
17171TIP3    H172928   4.416   6.504   1.412 -0.2019 -0.9887  0.8327
17171TIP3    H272929   4.472   6.595   1.519  0.0324 -1.0374  0.7524
17172TIP3   OH272930   4.928   3.410  11.738 -0.3984  0.0170  0.5557
17172TIP3    H172931   4.913   3.321  11.706 -0.1604 -0.1609  0.9339
17172TIP3    H272932   5.008   3.438  11.693  0.9424 -0.8792  2.2643
17173TIP3   OH272933   0.165   3.604   4.885  0.0541  0.1383 -0.2294
17173TIP3    H172934   0.176   3.667   4.813 -2.9869 -0.5623 -1.4477
17173TIP3    H272935   0.208   3.646   4.960 -0.4587  2.9405 -1.3766
17174TIP3   OH272936   2.416   6.437  16.139  0.8599 -0.0182 -0.8099
17174TIP3    H172937   2.510   6.453  16.149  1.1137 -1.9036  0.2052
17174TIP3    H272938   2.397   6.366  16.200 -1.3314  0.6087 -0.6847
17175TIP3   OH272939   1.146   2.104  14.071  0.3816  0.4970 -0.0711
17175TIP3    H172940   1.105   2.080  13.988  0.8964  0.5473 -0.3453
17175TIP3    H272941   1.187   2.024  14.102 -2.6392 -0.4476  1.8586
17176TIP3   OH272942   2.836   3.243  16.106 -0.2293 -0.2799 -0.3276
17176TIP3    H172943   2.841   3.338  16.090  2.0668 -0.6813 -2.6920
17176TIP3    H272944   2.845   3.235  16.201 -0.5674  1.8561 -0.0484
17177TIP3   OH272945   2.397   2.716   2.071 -0.1241 -0.3021  0.1623
17177TIP3    H172946   2.396   2.683   2.160 -2.1815 -1.3219 -0.1917
17177TIP3    H272947   2.405   2.638   2.016 -2.2822 -0.0459 -0.6049
17178TIP3   OH272948   2.611   3.129   1.671  0.7382  0.3368 -0.0161
17178TIP3    H172949   2.517   3.116   1.683  0.8572  0.1209  0.7433
17178TIP3    H272950   2.649   3.110   1.757  1.8350 -2.8251 -1.0655
17179TIP3   OH272951   1.246   1.510  14.776  0.6533 -0.2903  0.4769
17179TIP3    H172952   1.295   1.574  14.725 -0.1080 -0.7648 -0.9057
17179TIP3    H272953   1.175   1.482  14.718 -0.2397 -0.8787  1.7953
17180TIP3   OH272954   5.283   4.370  12.382 -0.1587  0.2169  0.7902
17180TIP3    H172955   5.354   4.370  12.318 -0.2784  1.6577  0.6221
17180TIP3    H272956   5.203   4.361  12.330 -0.1605 -0.7242  0.9284
17181TIP3   OH272957   4.992   5.385   2.089 -0.2205 -0.1474 -0.2268
17181TIP3    H172958   5.038   5.468   2.103 -0.9555  0.1636  0.4304
17181TIP3    H272959   4.943   5.397   2.008  0.4983 -0.3274 -0.6984
17182TIP3   OH272960   1.455   0.759  14.522  0.8221 -0.3888  0.4563
17182TIP3    H172961   1.450   0.736  14.615 -0.5294 -0.4148  0.4047
17182TIP3    H272962   1.404   0.691  14.478  2.4640 -1.0584 -0.4643
17183TIP3   OH272963   6.456   4.858   0.831 -0.1899 -0.3321 -0.1744
17183TIP3    H172964   6.517   4.793   0.866 -0.9931 -2.1170 -1.8906
17183TIP3    H272965   6.369   4.825   0.855 -0.6257 -0.1144 -1.3784
17184TIP3   OH272966   4.656   4.968   3.217 -0.4998 -0.4021 -0.0513
17184TIP3    H172967   4.572   4.931   3.189  0.1212 -2.8164  1.0527
17184TIP3    H272968   4.716   4.948   3.145 -0.0352 -2.2179  0.7730
17185TIP3   OH272969   3.710   3.273   0.573  0.4661 -0.5654  0.3040
17185TIP3    H172970   3.741   3.313   0.653  0.5133 -1.5497  0.7914
17185TIP3    H272971   3.671   3.190   0.601  2.5434 -2.0411 -0.9181
17186TIP3   OH272972   1.904   6.569   0.668  0.3241  0.3530  0.3618
17186TIP3    H172973   1.910   6.663   0.680 -0.7549  0.7212 -1.4866
17186TIP3    H272974   1.929   6.555   0.577 -2.6944 -0.6775 -0.4441
17187TIP3   OH272975   5.475   1.238   6.252  0.6732 -0.1582  0.0193
17187TIP3    H172976   5.471   1.332   6.233 -1.2493  0.1983  1.8036
17187TIP3    H272977   5.508   1.233   6.341 -1.6715 -0.9331  0.9303
17188TIP3   OH272978   0.963   6.708  12.528  0.1882 -0.2490 -0.2051
17188TIP3    H172979   0.974   6.800  12.505  1.6170 -0.0811  1.0270
17188TIP3    H272980   1.015   6.661  12.463 -0.4185 -0.1879 -0.7416
17189TIP3   OH272981   0.033   5.979  15.047  0.2075  0.0795  0.9155
17189TIP3    H172982   0.114   5.932  15.028 -0.3694 -1.0871  1.2617
17189TIP3    H272983  -0.037   5.918  15.024 -0.6145  1.3039 -0.0164
17190TIP3   OH272984   6.140   6.361   5.459  0.6531 -0.4545  0.1457
17190TIP3    H172985   6.167   6.368   5.368 -0.4653 -0.2890 -0.1885
17190TIP3    H272986   6.112   6.450   5.482 -2.2718 -1.1365 -0.4180
17191TIP3   OH272987   3.135   5.740   1.099  0.1165 -0.2093  0.1820
17191TIP3    H172988   3.214   5.685   1.097  0.8631  0.8333  0.0185
17191TIP3    H272989   3.169   5.829   1.091 -1.0272  0.3137  1.0211
17192TIP3   OH272990   2.100   1.089  10.979  0.1313  0.1322  0.0671
17192TIP3    H172991   2.149   1.171  10.982  0.4413 -0.0382 -0.2495
17192TIP3    H272992   2.039   1.100  10.905 -0.0667  0.2105  0.2417
17193TIP3   OH272993   1.187   5.269   5.600 -0.3524 -0.5354 -0.7778
17193TIP3    H172994   1.263   5.297   5.651  0.1631  2.1252 -2.7962
17193TIP3    H272995   1.205   5.178   5.577  2.0983 -0.0590 -0.9553
17194TIP3   OH272996   3.619   3.774  12.158 -0.6096 -0.2778 -0.1390
17194TIP3    H172997   3.626   3.823  12.240 -0.8772  0.4694 -0.5554
17194TIP3    H272998   3.584   3.837  12.095 -1.8210 -1.2444 -0.4740
17195TIP3   OH272999   6.466   6.543  16.378 -0.1095  0.5097 -0.3039
17195TIP3    H173000   6.495   6.456  16.353  1.1476  0.5498  0.9482
17195TIP3    H273001   6.525   6.570  16.448 -1.1312  1.9489  0.0584
17196TIP3   OH273002   5.037   1.453  16.208 -0.6545 -0.4884 -0.2270
17196TIP3    H173003   5.112   1.495  16.167  0.0096 -1.8612 -0.5023
17196TIP3    H273004   4.992   1.523  16.255  1.1268  0.2707  0.4358
17197TIP3   OH273005   3.780   0.555  14.144  0.0252  0.2681 -0.1630
17197TIP3    H173006   3.758   0.487  14.080  2.8207 -0.2132 -0.7143
17197TIP3    H273007   3.794   0.634  14.092 -1.3455  0.8514  0.2938
17198TIP3   OH273008   3.396   1.073   3.656  0.1018 -0.3804 -0.1096
17198TIP3    H173009   3.320   1.046   3.603  0.3033 -0.2400 -0.4749
17198TIP3    H273010   3.424   1.156   3.617 -0.1634  0.0711  0.6516
17199TIP3   OH273011   2.319   1.938  11.728 -0.2457  0.0521  0.1045
17199TIP3    H173012   2.271   1.870  11.681 -1.3154  1.0422 -0.3033
17199TIP3    H273013   2.409   1.931  11.696 -0.6495 -0.2302 -1.0348
17200TIP3   OH273014   1.344   5.290   4.481  0.1381 -0.3365 -0.2926
17200TIP3    H173015   1.315   5.215   4.533 -0.9975 -0.2749 -0.8157
17200TIP3    H273016   1.395   5.343   4.542 -2.9184  0.8331  1.4442
17201TIP3   OH273017   5.302   6.589  13.607 -0.0568  0.0186  0.4882
17201TIP3    H173018   5.351   6.658  13.562  0.5066 -1.2313 -0.8762
17201TIP3    H273019   5.213   6.597  13.573  0.0250  0.0230  0.2745
17202TIP3   OH273020   3.686   5.698  12.693  0.6542 -0.2127  0.0751
17202TIP3    H173021   3.608   5.670  12.742 -0.2454 -0.5563 -1.5015
17202TIP3    H273022   3.708   5.623  12.638  2.5145 -0.3596  0.9401
17203TIP3   OH273023   6.286   4.947   0.522 -0.8103 -0.2349  0.5253
17203TIP3    H173024   6.226   4.873   0.533 -0.1085 -1.1959 -1.5717
17203TIP3    H273025   6.343   4.921   0.450  0.7413  1.5607  1.0152
17204TIP3   OH273026   5.272   2.870  13.280  0.6550  0.8854 -0.2972
17204TIP3    H173027   5.216   2.856  13.203  1.0532  0.0859 -0.4548
17204TIP3    H273028   5.352   2.909  13.244  1.5891 -1.1349 -0.5952
17205TIP3   OH273029   1.611   3.029   5.927  0.1452  0.1200 -0.5416
17205TIP3    H173030   1.678   2.992   5.985  0.6380 -1.0225 -1.7722
17205TIP3    H273031   1.537   3.048   5.984  0.4814 -1.2947  0.4330
17206TIP3   OH273032   2.341   3.734   2.845 -0.2488  0.7466  0.2307
17206TIP3    H173033   2.248   3.713   2.855 -0.3411  0.7144 -0.6161
17206TIP3    H273034   2.344   3.829   2.842 -0.3855  0.7336 -0.7765
17207TIP3   OH273035   0.578   5.241   4.787 -0.3653  0.1669  0.2602
17207TIP3    H173036   0.649   5.292   4.827  0.2886 -1.1486  0.8602
17207TIP3    H273037   0.534   5.302   4.730  2.3842  0.6444 -1.5469
17208TIP3   OH273038   6.540   1.985  14.350  0.2857 -0.2327  0.7371
17208TIP3    H173039   6.522   2.050  14.418  1.1379  1.6362 -0.7423
17208TIP3    H273040   6.454   1.951  14.326 -0.0688 -0.6121  2.3990
17209TIP3   OH273041   2.991   1.162   5.291  0.1351  0.3241  0.5749
17209TIP3    H173042   3.048   1.236   5.310  2.2452 -1.3958  1.4217
17209TIP3    H273043   3.014   1.137   5.201 -1.9721  1.7775 -0.4588
17210TIP3   OH273044   2.883   6.397   0.507  0.6519  0.1625 -0.4958
17210TIP3    H173045   2.807   6.441   0.545  0.0766  0.3217 -1.7967
17210TIP3    H273046   2.870   6.304   0.530 -0.1955  0.1144 -1.1034
17211TIP3   OH273047   0.545   0.004  14.423 -0.5841 -0.2201 -0.4502
17211TIP3    H173048   0.539   0.099  14.437 -0.2334 -0.2959  0.2964
17211TIP3    H273049   0.454  -0.024  14.414 -0.6394  0.3862 -2.2770
17212TIP3   OH273050   3.163   2.717   4.198  0.1232  0.6500  0.0397
17212TIP3    H173051   3.071   2.710   4.224 -0.4359  3.4296 -0.8138
17212TIP3    H273052   3.210   2.735   4.279  0.2884 -2.5306  0.7764
17213TIP3   OH273053   2.015   5.728  13.450 -0.4276 -0.3156 -0.2197
17213TIP3    H173054   1.954   5.761  13.516 -1.0967 -0.3762 -0.8027
17213TIP3    H273055   1.994   5.635  13.443  1.8451 -1.1030  1.8575
17214TIP3   OH273056   0.722   1.807  12.325  0.0858  0.0442  0.0759
17214TIP3    H173057   0.760   1.752  12.256 -1.6689 -1.2449  0.0541
17214TIP3    H273058   0.796   1.856  12.361  1.0148  1.1946 -3.0626
17215TIP3   OH273059   3.558   1.750  16.154 -0.4046 -0.1571  0.0110
17215TIP3    H173060   3.470   1.758  16.118 -0.1681  0.2807 -0.5029
17215TIP3    H273061   3.568   1.827  16.210 -1.1398 -1.3743  1.8729
17216TIP3   OH273062   4.148   6.345  15.512 -0.0057 -0.1001 -0.4926
17216TIP3    H173063   4.143   6.249  15.516 -1.2051 -0.0677 -0.8512
17216TIP3    H273064   4.056   6.373  15.507  0.2664  1.1286  0.8022
17217TIP3   OH273065   0.525   4.986   5.168  0.1288 -0.0148  0.5977
17217TIP3    H173066   0.582   5.058   5.143  0.3091 -0.8012 -1.4627
17217TIP3    H273067   0.495   5.009   5.256  2.0742  1.3545  0.9817
17218TIP3   OH273068   0.421   0.279   3.988 -0.1017 -0.0762 -0.7589
17218TIP3    H173069   0.383   0.356   4.031  0.0145 -0.0641 -0.6776
17218TIP3    H273070   0.408   0.295   3.895  1.2981  0.7758 -0.8414
17219TIP3   OH273071   2.855   6.094  12.298 -0.4810  0.6995 -0.0491
17219TIP3    H173072   2.769   6.063  12.325 -0.8468  2.9871  1.7468
17219TIP3    H273073   2.893   6.022  12.247 -2.0457 -1.7030  2.0079
17220TIP3   OH273074   5.393   5.776   0.130 -1.0106 -0.5519 -0.3256
17220TIP3    H173075   5.413   5.820   0.047 -1.1884  0.9849  0.3960
17220TIP3    H273076   5.477   5.741   0.159 -0.6423  0.1958 -0.4509
17221TIP3   OH273077   0.232   0.037  16.069 -0.1474 -0.4736 -0.5897
17221TIP3    H173078   0.305   0.060  16.011 -0.1644  0.7566 -0.1528
17221TIP3    H273079   0.209   0.120  16.112  1.2103 -1.6466  2.7201
17222TIP3   OH273080   3.972   5.371  10.637  0.1470  0.0251 -0.3245
17222TIP3    H173081   3.912   5.444  10.620 -0.1576 -0.4818 -1.5760
17222TIP3    H273082   3.916   5.304  10.677 -0.1825 -0.4763 -1.5604
17223TIP3   OH273083   4.932   6.283   0.453  0.0760  0.1212  0.0065
17223TIP3    H173084   4.928   6.205   0.398  1.7835  0.0474 -0.0761
17223TIP3    H273085   5.003   6.336   0.416  0.7622  0.4317  1.6424
17224TIP3   OH273086   1.782   3.264  11.591 -0.0521  0.9259  0.1845
17224TIP3    H173087   1.731   3.252  11.511  0.4038  1.7203 -0.2346
17224TIP3    H273088   1.788   3.359  11.602  1.0409  0.8454  0.3987
17225TIP3   OH273089   1.294   1.884   2.590 -0.2546  0.5211 -0.2680
17225TIP3    H173090   1.229   1.832   2.544  1.6604 -1.2371 -1.1597
17225TIP3    H273091   1.332   1.940   2.522  1.0487 -0.4958 -0.4272
17226TIP3   OH273092   5.369   4.396   1.899 -0.0035  0.1196 -0.5593
17226TIP3    H173093   5.323   4.431   1.823  0.1958 -1.3599 -1.3971
17226TIP3    H273094   5.378   4.470   1.959 -2.6468  0.6787 -0.7586
17227TIP3   OH273095   2.387   2.009  16.940  0.2360 -0.6121 -0.3133
17227TIP3    H173096   2.335   2.002  17.020 -0.5898  0.6005 -0.7137
17227TIP3    H273097   2.442   2.086  16.954  0.0884 -0.3944 -0.8929
17228TIP3   OH273098   5.125   0.606  13.940 -0.7746 -0.6624 -0.4055
17228TIP3    H173099   5.060   0.623  14.008  0.3797 -0.4804  0.6806
17228TIP3    H273100   5.075   0.565  13.869 -2.2717  0.4500 -0.0631
17229TIP3   OH273101   3.792   5.940   2.187 -0.2875 -0.2510 -0.8688
17229TIP3    H173102   3.755   5.987   2.112  0.9227 -0.8020 -1.8476
17229TIP3    H273103   3.885   5.962   2.185 -0.2077 -0.4427  0.3559
17230TIP3   OH273104   6.662   6.744  12.507 -0.1300  0.2985  0.1147
17230TIP3    H173105   6.624   6.764  12.592 -0.5815  1.7653 -0.3925
17230TIP3    H273106   6.595   6.773  12.444  0.7998  0.6302 -0.7425
17231TIP3   OH273107   4.961   5.310   1.476 -0.5012 -0.4028 -0.0714
17231TIP3    H173108   4.935   5.322   1.567 -1.0956 -0.9036 -0.1669
17231TIP3    H273109   4.940   5.394   1.434  1.7557  0.6079  0.6674
17232TIP3   OH273110   1.911   6.650   3.623 -0.4491  0.3075 -0.2314
17232TIP3    H173111   1.835   6.679   3.672 -0.8266 -0.7430 -0.1591
17232TIP3    H273112   1.972   6.618   3.689  1.1661  3.4515 -0.0721
17233TIP3   OH273113   0.293   2.154   5.132 -0.0953  0.2016 -0.4932
17233TIP3    H173114   0.370   2.109   5.097  0.1050  0.3838 -0.2942
17233TIP3    H273115   0.222   2.129   5.074  0.2142  0.4272 -0.9765
17234TIP3   OH273116   3.949   6.168   0.819  0.0246  0.3330 -0.0412
17234TIP3    H173117   3.854   6.156   0.826  0.0192 -0.5975 -1.4814
17234TIP3    H273118   3.973   6.127   0.737  1.8673 -0.4661  0.8415
17235TIP3   OH273119   4.588   0.298   5.387  0.1070  0.5706 -0.1788
17235TIP3    H173120   4.670   0.321   5.430  0.2604 -0.4846  0.1189
17235TIP3    H273121   4.566   0.211   5.422  0.2552 -0.3585 -2.2414
17236TIP3   OH273122   0.480   0.203  11.506  0.2263 -0.3621  0.1559
17236TIP3    H173123   0.525   0.120  11.488  1.6781  0.5085 -0.4096
17236TIP3    H273124   0.529   0.268  11.456 -0.2761  1.0027  1.3636
17237TIP3   OH273125   4.319   3.887  10.910  0.9448  0.6109  0.1827
17237TIP3    H173126   4.329   3.938  10.829 -0.1803 -1.0915 -1.0924
17237TIP3    H273127   4.260   3.939  10.964 -0.3054  0.6469 -1.1562
17238TIP3   OH273128   1.059   3.721   3.610  0.0573  0.1701  0.0648
17238TIP3    H173129   0.982   3.721   3.553  1.1948 -3.5185 -1.8005
17238TIP3    H273130   1.030   3.674   3.689  0.4019 -1.4925 -0.7664
17239TIP3   OH273131   6.672   0.571   2.162  0.2452 -0.2035 -0.0056
17239TIP3    H173132   6.589   0.593   2.205  0.5740  0.0573  0.5043
17239TIP3    H273133   6.702   0.491   2.205  1.0809  0.6128  0.9813
17240TIP3   OH273134   4.264   6.533   3.553  0.2028 -0.5620 -0.4064
17240TIP3    H173135   4.250   6.441   3.530 -1.7015 -0.2216 -0.7429
17240TIP3    H273136   4.301   6.529   3.642 -0.6207 -1.6469 -0.0804
17241TIP3   OH273137   3.625   6.614  14.617 -0.2846 -0.3783 -0.4172
17241TIP3    H173138   3.630   6.524  14.585  0.0873 -0.1043 -1.1854
17241TIP3    H273139   3.596   6.664  14.541 -0.2244  0.1839 -0.0737
17242TIP3   OH273140   2.762   6.724   3.481  0.1234  0.1091  0.0492
17242TIP3    H173141   2.777   6.791   3.415 -1.2669  0.3562 -0.0332
17242TIP3    H273142   2.716   6.769   3.552  0.0377 -0.5454  0.4226
17243TIP3   OH273143   1.582   4.179   4.180  0.1111  0.0962  0.7069
17243TIP3    H173144   1.625   4.194   4.095 -0.3671 -0.1650  0.4141
17243TIP3    H273145   1.492   4.209   4.167 -0.2831 -1.0152  0.7636
17244TIP3   OH273146   1.598   5.433  13.988 -0.1531  0.1158 -0.5207
17244TIP3    H173147   1.631   5.378  14.059 -3.4125 -1.9147 -0.3773
17244TIP3    H273148   1.567   5.513  14.031  2.5129  1.1882 -0.4327
17245TIP3   OH273149   2.375   5.173   5.235  0.4622  0.2775 -0.4481
17245TIP3    H173150   2.294   5.129   5.261  0.9011  0.2763  1.0117
17245TIP3    H273151   2.445   5.113   5.261  0.9563  0.4196 -1.3955
17246TIP3   OH273152   2.652   6.341  14.041  0.1338  0.3751 -0.9686
17246TIP3    H173153   2.600   6.395  13.981 -0.0334 -0.0896 -1.2388
17246TIP3    H273154   2.696   6.277  13.985  0.5844  0.4247 -0.6806
17247TIP3   OH273155   4.514   5.559  16.002 -0.3229  0.2175 -0.6773
17247TIP3    H173156   4.587   5.514  16.046 -0.1886  2.0742  1.1349
17247TIP3    H273157   4.464   5.599  16.073 -1.0355  2.0337 -2.1127
17248TIP3   OH273158   0.484   1.796   5.215 -0.0297 -0.0469  0.0575
17248TIP3    H173159   0.507   1.789   5.123  0.6487 -0.3337  0.2361
17248TIP3    H273160   0.389   1.801   5.217  0.0131  1.7630 -0.7629
17249TIP3   OH273161   4.248   2.586  12.617 -0.3058 -0.3748 -0.4251
17249TIP3    H173162   4.211   2.615  12.534  1.8549  0.2154 -1.2572
17249TIP3    H273163   4.207   2.642  12.683 -1.8056 -0.6307 -1.1209
17250TIP3   OH273164   1.692   0.163   0.194 -0.0277 -0.7553  0.0956
17250TIP3    H173165   1.656   0.250   0.212 -0.4029 -1.3619  2.8110
17250TIP3    H273166   1.625   0.121   0.140 -0.8262 -0.0171  0.4643
17251TIP3   OH273167   2.786   4.572   2.173  0.3455  0.2088  0.4877
17251TIP3    H173168   2.729   4.646   2.150  0.4357  0.5386  1.3076
17251TIP3    H273169   2.784   4.569   2.268  1.3705 -0.0489  0.5088
17252TIP3   OH273170   3.769   1.084   3.602 -0.5562  0.1871 -0.0049
17252TIP3    H173171   3.788   1.003   3.554  0.8277 -0.2173  1.1393
17252TIP3    H273172   3.835   1.086   3.671 -0.1520  2.6315 -0.3816
17253TIP3   OH273173   5.474   6.628  12.395  0.1603 -0.9025 -0.0571
17253TIP3    H173174   5.488   6.681  12.317 -1.6851 -0.1416  0.0833
17253TIP3    H273175   5.392   6.582  12.379 -0.7126 -0.0972  1.7313
17254TIP3   OH273176   5.462   3.055   3.651  0.4874 -0.4225 -0.1060
17254TIP3    H173177   5.376   3.058   3.609  0.6589  0.4718 -0.4236
17254TIP3    H273178   5.454   3.114   3.726  0.8929 -0.1441 -0.2795
17255TIP3   OH273179   6.735   0.107   0.216  0.3507 -0.2248 -0.3079
17255TIP3    H173180   6.791   0.107   0.139  0.0201 -1.4652 -0.5621
17255TIP3    H273181   6.732   0.016   0.245 -0.9799 -0.0866  0.1012
17256TIP3   OH273182   5.563   6.291  12.075 -0.0668  0.0239 -0.2795
17256TIP3    H173183   5.531   6.375  12.044 -0.1098  0.0432 -0.1828
17256TIP3    H273184   5.486   6.246  12.108  0.1186  0.4136  0.7390
17257TIP3   OH273185   0.232   4.142   1.489 -0.7091  0.0605  0.1181
17257TIP3    H173186   0.184   4.079   1.542 -2.2505  0.7205 -0.4200
17257TIP3    H273187   0.293   4.184   1.550 -0.4664 -1.1380  0.7231
17258TIP3   OH273188   5.416   1.980  14.620  0.6320  0.1553 -1.0930
17258TIP3    H173189   5.503   1.959  14.654 -0.1840 -1.0978  0.3590
17258TIP3    H273190   5.415   1.945  14.531  2.0524  1.4579 -1.6632
17259TIP3   OH273191   1.031   5.218  13.731  0.2218 -0.1723 -0.1124
17259TIP3    H173192   0.936   5.221  13.723  0.2001 -1.3885 -0.4146
17259TIP3    H273193   1.048   5.156  13.802  0.8118 -1.1795 -1.1046
17260TIP3   OH273194   3.589   3.533   1.200  0.0191 -0.5840 -0.4601
17260TIP3    H173195   3.606   3.445   1.166  1.7155  0.8051 -3.5883
17260TIP3    H273196   3.661   3.586   1.166 -0.0302  1.7722  2.6801
17261TIP3   OH273197   2.790   6.285  16.397 -0.3244  0.5176  0.1629
17261TIP3    H173198   2.756   6.212  16.448  0.5620  0.1146  0.1919
17261TIP3    H273199   2.775   6.362  16.453 -1.2018  0.3634  0.1559
17262TIP3   OH273200   3.575   2.296  13.648  0.0256 -0.6117  0.6867
17262TIP3    H173201   3.529   2.353  13.709 -1.8787 -1.2250 -0.1009
17262TIP3    H273202   3.514   2.225  13.629  1.3434 -1.5395 -0.3522
17263TIP3   OH273203   5.377   5.705  12.741 -0.5018  0.1064  1.0056
17263TIP3    H173204   5.393   5.650  12.817  1.8462 -1.4888 -0.4918
17263TIP3    H273205   5.449   5.769  12.742 -0.7969  0.4502  0.4732
17264TIP3   OH273206   0.244   0.194   5.896  0.5753 -0.1931 -0.1236
17264TIP3    H173207   0.286   0.177   5.812  1.7402  1.2773  0.1212
17264TIP3    H273208   0.168   0.248   5.875  0.6669 -0.1219 -0.2684
17265TIP3   OH273209   2.723   6.378  11.529  0.5926  0.1286 -0.0070
17265TIP3    H173210   2.748   6.440  11.598 -0.4378  0.8424 -0.2507
17265TIP3    H273211   2.800   6.372  11.473  0.5379  1.6083 -0.2760
17266TIP3   OH273212   5.180   5.115   3.486  0.5059 -0.7093 -0.0945
17266TIP3    H173213   5.144   5.105   3.574  0.7412  0.8315  0.2043
17266TIP3    H273214   5.123   5.063   3.430 -1.0014  0.0729  0.6628
17267TIP3   OH273215   4.202   4.420  12.345 -0.0876  0.4295  0.0689
17267TIP3    H173216   4.114   4.389  12.324  0.1283 -2.0294  2.2502
17267TIP3    H273217   4.257   4.383  12.276 -0.3834 -0.9362  0.5221
17268TIP3   OH273218   1.484   5.512   5.212  0.1336 -0.3780 -0.0615
17268TIP3    H173219   1.400   5.488   5.174 -0.0434  0.4375 -0.2163
17268TIP3    H273220   1.464   5.587   5.268  0.8393  0.2155 -0.5789
17269TIP3   OH273221   3.915   4.497   4.496 -0.1667  0.4546  0.2577
17269TIP3    H173222   3.889   4.434   4.564 -0.4914 -0.0561 -0.3272
17269TIP3    H273223   3.848   4.488   4.429  0.0232  1.1276 -0.0269
17270TIP3   OH273224   3.126   2.264   5.522  0.0247  0.7670  0.0503
17270TIP3    H173225   3.056   2.280   5.458 -0.5922  0.0301  0.5207
17270TIP3    H273226   3.081   2.223   5.596  0.6755  1.8000  1.0615
17271TIP3   OH273227   3.404   4.719   5.119  0.6105 -0.0017 -0.0593
17271TIP3    H173228   3.464   4.648   5.097  0.2959 -0.0173 -0.8774
17271TIP3    H273229   3.362   4.743   5.037  0.6880  1.1230  0.2030
17272TIP3   OH273230   5.674   4.151  16.916 -0.5518  0.0021  0.2752
17272TIP3    H173231   5.741   4.210  16.881  0.1208 -0.6222  0.4861
17272TIP3    H273232   5.699   4.065  16.884  0.2829 -0.6675  2.4913
17273TIP3   OH273233   6.510   3.861  13.079 -0.0238  0.0056  0.0445
17273TIP3    H173234   6.605   3.862  13.084 -0.0253  1.7491  0.3705
17273TIP3    H273235   6.482   3.924  13.145 -1.3329  0.6722 -1.0891
17274TIP3   OH273236   2.963   2.731  15.202  0.8746  0.1274  0.3493
17274TIP3    H173237   2.958   2.808  15.146 -1.9545 -0.3315 -0.1940
17274TIP3    H273238   2.997   2.662  15.146 -0.3670  0.0720 -0.3685
17275TIP3   OH273239   0.283   3.281  16.291 -0.3775  0.8106  0.4095
17275TIP3    H173240   0.332   3.217  16.343 -1.2152 -1.1395 -1.0850
17275TIP3    H273241   0.289   3.249  16.201 -1.2047  2.6238 -0.3510
17276TIP3   OH273242   4.025   0.421   3.736  0.0835  0.3486 -0.5626
17276TIP3    H173243   4.001   0.394   3.824 -0.9842  0.5802 -0.7615
17276TIP3    H273244   4.066   0.507   3.747  1.2218 -0.2296 -0.1722
17277TIP3   OH273245   2.110   4.463   5.555  0.4635 -0.0955 -0.2932
17277TIP3    H173246   2.165   4.385   5.560 -1.3883 -1.3568  1.6248
17277TIP3    H273247   2.055   4.449   5.478  1.5022  0.3142 -1.1366
17278TIP3   OH273248   5.105   2.812  12.713  0.1498  0.0028 -0.5195
17278TIP3    H173249   5.050   2.877  12.758  0.1717  0.2744 -0.8883
17278TIP3    H273250   5.169   2.786  12.779  0.3616  0.6128 -0.4736
17279TIP3   OH273251   0.791   1.250  15.701  0.1447  0.1053  0.1497
17279TIP3    H173252   0.722   1.254  15.767  0.0850  1.3269  0.0366
17279TIP3    H273253   0.757   1.190  15.635 -1.1344  1.2034 -0.2345
17280TIP3   OH273254   1.250   1.989   4.488  0.5483 -0.1081 -0.2492
17280TIP3    H173255   1.232   1.935   4.410  2.5604  0.1352 -0.9594
17280TIP3    H273256   1.345   2.003   4.485  0.5203  0.7936  1.7004
17281TIP3   OH273257   5.080   1.871   0.563  0.1780  0.3047 -0.2702
17281TIP3    H173258   4.991   1.902   0.545 -0.0397  1.1306  1.8778
17281TIP3    H273259   5.068   1.803   0.630  1.0349 -1.1358 -1.5166
17282TIP3   OH273260   5.003   1.130  11.035 -0.7236 -0.2339 -0.1899
17282TIP3    H173261   4.935   1.190  11.006 -2.0743 -1.8706 -0.5388
17282TIP3    H273262   4.973   1.044  11.006  2.2620 -0.8774 -1.8344
17283TIP3   OH273263   0.480   2.837  14.408  0.2154 -0.2547  0.1142
17283TIP3    H173264   0.528   2.771  14.357 -0.6080 -0.6855 -0.1234
17283TIP3    H273265   0.480   2.803  14.498 -1.1045 -1.1402 -0.1850
17284TIP3   OH273266   6.777   6.029  14.775 -0.0195  0.4258  0.1164
17284TIP3    H173267   6.770   6.074  14.859  2.6731 -0.3916  0.8997
17284TIP3    H273268   6.716   5.955  14.783 -0.5878  0.9664  0.9272
17285TIP3   OH273269   6.688   0.905  13.116  0.0226  0.3494 -0.2420
17285TIP3    H173270   6.738   0.886  13.037 -0.6040  1.0237 -0.8279
17285TIP3    H273271   6.604   0.861  13.103 -0.1171  0.5343 -0.0007
17286TIP3   OH273272   5.087   0.801  12.669  0.0489 -0.1689  1.0320
17286TIP3    H173273   5.068   0.887  12.706  2.1910  1.0058 -0.3658
17286TIP3    H273274   5.182   0.802  12.654 -0.2822 -1.5828 -1.8304
17287TIP3   OH273275   4.733   1.555   4.933 -0.0754  0.7348 -0.3190
17287TIP3    H173276   4.801   1.614   4.965  1.7487  0.0090 -2.5623
17287TIP3    H273277   4.771   1.516   4.854 -2.5249 -0.8981 -0.7895
17288TIP3   OH273278   1.576   3.545   3.861  0.7361 -0.0079  0.0855
17288TIP3    H173279   1.637   3.618   3.870  1.4590 -0.5263 -0.4700
17288TIP3    H273280   1.556   3.541   3.768 -0.2610  0.2339  0.2801
17289TIP3   OH273281   6.434   3.468  15.014  0.2405 -0.7698  0.2250
17289TIP3    H173282   6.445   3.530  14.941 -0.9371 -0.3158  0.3996
17289TIP3    H273283   6.377   3.400  14.979 -1.4457  0.1384  1.0642
17290TIP3   OH273284   2.344   1.402  16.940 -0.1359  0.0845 -0.2927
17290TIP3    H173285   2.388   1.357  17.012 -1.7577 -1.3504 -0.1431
17290TIP3    H273286   2.396   1.482  16.927  0.8921 -0.1958  1.6580
17291TIP3   OH273287   6.402   6.706   6.634 -0.0704  0.7770 -0.0887
17291TIP3    H173288   6.307   6.708   6.648 -0.1697 -0.9343 -0.3721
17291TIP3    H273289   6.414   6.659   6.552  0.9615  2.9110 -1.2680
17292TIP3   OH273290   1.083   3.041  14.049  0.6558  0.3498  0.0762
17292TIP3    H173291   1.073   3.072  13.959  3.4170  0.4273 -0.2856
17292TIP3    H273292   1.020   3.094  14.099 -0.4338  0.8120 -1.6635
17293TIP3   OH273293   2.195   3.027  13.562 -0.0923 -0.3570 -0.2627
17293TIP3    H173294   2.121   2.969  13.545  0.7771 -0.9659 -2.2042
17293TIP3    H273295   2.171   3.109  13.520 -0.1228 -0.1914  0.0724
17294TIP3   OH273296   1.571   2.744  13.858 -0.1784 -0.1851 -0.1165
17294TIP3    H173297   1.517   2.694  13.919 -0.0023 -0.3667 -0.1117
17294TIP3    H273298   1.661   2.731  13.887 -0.1784  0.7703  0.3629
17295TIP3   OH273299   5.062   6.535   4.988  0.0885 -0.6222  0.3047
17295TIP3    H173300   5.031   6.594   5.056  1.8861  0.7475 -0.0116
17295TIP3    H273301   5.026   6.450   5.012 -2.5324  0.5206  0.8122
17296TIP3   OH273302   6.168   6.103  11.642 -0.3124  0.4682  0.3536
17296TIP3    H173303   6.219   6.134  11.567  0.2118  0.1919  0.5884
17296TIP3    H273304   6.087   6.069  11.604  0.2248 -0.2711 -0.1581
17297TIP3   OH273305   4.502   2.727   2.691 -0.0479 -0.1854  0.4366
17297TIP3    H173306   4.447   2.651   2.675  1.2678 -1.3755  1.3365
17297TIP3    H273307   4.591   2.692   2.694  0.8264  1.7142 -1.2224
17298TIP3   OH273308   1.842   2.859   2.786  0.5392 -0.2072 -0.0651
17298TIP3    H173309   1.932   2.829   2.791  0.4136 -0.5747 -0.0121
17298TIP3    H273310   1.799   2.799   2.725  0.3458  0.0085 -0.1461
17299TIP3   OH273311   2.501   4.385   2.381  0.1219  0.0173 -0.4078
17299TIP3    H173312   2.549   4.465   2.402  0.9442 -0.6541  0.3559
17299TIP3    H273313   2.471   4.352   2.466 -0.2039 -0.4827 -0.7107
17300TIP3   OH273314   1.370   5.409  13.137 -0.4443  0.3277  0.5769
17300TIP3    H173315   1.430   5.483  13.129  1.0876 -0.9693 -0.5335
17300TIP3    H273316   1.296   5.444  13.186 -0.2495  2.8704 -0.7493
17301TIP3   OH273317   0.527   4.722  11.686  0.9327  0.2131  0.2097
17301TIP3    H173318   0.443   4.751  11.720  1.4163  0.6978  1.0014
17301TIP3    H273319   0.505   4.650  11.626 -0.0375  0.3503  0.3911
17302TIP3   OH273320   6.437   0.329  10.376 -0.2381 -0.4489 -1.1247
17302TIP3    H173321   6.415   0.401  10.434  1.2163 -0.9477  0.1228
17302TIP3    H273322   6.400   0.251  10.418  1.2290 -0.8787 -0.5700
17303TIP3   OH273323   5.782   1.206  13.432  0.1485  0.1041 -0.3260
17303TIP3    H173324   5.691   1.211  13.402  0.4743  0.0941 -1.3347
17303TIP3    H273325   5.810   1.297  13.439  0.4182  0.0915 -1.1486
17304TIP3   OH273326   5.133   6.588  10.623 -0.5479 -0.3348  0.1416
17304TIP3    H173327   5.203   6.650  10.603 -1.3943  0.7399  0.3985
17304TIP3    H273328   5.107   6.552  10.538 -2.1436  2.0175 -0.4819
17305TIP3   OH273329   5.082   4.591   2.198 -0.5025  0.1984 -0.3688
17305TIP3    H173330   5.092   4.508   2.243  0.8922  0.3553 -0.3531
17305TIP3    H273331   5.066   4.567   2.107 -1.3423 -0.0935 -0.1483
17306TIP3   OH273332   3.835   4.268   2.102 -0.4108  0.0407  0.3006
17306TIP3    H173333   3.872   4.351   2.072  0.7350 -0.7042 -0.4090
17306TIP3    H273334   3.757   4.256   2.047 -0.6565  0.6870  0.4921
17307TIP3   OH273335   6.685   6.513  14.501 -0.8025  0.1659  0.3377
17307TIP3    H173336   6.678   6.604  14.475  2.7899  0.9691  1.5133
17307TIP3    H273337   6.688   6.516  14.597  0.9914 -0.9016  0.3730
17308TIP3   OH273338   0.174   4.378   4.582  0.1893 -0.1365  0.5007
17308TIP3    H173339   0.186   4.447   4.516 -1.5038 -1.0033 -0.7839
17308TIP3    H273340   0.250   4.321   4.570 -0.4428 -0.6938 -1.2891
17309TIP3   OH273341   3.229   6.326  12.039 -0.6435  0.4737  0.1102
17309TIP3    H173342   3.228   6.245  12.090  1.0112 -0.2136 -0.8812
17309TIP3    H273343   3.293   6.382  12.084 -1.6903  1.2270  0.7201
17310TIP3   OH273344   6.615   1.480   4.579 -0.0410  0.6091  0.0009
17310TIP3    H173345   6.628   1.527   4.497  2.9813 -0.7409 -0.4430
17310TIP3    H273346   6.635   1.544   4.648  0.2810  0.9912 -0.4436
17311TIP3   OH273347   6.214   2.500   0.788  0.2745 -0.4068 -0.1761
17311TIP3    H173348   6.187   2.535   0.873 -0.0804 -3.2949  1.0152
17311TIP3    H273349   6.309   2.489   0.796  0.4379  0.5756 -0.6800
17312TIP3   OH273350   0.199   0.557   0.304 -0.3309 -0.0736  0.7594
17312TIP3    H173351   0.105   0.569   0.290 -0.8360 -2.2024  1.9092
17312TIP3    H273352   0.211   0.575   0.398  0.6292  1.1829  0.4273
17313TIP3   OH273353   0.893   1.361  17.007 -0.2122  0.5884 -0.2066
17313TIP3    H173354   0.940   1.423  17.063  1.2222  0.7269 -1.5003
17313TIP3    H273355   0.830   1.319  17.066  0.1875  1.8017  1.1561
17314TIP3   OH273356   1.181   5.133  16.547  0.1084 -0.1504  0.1207
17314TIP3    H173357   1.220   5.173  16.625 -0.5006 -0.7643  0.7516
17314TIP3    H273358   1.087   5.145  16.557 -0.1351 -2.0624  0.5465
17315TIP3   OH273359   0.081   3.594  14.308  0.3745  0.5787  0.0022
17315TIP3    H173360   0.137   3.554  14.374 -0.3233  1.5966  1.2608
17315TIP3    H273361   0.052   3.521  14.254  0.8344 -0.3217  0.9361
17316TIP3   OH273362   1.237   0.571   4.920  1.1019 -0.2370  0.4552
17316TIP3    H173363   1.251   0.664   4.907  0.6759 -0.2132  0.1443
17316TIP3    H273364   1.321   0.530   4.902  1.1009  0.0153 -0.1363
17317TIP3   OH273365   0.176   2.139   1.136 -0.4216 -0.0146  0.6243
17317TIP3    H173366   0.128   2.208   1.182 -1.0206 -0.4429  0.6514
17317TIP3    H273367   0.238   2.185   1.080  0.5986  0.5249  2.1353
17318TIP3   OH273368   1.874   1.975  12.223 -0.3846 -0.4373 -0.2917
17318TIP3    H173369   1.872   1.905  12.288 -2.1748 -0.9832 -0.8547
17318TIP3    H273370   1.879   2.055  12.274 -0.4212 -0.9051  0.4663
17319TIP3   OH273371   5.462   3.751  15.720  0.2611  0.0884  0.0539
17319TIP3    H173372   5.447   3.744  15.626  0.4859 -2.1968  0.1430
17319TIP3    H273373   5.377   3.735  15.760 -0.2932  2.9843  0.2946
17320TIP3   OH273374   4.713   2.333  15.822  0.4363 -0.6323 -0.4545
17320TIP3    H173375   4.755   2.345  15.737  2.3314  0.3611  0.5537
17320TIP3    H273376   4.706   2.421  15.858  0.7311 -1.1209  0.8790
17321TIP3   OH273377   5.405   0.293  12.346  0.4229 -0.6366  0.0736
17321TIP3    H173378   5.446   0.380  12.347  0.0195 -0.4478  0.6257
17321TIP3    H273379   5.395   0.273  12.253 -0.2709  0.2984 -0.0694
17322TIP3   OH273380   1.291   0.297  14.915  0.2247 -0.2517  0.2626
17322TIP3    H173381   1.327   0.209  14.920  1.3202  0.2365  1.6572
17322TIP3    H273382   1.213   0.288  14.861  0.5680 -1.9782 -0.0091
17323TIP3   OH273383   1.748   1.099  12.201  0.1006  0.1926 -0.0722
17323TIP3    H173384   1.742   1.137  12.289  0.7057  2.6191 -0.9938
17323TIP3    H273385   1.666   1.124  12.158  1.5869  3.0628 -1.5604
17324TIP3   OH273386   1.282   3.467   5.405 -0.0080  0.2201  0.7622
17324TIP3    H173387   1.260   3.394   5.348 -0.8855  1.0703 -0.0181
17324TIP3    H273388   1.201   3.487   5.452 -0.2984  1.8218 -0.3469
17325TIP3   OH273389   4.497   5.453  14.691 -0.2446  0.4759 -0.3737
17325TIP3    H173390   4.425   5.514  14.708  0.3442  0.5997  2.0883
17325TIP3    H273391   4.455   5.368  14.680 -1.0344  1.1362 -3.3064
17326TIP3   OH273392   4.404   5.015   1.949  0.3277  0.2991 -0.2533
17326TIP3    H173393   4.496   5.038   1.940  0.2314  0.6502 -0.3513
17326TIP3    H273394   4.404   4.920   1.965  0.8418  0.6743  2.3212
17327TIP3   OH273395   6.484   2.742  11.748  0.0418 -0.5806  0.8720
17327TIP3    H173396   6.509   2.826  11.784  0.8487 -1.2128  1.8342
17327TIP3    H273397   6.404   2.717  11.795 -0.0745 -0.4553  0.7411
17328TIP3   OH273398   0.649   1.249   3.839  0.2168  0.6044 -0.5831
17328TIP3    H173399   0.637   1.258   3.933  1.9240  0.9686 -0.3547
17328TIP3    H273400   0.626   1.158   3.820  1.2539  0.0978  0.4674
17329TIP3   OH273401   5.778   3.493   6.608  0.5149  0.2795 -0.2692
17329TIP3    H173402   5.862   3.447   6.611  0.6883  0.5874 -0.3541
17329TIP3    H273403   5.781   3.552   6.684  0.5907  0.6592 -0.5642
17330TIP3   OH273404   6.322   6.501  15.386 -0.7491  0.1046 -0.0950
17330TIP3    H173405   6.313   6.406  15.396 -1.1834  0.1250 -0.2783
17330TIP3    H273406   6.301   6.536  15.473 -4.7411  0.2970 -0.9386
17331TIP3   OH273407   0.080   4.587  11.593  0.0449 -0.1560 -0.6150
17331TIP3    H173408   0.035   4.666  11.562  0.6256 -0.1664 -1.5105
17331TIP3    H273409   0.033   4.563  11.673  0.7219  1.9248  0.4866
17332TIP3   OH273410   5.292   5.270   2.530  0.0448  0.0928  0.1745
17332TIP3    H173411   5.322   5.320   2.454  0.4391  1.9774  1.4995
17332TIP3    H273412   5.201   5.298   2.543  0.6674  1.5136  1.6977
17333TIP3   OH273413   4.429   5.285   1.467  0.1367 -0.4086  0.4184
17333TIP3    H173414   4.513   5.271   1.423  1.1861  0.4430  2.0680
17333TIP3    H273415   4.450   5.282   1.560 -1.2013  2.4036  0.8949
17334TIP3   OH273416   6.491   1.932  15.636 -0.2294 -0.0045 -0.3128
17334TIP3    H173417   6.475   2.027  15.633 -0.1281 -0.0017 -0.9285
17334TIP3    H273418   6.469   1.907  15.725 -1.0150  0.4750 -0.3589
17335TIP3   OH273419   0.814   5.552  12.983 -0.6807 -0.0273 -0.3651
17335TIP3    H173420   0.792   5.610  12.910 -0.8410  1.0771  0.5331
17335TIP3    H273421   0.750   5.573  13.051 -0.5050 -1.0007  0.1149
17336TIP3   OH273422   0.919   4.048   4.086  0.6886  0.2104 -0.3213
17336TIP3    H173423   0.908   3.953   4.079 -1.2282  0.3359  0.2761
17336TIP3    H273424   0.981   4.060   4.157 -1.1677 -0.6181  1.5671
17337TIP3   OH273425   1.844   5.183   4.498  0.1839  0.0648 -0.1891
17337TIP3    H173426   1.786   5.128   4.550 -0.2840 -0.3766 -1.1422
17337TIP3    H273427   1.790   5.258   4.473 -0.1069 -0.4965 -1.3369
17338TIP3   OH273428   3.736   2.001   3.772  0.2494  0.4748  0.0951
17338TIP3    H173429   3.694   2.074   3.816 -1.0700 -0.6804  0.8374
17338TIP3    H273430   3.667   1.962   3.719  1.1284  0.2164 -0.9017
17339TIP3   OH273431   5.823   1.798  15.361  0.1949  0.2027 -0.1107
17339TIP3    H173432   5.761   1.827  15.428  1.7406 -0.4589  1.6861
17339TIP3    H273433   5.778   1.725  15.317 -0.3114 -0.2907  1.1865
17340TIP3   OH273434   0.865   5.703  14.619  0.2167 -0.8635  0.1207
17340TIP3    H173435   0.812   5.752  14.682 -1.5880 -2.6952  0.1448
17340TIP3    H273436   0.815   5.708  14.537  1.6948  0.0721 -0.7831
17341TIP3   OH273437   1.767   5.714  11.254 -0.1565 -0.0947 -0.0458
17341TIP3    H173438   1.673   5.727  11.256 -0.0041  1.2034 -0.4501
17341TIP3    H273439   1.780   5.646  11.188 -0.8967 -1.4594  1.1597
17342TIP3   OH273440   0.082   0.082  13.620 -0.0891  0.9533 -0.3645
17342TIP3    H173441   0.011   0.126  13.667 -0.4320  1.4218 -1.2947
17342TIP3    H273442   0.062  -0.011  13.628 -0.2373  1.0305  0.2513
17343TIP3   OH273443   6.124   2.897   1.128 -0.1430  0.0605  0.0985
17343TIP3    H173444   6.101   2.989   1.143  2.6129  0.6263  1.4311
17343TIP3    H273445   6.188   2.899   1.057  0.6326 -0.6921  0.7510
17344TIP3   OH273446   4.178   2.640  10.736  0.2354 -0.0616 -0.1176
17344TIP3    H173447   4.192   2.734  10.725  0.1400 -0.0931 -0.5342
17344TIP3    H273448   4.102   2.621  10.682  1.1721 -0.6413 -1.2832
17345TIP3   OH273449   1.316   3.486   2.566  0.3042  0.5969  0.0174
17345TIP3    H173450   1.324   3.449   2.478 -1.1661  1.1835 -0.3890
17345TIP3    H273451   1.243   3.439   2.605  0.2264  1.1276  0.5208
17346TIP3   OH273452   5.148   5.752   3.002 -0.2755  0.0548  0.4008
17346TIP3    H173453   5.153   5.681   3.066  1.8173 -1.7057 -1.5243
17346TIP3    H273454   5.231   5.747   2.955 -0.9545  2.4591 -1.2340
17347TIP3   OH273455   3.816   3.375  11.000  0.0444 -0.2660  0.4080
17347TIP3    H173456   3.875   3.407  11.068 -0.3861 -2.2276  1.7952
17347TIP3    H273457   3.869   3.313  10.950  0.2389  0.8649 -0.8325
17348TIP3   OH273458   3.282   4.230   2.386  0.5161  0.0246  0.1564
17348TIP3    H173459   3.261   4.277   2.305 -3.0469  0.3443  1.0892
17348TIP3    H273460   3.373   4.255   2.405  0.9947  1.1133 -2.9016
17349TIP3   OH273461   4.269   2.223  11.669 -0.2014  0.2622 -0.4782
17349TIP3    H173462   4.260   2.130  11.648 -0.4395  0.7766 -2.9275
17349TIP3    H273463   4.180   2.252  11.687 -0.4285  0.4195 -1.7598
17350TIP3   OH273464   1.386   4.805  16.805  0.2655 -0.1846  0.0591
17350TIP3    H173465   1.387   4.746  16.880 -2.6252  1.3618  1.4765
17350TIP3    H273466   1.347   4.754  16.735  0.2045 -0.7513  0.4989
17351TIP3   OH273467   6.288   6.237  14.883 -0.4450  0.4277 -0.2641
17351TIP3    H173468   6.247   6.216  14.799  0.0721  0.2460 -0.4777
17351TIP3    H273469   6.271   6.331  14.895 -1.3809  0.2417 -0.0845
17352TIP3   OH273470   2.629   2.792   5.230  0.1770  0.4469  0.0012
17352TIP3    H173471   2.581   2.826   5.305  1.6850  0.7477  0.8792
17352TIP3    H273472   2.699   2.855   5.215 -0.6522  0.9349 -2.3409
17353TIP3   OH273473   2.646   4.504  12.448 -0.1259 -0.0047 -0.2412
17353TIP3    H173474   2.624   4.597  12.442 -1.2471 -0.2081  0.4488
17353TIP3    H273475   2.656   4.488  12.541 -1.5581 -0.9114 -0.2189
17354TIP3   OH273476   2.717   5.433   6.404 -0.2792 -0.2880 -0.1310
17354TIP3    H173477   2.751   5.365   6.346  0.6447 -0.1243  0.1842
17354TIP3    H273478   2.650   5.389   6.456 -0.1381 -0.7978 -0.3731
17355TIP3   OH273479   2.575   0.198  12.861 -0.4897 -0.5145  0.1322
17355TIP3    H173480   2.552   0.164  12.947 -0.6774  1.9591  1.1385
17355TIP3    H273481   2.510   0.160  12.802 -0.7012 -1.7972  1.1345
17356TIP3   OH273482   4.291   6.422  12.244  0.2550 -0.5868  0.0245
17356TIP3    H173483   4.357   6.432  12.176 -0.7206 -0.5842 -0.9630
17356TIP3    H273484   4.294   6.330  12.268 -0.1234 -0.8333 -0.8270
17357TIP3   OH273485   5.670   2.013   2.083  0.5523 -0.3759  0.6385
17357TIP3    H173486   5.603   2.014   2.151  0.6557 -1.4106  0.7650
17357TIP3    H273487   5.658   1.930   2.037 -0.1634  0.7126 -1.2848
17358TIP3   OH273488   3.313   4.619  10.955 -0.7819  0.2801 -0.0486
17358TIP3    H173489   3.285   4.686  10.892  1.0143  1.8143  0.6993
17358TIP3    H273490   3.241   4.555  10.956 -2.2200  1.7990 -1.3600
17359TIP3   OH273491   1.840   0.283  13.667  0.4900 -0.0234 -0.1448
17359TIP3    H173492   1.785   0.214  13.703  1.7651 -0.0226  1.9742
17359TIP3    H273493   1.929   0.249  13.672  0.8393  0.3375 -2.6330
17360TIP3   OH273494   1.855   1.471   2.502 -0.3010  0.2950 -0.1697
17360TIP3    H173495   1.770   1.515   2.504 -0.3407  0.2861 -1.1889
17360TIP3    H273496   1.840   1.392   2.451  0.1586 -0.0723  0.2531
17361TIP3   OH273497   4.726   3.277   0.234 -0.2443  0.0350  0.0064
17361TIP3    H173498   4.806   3.267   0.286  0.6155  2.7198 -0.6383
17361TIP3    H273499   4.661   3.222   0.279  1.6157 -1.3025  1.2301
17362TIP3   OH273500   3.335   0.207  15.633 -0.0215 -0.2951  0.0850
17362TIP3    H173501   3.242   0.194  15.655 -0.4472 -1.0627 -1.9653
17362TIP3    H273502   3.354   0.295  15.664 -2.1545  0.8552 -1.5926
17363TIP3   OH273503   6.065   4.345  12.615 -0.0674 -0.2929 -0.0859
17363TIP3    H173504   6.077   4.438  12.595  0.1610 -0.4040 -0.4728
17363TIP3    H273505   6.132   4.325  12.680 -0.2554 -0.1355  0.1561
17364TIP3   OH273506   3.770   4.928  12.266 -0.0410  0.1486 -0.1348
17364TIP3    H173507   3.765   5.017  12.229  0.6507 -0.0203 -0.6570
17364TIP3    H273508   3.764   4.871  12.190 -0.1649 -0.2522  0.1760
17365TIP3   OH273509   4.517   3.688  16.000  0.2276 -0.6057  0.3367
17365TIP3    H173510   4.603   3.666  16.038  0.3578 -3.2447 -1.2530
17365TIP3    H273511   4.521   3.653  15.911 -1.0293  2.9895 -1.2795
17366TIP3   OH273512   0.862   1.259  12.651  0.0989  0.5849 -0.2322
17366TIP3    H173513   0.847   1.177  12.698 -1.7359  1.6130  1.1141
17366TIP3    H273514   0.929   1.304  12.703 -0.5525  0.9066  0.3380
17367TIP3   OH273515   3.867   2.163  14.119 -0.1930 -0.2403  0.4960
17367TIP3    H173516   3.776   2.136  14.106 -0.1338 -1.0257  1.5266
17367TIP3    H273517   3.899   2.184  14.031 -0.9889 -1.2169 -0.0478
17368TIP3   OH273518   5.562   1.588   2.574 -0.5773  0.3563  0.3404
17368TIP3    H173519   5.520   1.561   2.656  0.8249 -1.5090  0.5120
17368TIP3    H273520   5.528   1.527   2.509 -2.4167  2.4050 -0.7757
17369TIP3   OH273521   6.554   4.576   2.766 -0.5140 -0.5915  0.6175
17369TIP3    H173522   6.487   4.644   2.761 -0.8692 -0.9714  0.0687
17369TIP3    H273523   6.591   4.573   2.678 -2.0997 -2.6805 -0.0555
17370TIP3   OH273524   0.758   4.483  14.783 -0.1366 -0.8260  0.2107
17370TIP3    H173525   0.672   4.515  14.753  0.3830  0.4925  0.0468
17370TIP3    H273526   0.739   4.442  14.868 -0.6874  1.1867  1.1312
17371TIP3   OH273527   3.633   4.258   1.891 -0.3983  0.6861  0.4675
17371TIP3    H173528   3.671   4.277   1.805 -1.9840  0.8877 -0.2414
17371TIP3    H273529   3.584   4.338   1.913  0.0157  0.6450  1.5789
17372TIP3   OH273530   5.936   2.635  16.131  0.1749 -0.2172  0.1400
17372TIP3    H173531   5.939   2.727  16.103 -1.0645 -0.1017  0.3097
17372TIP3    H273532   5.987   2.633  16.212 -0.4219  0.4911  0.5476
17373TIP3   OH273533   6.181   4.513  13.627 -1.2829  0.3714 -0.2720
17373TIP3    H173534   6.146   4.500  13.539  0.8037 -0.4745 -1.0474
17373TIP3    H273535   6.170   4.428  13.670 -0.3510  0.1061 -0.5111
17374TIP3   OH273536   1.022   3.974  14.614  0.3466  0.1233  0.2977
17374TIP3    H173537   0.946   3.930  14.653  0.7615 -0.4643  0.4654
17374TIP3    H273538   0.993   4.064  14.600 -0.6692 -0.3033 -0.4564
17375TIP3   OH273539   0.213   2.762  13.073  0.2596 -0.1541 -0.5169
17375TIP3    H173540   0.153   2.824  13.033  0.9740  0.2884 -0.9211
17375TIP3    H273541   0.267   2.814  13.131 -0.4284 -0.7156  0.6611
17376TIP3   OH273542   0.629   4.047  16.405 -0.3295  0.2400  0.1035
17376TIP3    H173543   0.669   4.057  16.318 -1.0567  0.2968 -0.2310
17376TIP3    H273544   0.615   4.136  16.435  0.8329  0.2357  0.7231
17377TIP3   OH273545   6.345   4.995   1.549 -0.2537 -0.4874  0.0103
17377TIP3    H173546   6.404   5.070   1.559 -1.6390  0.4922  1.3375
17377TIP3    H273547   6.262   5.034   1.522 -1.2531 -1.3964  1.6192
17378TIP3   OH273548   3.420   4.478   2.588  0.5349 -0.4318  0.1583
17378TIP3    H173549   3.452   4.484   2.678  0.7396  0.6706  0.0335
17378TIP3    H273550   3.325   4.478   2.595  0.5523 -0.5429  0.3819
17379TIP3   OH273551   4.304   6.271   3.926  0.2199 -0.0469 -0.0491
17379TIP3    H173552   4.340   6.290   4.013  0.1984 -3.0642  0.7381
17379TIP3    H273553   4.226   6.219   3.944 -0.2667 -0.0145 -1.8888
17380TIP3   OH273554   5.565   0.770  16.569 -0.3771  0.4879 -0.3056
17380TIP3    H173555   5.644   0.793  16.619 -0.1651  1.0687 -0.8955
17380TIP3    H273556   5.583   0.683  16.535  0.3963  0.9643 -1.1705
17381TIP3   OH273557   1.628   4.809   3.988 -0.2506  0.0528 -0.1684
17381TIP3    H173558   1.583   4.821   4.071  1.7607 -0.2871  1.0386
17381TIP3    H273559   1.621   4.714   3.971 -0.4523  0.0867 -0.2879
17382TIP3   OH273560   4.828   3.057  13.109  0.2166  0.2702 -0.3184
17382TIP3    H173561   4.869   3.090  13.189  0.1655 -1.6079  0.5317
17382TIP3    H273562   4.817   3.135  13.054  1.4294  1.4036  0.9639
17383TIP3   OH273563   5.747   3.145  13.390 -0.2444 -0.1531  0.1154
17383TIP3    H173564   5.734   3.053  13.367 -0.6402  0.0975 -0.7112
17383TIP3    H273565   5.738   3.149  13.485 -1.1371 -0.8148  0.0598
17384TIP3   OH273566   4.426   0.278  15.409 -0.4898  0.5729  0.8455
17384TIP3    H173567   4.518   0.255  15.391 -0.6456  0.3311  0.3458
17384TIP3    H273568   4.431   0.362  15.455 -0.0730  1.3196 -0.4975
17385TIP3   OH273569   2.203   4.613   3.042  0.1771  0.1819 -0.7542
17385TIP3    H173570   2.198   4.684   3.106  1.2444  0.4786 -0.9826
17385TIP3    H273571   2.166   4.649   2.962  1.2743  0.7015 -1.0436
17386TIP3   OH273572   3.163   5.864   4.846 -0.1993  0.0188  0.0924
17386TIP3    H173573   3.130   5.920   4.916  1.9974 -0.5223  1.6945
17386TIP3    H273574   3.189   5.783   4.891  2.4455  0.1193 -1.0506
17387TIP3   OH273575   1.279   1.229  15.468 -0.0084 -0.0498  0.6102
17387TIP3    H173576   1.218   1.157  15.448  1.1250 -1.7888  2.8646
17387TIP3    H273577   1.294   1.273  15.384 -0.9888 -2.2741 -0.8203
17388TIP3   OH273578   1.490   4.497   2.401  0.6523  0.5839  0.0878
17388TIP3    H173579   1.427   4.560   2.436  0.0825  2.3930 -3.6879
17388TIP3    H273580   1.437   4.430   2.358  1.1023  2.0950 -3.0745
17389TIP3   OH273581   4.532   4.577   0.962  0.3083 -0.5555 -0.1909
17389TIP3    H173582   4.589   4.647   0.930 -1.4315  1.2285  0.4071
17389TIP3    H273583   4.475   4.557   0.887 -0.0700 -0.3746  0.0467
17390TIP3   OH273584   3.216   4.118  15.662  0.0248  0.5029 -0.2171
17390TIP3    H173585   3.235   4.132  15.754  1.0875  2.1135 -0.6354
17390TIP3    H273586   3.132   4.163  15.648 -0.3720 -0.1370  0.0333
17391TIP3   OH273587   0.264   4.110  10.406  0.6548  0.8079  0.0268
17391TIP3    H173588   0.178   4.134  10.372  0.1963 -1.2631 -0.4184
17391TIP3    H273589   0.320   4.184  10.382 -0.5707  1.3383 -1.4280
17392TIP3   OH273590   3.545   4.414  14.150  0.2969  0.0844  0.9981
17392TIP3    H173591   3.602   4.445  14.080 -0.3955  1.1940  0.8856
17392TIP3    H273592   3.601   4.408  14.227  0.5287  1.4835  0.9709
17393TIP3   OH273593   3.883   4.274  11.889  0.1993  0.5215 -0.0703
17393TIP3    H173594   3.950   4.333  11.856  0.3914 -0.4978 -1.6011
17393TIP3    H273595   3.928   4.220  11.954  0.1118  1.7360  1.0517
17394TIP3   OH273596   0.603   4.540  11.292  0.1583 -0.0868  0.0045
17394TIP3    H173597   0.657   4.618  11.302  0.8822 -0.5780  0.0380
17394TIP3    H273598   0.522   4.561  11.338  1.3536 -0.2923  2.3757
17395TIP3   OH273599   5.728   0.176  13.149 -0.2841 -0.4502 -0.2152
17395TIP3    H173600   5.804   0.215  13.192 -1.6949  0.2791  1.7478
17395TIP3    H273601   5.719   0.224  13.067 -0.0966  1.2327  0.7107
17396TIP3   OH273602   1.020   5.991  11.726 -0.0938 -0.7905 -0.1118
17396TIP3    H173603   1.006   6.025  11.814  2.5903  1.7727 -0.5139
17396TIP3    H273604   1.021   5.896  11.737  0.6895 -0.5515  2.7324
17397TIP3   OH273605   0.681   5.484   1.456  0.3607  0.7596 -0.2319
17397TIP3    H173606   0.643   5.478   1.543 -0.4980  0.4031 -0.6239
17397TIP3    H273607   0.701   5.393   1.431  1.5703  0.9372 -0.0038
17398TIP3   OH273608   4.769   2.036   3.793 -0.1630  0.0339 -0.4565
17398TIP3    H173609   4.805   1.973   3.731  0.1228 -0.6425  0.3747
17398TIP3    H273610   4.840   2.054   3.854 -1.2316 -1.4560  1.3168
17399TIP3   OH273611   2.936   4.137  15.908 -0.1977 -0.4709  0.8282
17399TIP3    H173612   2.857   4.086  15.892 -1.7893  2.1974 -0.4782
17399TIP3    H273613   2.981   4.138  15.823 -0.6046  0.8661  0.6041
17400TIP3   OH273614   3.252   5.209   3.049 -0.0686  0.0259  0.3926
17400TIP3    H173615   3.232   5.220   3.142 -1.3850  1.9115 -0.0716
17400TIP3    H273616   3.329   5.264   3.033  0.3038 -0.4812  0.3831
17401TIP3   OH273617   4.497   4.039  15.551 -0.3685 -0.1984  0.2057
17401TIP3    H173618   4.527   3.969  15.608  0.6829 -0.7257 -0.9549
17401TIP3    H273619   4.407   4.015  15.527 -0.2347 -0.8192  0.3280
17402TIP3   OH273620   0.289   3.054  13.543 -0.5683 -0.8699  0.0974
17402TIP3    H173621   0.241   3.093  13.616  1.7259  1.2314  0.5738
17402TIP3    H273622   0.226   3.055  13.470 -1.6864  0.4952  1.0280
17403TIP3   OH273623   1.232   2.215   4.262  0.1908 -0.1245 -0.3981
17403TIP3    H173624   1.294   2.150   4.228  0.2793  0.2990 -1.0604
17403TIP3    H273625   1.148   2.191   4.222 -0.1177 -0.7443  0.5558
17404TIP3   OH273626   1.072   2.050  12.645  0.2407  0.4196 -0.3200
17404TIP3    H173627   1.160   2.078  12.621  0.6598 -1.0725 -0.6421
17404TIP3    H273628   1.086   1.994  12.722 -0.3467 -0.3327 -0.7513
17405TIP3   OH273629   0.605   1.635  15.813  0.8608 -0.4053  0.2717
17405TIP3    H173630   0.605   1.598  15.901  1.9365 -0.1216  0.4107
17405TIP3    H273631   0.523   1.605  15.774  2.4553 -4.6503 -0.3501
17406TIP3   OH273632   0.710   6.797   3.089  0.4979 -0.7357  0.1665
17406TIP3    H173633   0.743   6.885   3.106 -0.5791 -0.2613 -0.1001
17406TIP3    H273634   0.638   6.809   3.027  1.1490 -1.9385 -0.8780
17407TIP3   OH273635   2.134   3.459   2.112  0.4358 -0.2747 -0.6083
17407TIP3    H173636   2.110   3.412   2.191 -0.6621 -2.0319 -1.9213
17407TIP3    H273637   2.063   3.523   2.099  1.7733  1.6739  1.0033
17408TIP3   OH273638   0.899   1.365  15.255  0.3867 -0.0098 -0.2811
17408TIP3    H173639   0.902   1.334  15.164 -1.1267  0.6182 -0.5869
17408TIP3    H273640   0.891   1.285  15.307 -0.7785 -0.2990 -0.8652
17409TIP3   OH273641   0.813   5.367   5.237  0.5099  0.6717  0.1690
17409TIP3    H173642   0.842   5.438   5.295 -0.8135  2.3773 -1.1590
17409TIP3    H273643   0.890   5.347   5.184  0.3094  2.8477 -1.0711
17410TIP3   OH273644   4.941   5.550   0.659  0.4328 -0.0024  0.2663
17410TIP3    H173645   5.033   5.523   0.658  0.2788 -0.7071  2.0047
17410TIP3    H273646   4.935   5.618   0.592  2.9532  2.3109  2.1456
17411TIP3   OH273647   1.162   1.826  16.852 -0.6977  0.0569  0.3620
17411TIP3    H173648   1.116   1.742  16.850  1.0283 -0.9589  0.3275
17411TIP3    H273649   1.212   1.824  16.934  0.9176  0.1240 -0.5740
17412TIP3   OH273650   5.376   5.807   3.383 -0.5174  0.2300  0.4979
17412TIP3    H173651   5.340   5.896   3.390  0.0108  0.3312  2.2896
17412TIP3    H273652   5.463   5.820   3.344 -0.3444  0.5255  0.9737
17413TIP3   OH273653   6.244   6.233   4.395  0.1042  0.0414  0.1403
17413TIP3    H173654   6.237   6.180   4.475  0.8672  0.0483  0.2186
17413TIP3    H273655   6.326   6.281   4.405  0.1229  0.1729 -0.5721
17414TIP3   OH273656   4.814   2.109   0.495 -0.1749  0.1040  0.3855
17414TIP3    H173657   4.762   2.181   0.531  0.0834  0.5503 -0.1271
17414TIP3    H273658   4.850   2.143   0.413  0.1417 -0.5283  0.2523
17415TIP3   OH273659   4.930   4.674   1.723 -0.1199 -0.0851 -0.3549
17415TIP3    H173660   4.972   4.719   1.796 -0.1594 -1.2337  0.4109
17415TIP3    H273661   4.861   4.621   1.765 -0.0381 -0.8852 -1.2046
17416TIP3   OH273662   5.795   1.478   2.944 -0.5957 -0.2665  0.2061
17416TIP3    H173663   5.860   1.501   2.878 -0.1656 -1.0781  0.3360
17416TIP3    H273664   5.846   1.453   3.021 -1.0970  0.9341  0.9476
17417TIP3   OH273665   6.475   2.768   4.003 -0.4219 -0.0335 -0.4396
17417TIP3    H173666   6.463   2.787   3.910  0.3819  0.0886 -0.5200
17417TIP3    H273667   6.388   2.742   4.033 -1.0006  1.2257 -0.9268
17418TIP3   OH273668   4.451   2.438  10.716 -0.0927 -0.3005  0.1255
17418TIP3    H173669   4.494   2.522  10.702  0.3272 -0.5770 -0.2877
17418TIP3    H273670   4.361   2.460  10.739  0.7731  0.3992  3.3787
17419TIP3   OH273671   5.349   5.165   3.253  0.1306  0.3766  0.6912
17419TIP3    H173672   5.309   5.244   3.217  1.1726  0.7876  0.3944
17419TIP3    H273673   5.292   5.140   3.326 -0.5799  1.0141  0.3658
17420TIP3   OH273674   3.183   5.385  17.076 -0.1840  0.7284  0.0989
17420TIP3    H173675   3.242   5.372  17.150 -1.4935 -1.2322  0.8696
17420TIP3    H273676   3.101   5.415  17.116 -0.4037  1.2982 -0.7443
17421TIP3   OH273677   6.697   1.289   4.042  0.2949 -0.4681  0.4748
17421TIP3    H173678   6.674   1.196   4.042  0.8152 -0.6707 -1.9158
17421TIP3    H273679   6.788   1.292   4.074  0.5026 -0.8885 -0.0570
17422TIP3   OH273680   1.769   2.335   6.278  0.4973 -0.8541  0.4369
17422TIP3    H173681   1.852   2.289   6.290  1.0780  0.1160  0.2363
17422TIP3    H273682   1.747   2.322   6.186  0.1717 -1.5045  0.5965
17423TIP3   OH273683   0.837   5.624   3.206 -0.8794 -0.1759 -0.8385
17423TIP3    H173684   0.801   5.555   3.150  0.5557 -0.7385 -1.1136
17423TIP3    H273685   0.887   5.577   3.273 -2.3288  0.4984  0.7949
17424TIP3   OH273686   3.457   2.275   0.298  0.5962 -0.4559 -0.2623
17424TIP3    H173687   3.426   2.338   0.233 -0.1132 -1.4427 -0.9248
17424TIP3    H273688   3.500   2.328   0.365  1.1083  0.6160 -1.4015
17425TIP3   OH273689   3.451   5.980   4.977 -0.0586 -0.0172  0.1573
17425TIP3    H173690   3.369   5.992   5.025 -0.5178  0.4114 -0.7111
17425TIP3    H273691   3.444   5.894   4.936 -0.0249 -0.0302  0.1791
17426TIP3   OH273692   4.229   4.240   4.845  0.1826  0.0295 -0.5367
17426TIP3    H173693   4.188   4.324   4.825 -1.5473 -0.3002  1.3977
17426TIP3    H273694   4.284   4.257   4.921  0.1353 -0.5007 -0.3784
17427TIP3   OH273695   2.089   0.013  14.287 -0.4036  0.1127  0.5440
17427TIP3    H173696   2.132  -0.072  14.294 -0.2862  0.0450 -0.7605
17427TIP3    H273697   2.011   0.004  14.343  1.8935  0.7577  4.1884
17428TIP3   OH273698   2.359   5.773   3.276  0.0098  0.3499 -1.0688
17428TIP3    H173699   2.350   5.679   3.261 -0.2499  0.0031  0.9388
17428TIP3    H273700   2.415   5.779   3.353 -1.6805  1.7355  0.1323
17429TIP3   OH273701   2.978   0.644  16.078 -0.2711 -0.0370  0.4916
17429TIP3    H173702   2.929   0.635  16.160 -0.5591  1.3652  0.5015
17429TIP3    H273703   2.911   0.644  16.010 -0.3862  2.1427  0.5214
17430TIP3   OH273704   2.933   2.748   3.861  0.2458 -0.1429 -0.2844
17430TIP3    H173705   2.844   2.762   3.831  0.4188  0.3195 -0.6041
17430TIP3    H273706   2.937   2.790   3.947  0.7792  1.9358 -1.2656
17431TIP3   OH273707   6.536   0.868   0.674  0.6419  0.3173  0.1835
17431TIP3    H173708   6.463   0.887   0.616  1.2999  0.1548 -0.7276
17431TIP3    H273709   6.536   0.941   0.737  0.0123  0.5804 -0.1112
17432TIP3   OH273710   0.785   4.990  11.221 -0.4361  0.9792  0.3517
17432TIP3    H173711   0.838   4.961  11.147 -0.8148 -1.1851  0.8701
17432TIP3    H273712   0.700   5.012  11.183 -0.6794 -0.2803  0.1423
17433TIP3   OH273713   5.517   0.349  13.579 -0.5376 -0.4826  0.3594
17433TIP3    H173714   5.592   0.291  13.588 -0.0720 -0.2340 -1.5306
17433TIP3    H273715   5.546   0.433  13.615  0.6653  0.0435 -1.7033
17434TIP3   OH273716   3.233   2.985  14.842  0.1468  0.0082  0.1257
17434TIP3    H173717   3.256   2.925  14.914 -2.2374 -1.1526  0.0374
17434TIP3    H273718   3.186   3.056  14.885  1.8427  1.2123  0.0706
17435TIP3   OH273719   4.896   5.615  12.692 -0.4398 -0.7997 -0.1515
17435TIP3    H173720   4.986   5.632  12.663 -0.4612 -0.0247  0.2169
17435TIP3    H273721   4.904   5.542  12.753 -0.0864 -0.8605 -0.2671
17436TIP3   OH273722   0.948   2.483  16.751  0.1294 -0.3329 -0.0111
17436TIP3    H173723   1.003   2.405  16.760 -1.0304 -1.2919 -0.7805
17436TIP3    H273724   0.875   2.454  16.695 -1.1786  0.8606  0.9910
17437TIP3   OH273725   1.391   1.235   0.452 -0.0157 -0.3841 -0.6628
17437TIP3    H173726   1.426   1.324   0.454  1.0709 -0.7667 -1.3670
17437TIP3    H273727   1.455   1.183   0.502 -1.1186 -0.6211  0.5325
17438TIP3   OH273728   5.201   5.363  12.935  0.6487  0.5958  0.6147
17438TIP3    H173729   5.295   5.355  12.920  0.6012  0.9711  0.0952
17438TIP3    H273730   5.177   5.446  12.895 -0.2381 -0.3914 -0.9995
17439TIP3   OH273731   1.963   6.393  11.657 -0.2518  0.0783  0.2442
17439TIP3    H173732   1.969   6.297  11.653  0.4219  0.0046  2.0408
17439TIP3    H273733   1.919   6.410  11.740 -0.7149  1.3325 -0.2464
17440TIP3   OH273734   2.902   5.722   0.552  0.2861 -0.0065 -0.1164
17440TIP3    H173735   2.991   5.715   0.588  0.3288  0.8386 -0.0322
17440TIP3    H273736   2.865   5.635   0.563  0.8145 -0.1509  0.6286
17441TIP3   OH273737   3.332   3.950  14.089 -0.0245 -0.0566 -0.1869
17441TIP3    H173738   3.381   4.025  14.123  1.0340 -0.4808 -0.7257
17441TIP3    H273739   3.345   3.881  14.154  3.0341 -1.2676 -1.8639
17442TIP3   OH273740   6.261   3.990  14.143 -0.0974 -0.1730  0.0601
17442TIP3    H173741   6.328   3.921  14.133 -0.9532 -0.9218 -0.7192
17442TIP3    H273742   6.291   4.060  14.085  0.0588 -0.4734 -0.2270
17443TIP3   OH273743   5.858   5.046   2.060  0.2379  0.4115  0.1169
17443TIP3    H173744   5.916   5.119   2.082 -0.8932  2.1490 -2.1843
17443TIP3    H273745   5.911   4.989   2.004  0.9743 -0.3640  1.5323
17444TIP3   OH273746   5.233   5.772  10.593  0.0068  0.5378  0.2517
17444TIP3    H173747   5.288   5.732  10.526  0.3830  0.0807  0.8319
17444TIP3    H273748   5.294   5.821  10.648 -0.4114  1.7075 -0.2836
17445TIP3   OH273749   4.574   0.698   3.494  0.2610  0.6897 -0.0087
17445TIP3    H173750   4.630   0.668   3.422 -0.8258 -0.2810 -0.4883
17445TIP3    H273751   4.634   0.740   3.556  1.3240  0.8384 -1.1089
17446TIP3   OH273752   4.549   4.491  14.524 -0.5672  0.1947  0.8198
17446TIP3    H173753   4.604   4.458  14.594  0.6318 -0.5864 -0.4425
17446TIP3    H273754   4.581   4.580  14.507 -1.3794  0.6868  1.7535
17447TIP3   OH273755   3.263   1.977   3.616 -0.0306 -0.3417  0.2183
17447TIP3    H173756   3.242   1.885   3.633 -0.7821 -0.6115 -1.9474
17447TIP3    H273757   3.202   2.026   3.670  0.1533 -1.0965  1.1388
17448TIP3   OH273758   1.827   0.373   1.590  0.2147 -0.4284 -0.1548
17448TIP3    H173759   1.854   0.454   1.632 -1.9172  0.0274  0.4621
17448TIP3    H273760   1.744   0.394   1.548 -0.8115 -2.4361  0.6895
17449TIP3   OH273761   2.570   1.051  11.406  0.2660 -0.2521  0.4030
17449TIP3    H173762   2.555   1.084  11.317  2.8534  2.8205  0.8998
17449TIP3    H273763   2.528   1.115  11.463  2.0365  0.1004  1.3945
17450TIP3   OH273764   4.916   6.115  12.445 -0.2948  0.0094 -0.1164
17450TIP3    H173765   4.985   6.157  12.496 -0.1536 -1.4938  0.9698
17450TIP3    H273766   4.910   6.026  12.480 -0.7993 -0.8035 -2.1304
17451TIP3   OH273767   2.233   3.342   0.804  0.0122 -0.1935  0.0641
17451TIP3    H173768   2.300   3.367   0.740 -0.5297 -0.0830 -0.4724
17451TIP3    H273769   2.269   3.369   0.888  0.7080 -0.2723 -0.2000
17452TIP3   OH273770   5.544   6.517   1.467 -0.2118 -0.1786 -0.1579
17452TIP3    H173771   5.552   6.568   1.548  1.6378  0.9236 -0.9634
17452TIP3    H273772   5.507   6.578   1.404 -2.2209 -1.2093 -0.0471
17453TIP3   OH273773   3.246   2.520  13.268  0.4509 -0.3451  0.2073
17453TIP3    H173774   3.229   2.488  13.357 -1.4075  1.2191  0.4861
17453TIP3    H273775   3.298   2.599  13.281 -0.3116  0.2112 -0.0140
17454TIP3   OH273776   3.573   4.527   2.173  0.0547  0.4521 -0.7044
17454TIP3    H173777   3.516   4.593   2.135  0.0441  0.3427 -0.8785
17454TIP3    H273778   3.655   4.535   2.124  0.0996  0.4290 -0.6339
17455TIP3   OH273779   2.098   5.343  15.198 -0.3384 -0.1089 -0.4228
17455TIP3    H173780   2.093   5.430  15.158  1.4323  0.1222 -0.2114
17455TIP3    H273781   2.050   5.352  15.280  0.1420  0.7868 -0.2226
17456TIP3   OH273782   1.012   1.957  13.892 -0.0780  0.2199 -0.5645
17456TIP3    H173783   1.036   1.869  13.865  1.1633  0.4214 -0.1587
17456TIP3    H273784   0.990   2.002  13.810 -1.7457 -0.7353 -0.6873
17457TIP3   OH273785   2.383   0.257  15.343  0.2988 -0.1270 -0.1769
17457TIP3    H173786   2.308   0.313  15.323 -0.3859 -0.3180  1.7248
17457TIP3    H273787   2.361   0.215  15.426  1.8260 -1.4273 -0.3784
17458TIP3   OH273788   5.691   1.625  15.927 -0.1190  0.4996  0.9239
17458TIP3    H173789   5.676   1.660  16.015  2.2278  1.7079  0.9313
17458TIP3    H273790   5.745   1.692  15.884  3.1138 -2.2452  0.3120
17459TIP3   OH273791   3.542   6.709   5.348 -0.2978  0.5151 -0.4166
17459TIP3    H173792   3.456   6.698   5.307 -0.1209  1.5834 -1.1240
17459TIP3    H273793   3.602   6.720   5.274 -0.0881  3.3995  0.0520
17460TIP3   OH273794   1.316   1.232  11.899  0.0747 -0.4193 -0.5015
17460TIP3    H173795   1.309   1.229  11.803 -1.9701 -1.3080 -0.3786
17460TIP3    H273796   1.227   1.255  11.928  0.7374  0.1671  1.1920
17461TIP3   OH273797   6.686   2.067   3.477 -0.3850 -0.0555 -0.0801
17461TIP3    H173798   6.711   1.976   3.462  1.5434  0.5149 -0.7269
17461TIP3    H273799   6.728   2.115   3.405 -1.8723  1.2811 -0.0973
17462TIP3   OH273800   3.071   3.750  14.950 -0.3468  0.0435 -0.0979
17462TIP3    H173801   2.984   3.733  14.913 -0.5431 -1.8710  1.0596
17462TIP3    H273802   3.054   3.768  15.043  0.5146 -0.7774  0.2341
17463TIP3   OH273803   4.913   4.857   3.444 -0.7775  0.6446  0.1693
17463TIP3    H173804   4.823   4.889   3.452 -0.5501  1.0607  1.2856
17463TIP3    H273805   4.927   4.804   3.522 -0.2199  0.1383 -0.2639
17464TIP3   OH273806   6.078   5.963   4.209 -0.1394 -0.3919  0.0212
17464TIP3    H173807   6.046   5.874   4.197 -1.2996  0.2194 -1.6783
17464TIP3    H273808   6.128   5.982   4.130 -0.2631  0.6185  0.1689
17465TIP3   OH273809   5.067   5.816  10.847 -0.6505 -0.1094 -0.1727
17465TIP3    H173810   5.066   5.872  10.770 -1.6665 -0.1093 -0.1763
17465TIP3    H273811   5.084   5.728  10.813 -0.6821 -0.0472 -0.3490
17466TIP3   OH273812   2.508   0.961   3.483  0.1597 -0.4363 -0.0326
17466TIP3    H173813   2.493   1.025   3.553 -0.6935 -0.7210  0.0438
17466TIP3    H273814   2.524   0.879   3.529 -2.9714 -1.2207 -0.1414
17467TIP3   OH273815   1.258   4.467   0.941 -0.0286 -0.1074  0.3404
17467TIP3    H173816   1.206   4.512   1.007 -0.4940  1.6568 -1.1334
17467TIP3    H273817   1.330   4.528   0.921 -0.2801 -0.2704 -1.2158
17468TIP3   OH273818   6.762   5.983   5.530  0.8631  0.1953 -0.5822
17468TIP3    H173819   6.679   6.028   5.516  0.4150  0.1509  1.6163
17468TIP3    H273820   6.829   6.045   5.501  0.1288  0.7786 -1.0549
17469TIP3   OH273821   4.011   3.234   5.193 -0.2527  0.6118 -0.5985
17469TIP3    H173822   4.018   3.314   5.246 -2.2477  0.6793 -0.3638
17469TIP3    H273823   4.070   3.172   5.235  1.8462  2.1286 -1.1715
17470TIP3   OH273824   1.528   1.792  10.914 -0.2024  0.2081  0.3917
17470TIP3    H173825   1.538   1.729  10.985  0.4842  1.0657  1.0701
17470TIP3    H273826   1.469   1.748  10.852 -0.1487 -0.8868  1.0809
17471TIP3   OH273827   5.061   5.416   4.727 -0.5536  0.3062 -0.1905
17471TIP3    H173828   4.970   5.414   4.758 -0.0017 -0.6284  1.4869
17471TIP3    H273829   5.113   5.424   4.806  0.8298  1.8387 -1.1932
17472TIP3   OH273830   2.266   3.510   2.609 -0.1470  0.3571 -0.3847
17472TIP3    H173831   2.252   3.603   2.592  0.9716  0.6859  0.3506
17472TIP3    H273832   2.269   3.469   2.522  0.7642  1.2349 -0.7813
17473TIP3   OH273833   3.675   2.071  12.043  0.0775  0.6619 -0.2533
17473TIP3    H173834   3.721   2.155  12.048 -0.1691  0.7022  3.0985
17473TIP3    H273835   3.582   2.094  12.042 -0.0201  0.4211 -2.2901
17474TIP3   OH273836   2.873   6.688  15.905  0.3634  0.2340 -0.2765
17474TIP3    H173837   2.853   6.595  15.901 -0.5925  0.4093  0.0854
17474TIP3    H273838   2.915   6.708  15.822 -1.2654 -0.1101 -1.2208
17475TIP3   OH273839   0.542   4.737  12.065  0.1935  0.1555  0.2337
17475TIP3    H173840   0.509   4.667  12.009 -0.2331 -0.0190  0.6857
17475TIP3    H273841   0.601   4.788  12.009 -0.9485  0.5562 -0.6644
17476TIP3   OH273842   6.747   2.954  11.898 -0.3607 -0.7941 -0.0388
17476TIP3    H173843   6.770   3.013  11.825  1.2767 -1.2733  0.0564
17476TIP3    H273844   6.672   2.997  11.940  0.1040  0.6693 -0.6239
17477TIP3   OH273845   0.411   3.077  15.303  0.2578  0.4192  0.6556
17477TIP3    H173846   0.469   3.044  15.234  0.7491  1.1399  0.7162
17477TIP3    H273847   0.325   3.082  15.262  0.2857 -0.3609  0.4710
17478TIP3   OH273848   3.927   6.317   6.449  0.1649 -0.3136 -0.4433
17478TIP3    H173849   3.932   6.318   6.353  4.2558 -0.3158 -0.3700
17478TIP3    H273850   3.993   6.379   6.478 -1.1214 -0.1078  2.4695
17479TIP3   OH273851   4.185   1.769   2.504 -0.2120 -0.2205 -0.2451
17479TIP3    H173852   4.211   1.739   2.416  1.1177 -1.2357  0.4560
17479TIP3    H273853   4.263   1.757   2.557 -1.6881 -2.0481  1.6665
17480TIP3   OH273854   5.325   0.780  12.457  0.4886 -0.0975 -0.2088
17480TIP3    H173855   5.352   0.835  12.531  0.0835  0.3487 -0.3830
17480TIP3    H273856   5.390   0.710  12.454  1.2160  0.5542 -0.1814
17481TIP3   OH273857   2.584   5.296   4.374 -0.4286 -0.7144  0.4250
17481TIP3    H173858   2.610   5.250   4.295  0.1747 -0.2849  0.3617
17481TIP3    H273859   2.501   5.257   4.399 -0.5765 -0.9152 -0.3686
17482TIP3   OH273860   0.181   1.631   4.493 -0.4664 -0.2234  0.2376
17482TIP3    H173861   0.196   1.537   4.501 -0.7293 -0.4231 -1.3181
17482TIP3    H273862   0.124   1.640   4.416  0.6698  1.2833 -0.4850
17483TIP3   OH273863   3.083   2.077  13.705 -0.0419 -0.0021 -0.6223
17483TIP3    H173864   3.147   2.006  13.712 -0.1815 -0.7763 -4.8197
17483TIP3    H273865   3.128   2.153  13.744  1.5710 -1.4983  0.6203
17484TIP3   OH273866   3.600   1.279   3.598 -0.0227 -0.5599  0.2460
17484TIP3    H173867   3.675   1.223   3.580  0.1731  0.0044 -0.7074
17484TIP3    H273868   3.633   1.347   3.656  0.5917  0.5314 -1.3141
17485TIP3   OH273869   1.419   6.581  16.042 -0.5020 -0.2328  0.4627
17485TIP3    H173870   1.466   6.633  16.108  0.7494 -1.0932  0.2760
17485TIP3    H273871   1.472   6.502  16.032 -2.0649 -1.2964  0.3212
17486TIP3   OH273872   0.853   2.111   4.923  0.0574  0.0553  0.1364
17486TIP3    H173873   0.881   2.202   4.930  0.4200  0.0506 -1.0525
17486TIP3    H273874   0.799   2.109   4.845 -2.6934 -0.1069  1.9127
17487TIP3   OH273875   3.088   4.378  15.361  0.1984  0.0667  0.0692
17487TIP3    H173876   2.993   4.390  15.360  0.3935  2.3219  1.3098
17487TIP3    H273877   3.102   4.292  15.321 -2.3163 -0.1456 -0.5220
17488TIP3   OH273878   0.236   6.202  15.223  0.1014 -0.1781  0.2712
17488TIP3    H173879   0.276   6.154  15.150 -0.1777 -0.4391  0.2850
17488TIP3    H273880   0.235   6.139  15.295  0.5676  0.1456  0.5680
17489TIP3   OH273881   1.529   2.714   3.108  0.1548  0.4616 -0.6088
17489TIP3    H173882   1.537   2.782   3.041 -2.3897  2.1601  0.6484
17489TIP3    H273883   1.435   2.699   3.115  0.4166 -0.4799  1.7735
17490TIP3   OH273884   4.581   6.770   5.722 -0.4716  0.1802  0.1875
17490TIP3    H173885   4.515   6.781   5.790 -0.7319  1.2205 -0.2115
17490TIP3    H273886   4.656   6.821   5.753 -0.9960  1.6173 -0.8037
17491TIP3   OH273887   2.568   3.272  13.273 -0.5566  0.1782 -0.2563
17491TIP3    H173888   2.545   3.253  13.182 -1.8677  1.4042 -0.2196
17491TIP3    H273889   2.484   3.273  13.319 -0.3036  2.6728  0.3239
17492TIP3   OH273890   2.004   2.942  16.375  0.8748  0.1007 -0.1953
17492TIP3    H173891   2.083   2.996  16.369  2.2431 -1.8443 -0.9944
17492TIP3    H273892   2.036   2.852  16.364 -1.1800 -0.9703  1.7193
17493TIP3   OH273893   5.878   1.330   0.679 -0.1333 -0.6270  0.0720
17493TIP3    H173894   5.887   1.312   0.585  0.2145  0.2146 -0.0649
17493TIP3    H273895   5.830   1.254   0.713 -0.5934 -0.7681 -0.8454
17494TIP3   OH273896   3.270   0.004   3.506  0.6821  0.1861 -0.0214
17494TIP3    H173897   3.240  -0.083   3.479  0.7690  0.2680 -0.3979
17494TIP3    H273898   3.273   0.000   3.601  0.5725 -0.1875 -0.0306
17495TIP3   OH273899   0.059   4.231   1.274  0.5908 -0.1446 -0.0116
17495TIP3    H173900   0.073   4.204   1.364  1.1666 -2.0181 -0.6108
17495TIP3    H273901   0.006   4.310   1.280  0.8035 -0.1069  1.9541
17496TIP3   OH273902   1.884   2.543  11.689 -0.4238  0.3390  0.2806
17496TIP3    H173903   1.940   2.617  11.711  0.2631 -0.4903  1.3851
17496TIP3    H273904   1.850   2.513  11.773 -0.6210 -0.6575 -0.1495
17497TIP3   OH273905   6.012   0.331  12.798 -0.0614 -0.1825  0.1891
17497TIP3    H173906   5.973   0.410  12.759 -0.6527 -0.6412 -0.1606
17497TIP3    H273907   5.963   0.318  12.879 -0.0728 -0.2790  0.1671
17498TIP3   OH273908   0.883   6.668  12.825 -0.1497 -0.4903 -0.3612
17498TIP3    H173909   0.825   6.596  12.849  0.0339 -0.2695  0.7968
17498TIP3    H273910   0.886   6.666  12.730 -2.8335  0.0910 -0.5393
17499TIP3   OH273911   0.281   3.680  13.318  0.5651  0.7875 -0.2238
17499TIP3    H173912   0.361   3.732  13.333  0.5143  0.8371 -0.1246
17499TIP3    H273913   0.214   3.745  13.297  0.8223  0.6726 -1.5108
17500TIP3   OH273914   0.008   4.151  12.182  0.1116  0.5485  0.5663
17500TIP3    H173915   0.093   4.149  12.138 -0.1729  1.7549 -0.0815
17500TIP3    H273916   0.026   4.197  12.265  0.4595 -0.9075  1.3289
17501TIP3   OH273917   6.450   1.034  12.387 -0.6940 -0.2077 -0.2877
17501TIP3    H173918   6.526   0.978  12.372  0.0181  0.7132 -0.1533
17501TIP3    H273919   6.401   1.029  12.305  0.2336  0.2959 -0.8891
17502TIP3   OH273920   1.777   3.048  15.875  0.2027  0.1236 -0.2131
17502TIP3    H173921   1.707   3.058  15.810  0.9518  0.7577 -0.9354
17502TIP3    H273922   1.782   3.133  15.918 -1.3053 -0.6986  1.7804
17503TIP3   OH273923   1.688   3.199  12.206 -0.1367  0.7017  0.1511
17503TIP3    H173924   1.643   3.136  12.149 -0.6144  1.4493 -0.3080
17503TIP3    H273925   1.735   3.256  12.145 -1.0970  1.8499  0.4603
17504TIP3   OH273926   0.479   0.022  13.519  0.2732  0.2417 -0.2369
17504TIP3    H173927   0.515   0.092  13.573  0.9269 -0.8883  0.8273
17504TIP3    H273928   0.405   0.063  13.473  2.4667  2.4970 -2.0617
17505TIP3   OH273929   1.059   4.736  16.199  0.6211  0.2605  0.4223
17505TIP3    H173930   1.122   4.665  16.213  1.5194  0.3025 -2.6637
17505TIP3    H273931   1.097   4.811  16.245  1.2209 -0.4547  1.1368
17506TIP3   OH273932   4.570   3.664  11.303 -0.2997 -0.4914 -0.4276
17506TIP3    H173933   4.501   3.685  11.241 -1.7531 -0.8869  0.9776
17506TIP3    H273934   4.524   3.631  11.380  1.4072  0.0775  0.9187
17507TIP3   OH273935   5.377   4.039  17.001 -0.3767 -0.0257 -0.3191
17507TIP3    H173936   5.464   4.058  16.965  0.0747  1.9145  1.5729
17507TIP3    H273937   5.394   3.982  17.076 -0.9237 -0.9402 -0.8736
17508TIP3   OH273938   3.629   0.129  10.717  0.0973  0.6273  0.3033
17508TIP3    H173939   3.660   0.039  10.703 -1.9712 -0.0908 -0.0903
17508TIP3    H273940   3.661   0.177  10.640 -1.7795 -0.6930 -1.4363
17509TIP3   OH273941   1.930   6.750   2.457  0.4142 -0.1393 -0.1180
17509TIP3    H173942   1.988   6.678   2.481  1.9716  1.5932  1.6519
17509TIP3    H273943   1.893   6.781   2.540  0.3530  1.5338 -0.7180
17510TIP3   OH273944   2.091   2.888  16.038  0.1130  0.1683 -0.2764
17510TIP3    H173945   2.044   2.862  15.958  0.1709  0.6487 -0.4695
17510TIP3    H273946   2.067   2.980  16.051  0.4484  0.2138  0.0157
17511TIP3   OH273947   0.300   3.907  14.607  0.2351  0.0143 -0.2624
17511TIP3    H173948   0.226   3.880  14.554  0.4958  0.4034 -0.8366
17511TIP3    H273949   0.327   3.991  14.570  0.9242 -0.0944 -0.0239
17512TIP3   OH273950   0.805   2.236  10.343  0.1351 -0.0653  0.6813
17512TIP3    H173951   0.899   2.223  10.329 -0.0975 -0.0313 -1.0882
17512TIP3    H273952   0.790   2.329  10.322 -0.4088 -0.2464  0.2544
17513TIP3   OH273953   4.812   2.362  11.337  0.2145  0.1840  0.0983
17513TIP3    H173954   4.880   2.305  11.301 -0.3594  0.9603 -2.4092
17513TIP3    H273955   4.731   2.311  11.328  0.0235  0.4962  0.0389
17514TIP3   OH273956   1.511   5.561  15.414 -0.1281 -0.1337  0.0381
17514TIP3    H173957   1.546   5.544  15.502  0.1907  1.2027  0.1779
17514TIP3    H273958   1.583   5.538  15.355  0.8090  1.9131  0.2923
17515TIP3   OH273959   4.987   5.002  13.938 -0.1325 -0.7143 -0.1021
17515TIP3    H173960   4.993   5.079  13.994 -0.7983 -1.7366  1.4299
17515TIP3    H273961   4.971   5.037  13.850 -1.5825  0.8562  0.7476
17516TIP3   OH273962   4.587   6.757   2.179  0.4029 -0.0722  0.0498
17516TIP3    H173963   4.607   6.668   2.208  1.1729  0.1015  0.0926
17516TIP3    H273964   4.673   6.797   2.166  0.0617  0.5504 -0.3235
17517TIP3   OH273965   0.566   0.347  12.522  0.0463  0.1734 -0.5882
17517TIP3    H173966   0.630   0.302  12.577 -1.0760 -0.9051 -0.1228
17517TIP3    H273967   0.554   0.432  12.563  0.1847 -0.1289  0.0962
17518TIP3   OH273968   6.076   0.182   4.852  0.5786 -0.4547 -0.4284
17518TIP3    H173969   5.996   0.182   4.905 -0.9270 -0.4985 -2.5690
17518TIP3    H273970   6.121   0.263   4.877 -0.7942  0.2463 -0.1034
17519TIP3   OH273971   1.026   2.987   1.617 -0.3740  0.6467 -0.4215
17519TIP3    H173972   1.050   2.938   1.696  0.7340  0.7330 -0.6784
17519TIP3    H273973   0.984   3.067   1.649 -1.3853 -0.0428  0.0274
17520TIP3   OH273974   0.793   3.722  14.569  0.0521  0.0271  0.1626
17520TIP3    H173975   0.721   3.662  14.589 -0.3663  1.1357  2.2958
17520TIP3    H273976   0.760   3.776  14.496 -0.3541 -0.9579 -0.4001
17521TIP3   OH273977   5.072   5.281  15.794 -0.7837 -0.0954 -0.0157
17521TIP3    H173978   5.059   5.328  15.712 -1.4932  0.7382  0.5648
17521TIP3    H273979   5.141   5.329  15.839 -1.6478  0.5400  0.6683
17522TIP3   OH273980   1.967   1.610   3.299  0.2165 -0.3398  0.5413
17522TIP3    H173981   2.023   1.639   3.227 -0.7347  0.9500  0.2837
17522TIP3    H273982   1.880   1.643   3.276 -0.8177 -2.7700  0.6495
17523TIP3   OH273983   6.275   3.433  15.567  0.0995  0.5224  0.0209
17523TIP3    H173984   6.287   3.430  15.472  0.3492 -0.6460  0.0792
17523TIP3    H273985   6.248   3.345  15.591  1.3799  0.4144  1.1998
17524TIP3   OH273986   2.040   3.643   0.147 -0.3499  0.1880 -0.7477
17524TIP3    H173987   2.015   3.731   0.174  1.4456 -0.1016  2.2380
17524TIP3    H273988   1.982   3.623   0.073 -1.1083  3.6462 -1.2300
17525TIP3   OH273989   1.672   6.203   5.904  0.5278  0.6998 -0.1356
17525TIP3    H173990   1.583   6.237   5.913  0.2835  0.3354 -1.0631
17525TIP3    H273991   1.665   6.137   5.835  1.3326  0.0042  0.4380
17526TIP3   OH273992   3.906   6.437  13.105 -0.0998  0.9963 -0.0168
17526TIP3    H173993   3.936   6.474  13.188 -0.4042  1.2349 -0.0115
17526TIP3    H273994   3.923   6.344  13.113  0.6922  1.1352 -0.0371
17527TIP3   OH273995   3.223   0.056   0.172 -0.3038 -0.6417  0.2715
17527TIP3    H173996   3.254   0.108   0.098 -1.3812  1.8705  1.4953
17527TIP3    H273997   3.128   0.067   0.172 -0.2449  0.4485  2.7107
17528TIP3   OH273998   4.530   4.030  12.548 -0.2541  0.2425 -0.2012
17528TIP3    H173999   4.540   4.101  12.484 -2.5043  1.2615  0.4589
17528TIP3    H274000   4.448   3.988  12.525 -1.1866  0.6984  2.0224
17529TIP3   OH274001   4.004   5.349  12.260  0.2363 -0.2758 -0.2716
17529TIP3    H174002   3.974   5.258  12.260  0.8552 -0.5622  2.6055
17529TIP3    H274003   4.092   5.346  12.296  1.0893  1.3170 -2.0294
17530TIP3   OH274004   5.496   2.677   5.192  0.3801  0.0106 -0.2977
17530TIP3    H174005   5.431   2.638   5.134 -0.1009  1.3006 -0.6654
17530TIP3    H274006   5.543   2.740   5.137  2.2760 -1.1965 -0.1610
17531TIP3   OH274007   3.119   3.584   1.182 -0.5704 -0.5396 -0.3794
17531TIP3    H174008   3.151   3.663   1.138 -2.9654  2.4943  2.7153
17531TIP3    H274009   3.183   3.568   1.251 -0.5209 -0.7704 -0.4795
17532TIP3   OH274010   1.687   2.085  12.801  0.4789 -0.2878 -0.2218
17532TIP3    H174011   1.773   2.048  12.823  0.8483  0.3698 -0.5161
17532TIP3    H274012   1.702   2.180  12.797 -1.1053  0.3086  3.6742
17533TIP3   OH274013   5.750   3.049  14.540  0.5570 -0.0162  0.5500
17533TIP3    H174014   5.684   3.100  14.493  0.6878 -0.7704 -0.4705
17533TIP3    H274015   5.703   3.013  14.616 -0.4428 -1.2134 -0.5992
17534TIP3   OH274016   3.836   0.850   1.921 -0.0473 -0.6574  0.2990
17534TIP3    H174017   3.803   0.929   1.877 -1.4626 -1.4751 -0.1724
17534TIP3    H274018   3.907   0.820   1.864  0.5549  0.2879  0.5173
17535TIP3   OH274019   2.286   2.670   0.500  0.2752  0.2255 -0.0076
17535TIP3    H174020   2.289   2.574   0.491 -0.5744  0.3652 -2.4792
17535TIP3    H274021   2.316   2.703   0.415 -0.1582  2.1509  0.5486
17536TIP3   OH274022   1.398   3.548  11.510 -0.2423  0.0432 -0.3832
17536TIP3    H174023   1.407   3.454  11.498 -0.2434  0.0072 -0.0975
17536TIP3    H274024   1.485   3.584  11.490 -0.0491 -0.0882  0.2148
17537TIP3   OH274025   1.439   4.406   3.249  0.4012 -0.3052  0.2855
17537TIP3    H174026   1.440   4.365   3.162 -0.2620 -0.3737  0.3049
17537TIP3    H274027   1.407   4.337   3.308 -0.2824  0.0950  0.3906
17538TIP3   OH274028   0.578   1.393  16.978 -0.1572 -0.5011 -0.2409
17538TIP3    H174029   0.625   1.317  16.942  0.1222 -0.1907 -0.5376
17538TIP3    H274030   0.539   1.435  16.902  2.5252  1.6113 -0.5902
17539TIP3   OH274031   0.997   2.782  15.831 -0.5287  1.0617  0.3601
17539TIP3    H174032   1.081   2.789  15.787 -1.0331 -0.6663 -0.9849
17539TIP3    H274033   1.006   2.836  15.910  1.4699  1.7028 -0.2610
17540TIP3   OH274034   6.558   3.790  10.591 -0.0680  0.5021  0.1372
17540TIP3    H174035   6.633   3.743  10.555 -0.7181 -1.1909  0.8954
17540TIP3    H274036   6.588   3.880  10.599  1.1950  0.2758 -1.4662
17541TIP3   OH274037   3.274   1.241  13.564  0.7550  0.0441 -0.5059
17541TIP3    H174038   3.317   1.183  13.626 -0.8513  0.4396  1.0866
17541TIP3    H274039   3.302   1.329  13.590  1.3475  0.1376 -1.4130
17542TIP3   OH274040   2.675   3.804   4.941 -0.3487 -0.2418  0.1362
17542TIP3    H174041   2.624   3.870   4.989 -0.2392  1.0077 -1.4009
17542TIP3    H274042   2.751   3.788   4.996 -1.4282 -0.7342  1.5668
17543TIP3   OH274043   2.518   2.773  11.400  0.3387 -0.9398  0.2850
17543TIP3    H174044   2.464   2.764  11.478 -1.1824  1.0276 -0.4282
17543TIP3    H274045   2.454   2.784  11.329  1.3633  4.7296 -0.2053
17544TIP3   OH274046   2.209   2.217  15.188 -0.3874 -0.2151  0.8972
17544TIP3    H174047   2.170   2.182  15.108  1.8577  0.4518 -0.5977
17544TIP3    H274048   2.207   2.312  15.175  0.5795 -0.1313  1.3259
17545TIP3   OH274049   6.227   4.031   3.392 -0.1629 -0.3505 -0.0538
17545TIP3    H174050   6.226   3.986   3.476 -0.6001  0.1706  0.2273
17545TIP3    H274051   6.155   4.094   3.398  1.4975  1.6153  0.2454
17546TIP3   OH274052   2.128   5.806   5.697 -0.5725  0.3957 -0.1236
17546TIP3    H174053   2.132   5.857   5.616  0.4983  0.2134 -0.2025
17546TIP3    H274054   2.088   5.723   5.670  1.9046 -0.5808 -1.0054
17547TIP3   OH274055   3.589   5.744   3.610 -0.5342 -0.1256 -0.3118
17547TIP3    H174056   3.550   5.657   3.619 -1.3680  0.3240  0.7222
17547TIP3    H274057   3.627   5.763   3.696 -1.1770  0.8899 -0.2281
17548TIP3   OH274058   3.408   0.478   4.765 -0.5026 -0.1009  0.1453
17548TIP3    H174059   3.404   0.530   4.685  1.5925 -0.7165 -0.4178
17548TIP3    H274060   3.485   0.511   4.811  0.6065 -2.2875  0.0068
17549TIP3   OH274061   6.636   2.189   3.964  0.2977 -0.9237  0.7577
17549TIP3    H174062   6.543   2.197   3.986  0.0346 -1.4035 -0.1304
17549TIP3    H274063   6.645   2.238   3.881  0.1258 -3.5935 -0.9520
17550TIP3   OH274064   2.227   5.158  15.525  0.4654  0.3121  0.0099
17550TIP3    H174065   2.172   5.092  15.482  1.2453  0.3450 -1.0469
17550TIP3    H274066   2.281   5.107  15.586 -0.7437  0.2854  1.1299
17551TIP3   OH274067   1.223   4.612   4.000  0.0013  0.0856  0.3234
17551TIP3    H174068   1.197   4.679   3.937  0.6532  0.5575  0.5357
17551TIP3    H274069   1.155   4.545   3.994 -0.2628  0.4073 -0.4413
17552TIP3   OH274070   0.679   1.256   1.698  0.4343 -0.0251 -0.1444
17552TIP3    H174071   0.743   1.320   1.728  1.7680 -1.8273  1.0534
17552TIP3    H274072   0.708   1.231   1.610  0.6434  0.0805 -0.1045
17553TIP3   OH274073   5.926   6.122  16.751 -0.3008 -0.1282  0.5104
17553TIP3    H174074   5.944   6.044  16.804 -1.7126 -1.1216 -0.4056
17553TIP3    H274075   5.834   6.142  16.768 -0.5020  0.1265 -0.8085
17554TIP3   OH274076   0.839   0.164  13.232 -0.2593  0.1962  0.1506
17554TIP3    H174077   0.870   0.077  13.259  0.9798  0.9937  1.3912
17554TIP3    H274078   0.775   0.145  13.163 -2.6166 -1.9133  2.6890
17555TIP3   OH274079   5.869   1.737   5.184 -0.7564  0.0913 -0.3705
17555TIP3    H174080   5.878   1.795   5.109 -1.3557  0.2343 -0.3401
17555TIP3    H274081   5.781   1.754   5.217 -0.2945  0.4375  0.7149
17556TIP3   OH274082   1.295   4.081  15.659  0.2400  0.1003  0.0463
17556TIP3    H174083   1.287   3.990  15.685 -0.9273 -0.0133 -0.6745
17556TIP3    H274084   1.209   4.105  15.625  0.7735  1.2087 -0.6008
17557TIP3   OH274085   5.912   0.354  12.317 -0.6839  0.3404 -0.2956
17557TIP3    H174086   5.983   0.351  12.381  1.0205  0.9671 -2.0613
17557TIP3    H274087   5.920   0.271  12.270 -0.3995  0.8697 -1.2036
17558TIP3   OH274088   2.244   1.624   3.103 -0.7162 -0.9086 -0.2360
17558TIP3    H174089   2.156   1.654   3.079 -0.8844  2.0641  3.2514
17558TIP3    H274090   2.234   1.529   3.114 -3.6899 -0.6242  0.5063
17559TIP3   OH274091   1.689   6.800   6.034 -0.5990 -0.4357 -0.1209
17559TIP3    H174092   1.611   6.847   6.063 -0.4171  0.7776 -1.4720
17559TIP3    H274093   1.728   6.765   6.114 -1.0036  1.3336  0.8873
17560TIP3   OH274094   4.251   3.340   2.735 -0.0730  0.0829 -0.4342
17560TIP3    H174095   4.203   3.259   2.754 -0.6548  0.5567  0.1708
17560TIP3    H274096   4.330   3.311   2.689  0.0055 -0.8714  0.2770
17561TIP3   OH274097   0.249   4.968  11.512 -0.5611  0.3587 -0.7130
17561TIP3    H174098   0.283   5.041  11.461 -0.9085  0.6480 -0.5331
17561TIP3    H274099   0.221   4.904  11.447  1.3510 -0.3870 -0.8824
17562TIP3   OH274100   6.179   3.346  11.565 -0.4900  0.5765  0.1377
17562TIP3    H174101   6.255   3.388  11.526  0.1634  1.0671  1.8515
17562TIP3    H274102   6.149   3.408  11.632 -1.4407 -0.2924  0.5444
17563TIP3   OH274103   2.233   2.647  10.094 -0.5831  0.6994  0.3845
17563TIP3    H174104   2.143   2.615  10.097 -1.1050  2.0686  0.0449
17563TIP3    H274105   2.226   2.741  10.114  0.8963  0.6077  1.5212
17564TIP3   OH274106   3.131   2.962  12.569  0.3711  0.4816  0.3640
17564TIP3    H174107   3.133   2.928  12.659  4.1205  0.7386  0.5348
17564TIP3    H274108   3.221   2.988  12.552  0.2326 -1.1877 -4.1452
17565TIP3   OH274109   3.164   3.415   4.105 -0.0386 -0.6396 -0.4433
17565TIP3    H174110   3.145   3.405   4.011  0.2162 -0.1065 -0.5539
17565TIP3    H274111   3.088   3.462   4.139  0.1167 -0.3614 -0.4833
17566TIP3   OH274112   2.894   3.751   1.235  0.0164  0.0820 -0.3899
17566TIP3    H174113   2.980   3.716   1.259  1.1831 -0.0759 -4.0272
17566TIP3    H274114   2.869   3.699   1.158 -3.4170  0.1410  0.5488
17567TIP3   OH274115   4.113   1.585   5.253  0.1545  0.0285  0.2032
17567TIP3    H174116   4.184   1.599   5.316 -0.0988  3.1733 -0.0084
17567TIP3    H274117   4.045   1.540   5.303  1.3547 -0.8584  1.0972
17568TIP3   OH274118   1.698   4.666   1.764  0.3474  0.4366 -0.1462
17568TIP3    H174119   1.661   4.612   1.693  0.4530 -0.5199  0.5062
17568TIP3    H274120   1.769   4.613   1.799  0.0878  0.7607  0.8922
17569TIP3   OH274121   3.145   2.364  14.045  0.0318 -0.5176 -0.6312
17569TIP3    H174122   3.154   2.342  14.138  0.5936 -1.8350 -0.9787
17569TIP3    H274123   3.123   2.458  14.045 -1.4927 -0.8199  0.8823
17570TIP3   OH274124   4.075   2.029   5.831  0.3962 -0.1623  0.0749
17570TIP3    H174125   4.081   1.951   5.777  2.4659 -0.8933  1.2890
17570TIP3    H274126   4.109   2.003   5.916 -2.0641  1.1630  1.5827
17571TIP3   OH274127   4.702   0.741   5.350 -0.4248  0.3033 -0.1633
17571TIP3    H174128   4.756   0.768   5.425 -0.2255 -0.6549  0.0416
17571TIP3    H274129   4.628   0.802   5.351  0.8392  1.9432 -0.7176
17572TIP3   OH274130   1.028   2.138   3.338  1.1265 -0.3822 -0.5966
17572TIP3    H174131   1.076   2.061   3.309  0.4299 -1.7904  1.6735
17572TIP3    H274132   0.937   2.118   3.318  0.8583 -0.5317  0.6657
17573TIP3   OH274133   5.560   2.650  14.562 -0.5449  0.5730  0.1158
17573TIP3    H174134   5.549   2.732  14.610  0.5510  0.6705  0.2058
17573TIP3    H274135   5.651   2.650  14.533 -0.7524 -0.2430 -0.5738
17574TIP3   OH274136   3.662   4.289  10.727 -0.3652  0.4622 -0.0590
17574TIP3    H174137   3.568   4.272  10.719 -1.1835  2.3547  3.3219
17574TIP3    H274138   3.698   4.208  10.764 -0.7889  0.0035 -0.6269
17575TIP3   OH274139   1.243   6.684   0.646  0.0180 -0.2054 -0.3678
17575TIP3    H174140   1.208   6.748   0.707  0.2584 -0.7158  0.3239
17575TIP3    H274141   1.292   6.623   0.701  0.6981 -0.3702 -1.1354
17576TIP3   OH274142   0.780   0.087   4.145 -0.3890  0.3498 -0.0452
17576TIP3    H174143   0.829   0.005   4.139 -1.2430 -0.1423 -0.6129
17576TIP3    H274144   0.822   0.135   4.216  0.8375 -0.0862 -0.4484
17577TIP3   OH274145   0.749   1.302  16.653 -0.0129 -0.0076 -0.8373
17577TIP3    H174146   0.654   1.308  16.660  0.0735 -0.5479  1.7665
17577TIP3    H274147   0.766   1.209  16.639  0.1594 -0.0372 -0.4402
17578TIP3   OH274148   0.737   2.717   6.597 -0.4063  0.3481  0.2773
17578TIP3    H174149   0.779   2.795   6.560  0.6197 -0.7983 -1.0663
17578TIP3    H274150   0.810   2.658   6.616 -1.2959 -1.2373 -1.0085
17579TIP3   OH274151   4.445   2.624  11.076 -0.5794 -0.0426 -0.8596
17579TIP3    H174152   4.528   2.579  11.061 -0.3141  0.3482 -0.6210
17579TIP3    H274153   4.386   2.556  11.106  0.4754  0.0982  1.8706
17580TIP3   OH274154   3.279   1.694   3.353 -0.0983  0.1988  0.3461
17580TIP3    H174155   3.370   1.685   3.323 -0.3845 -0.2387 -0.4209
17580TIP3    H274156   3.239   1.752   3.288  0.3437  2.8793  2.2764
17581TIP3   OH274157   6.669   0.380   0.740  0.0564  0.2264 -0.2485
17581TIP3    H174158   6.756   0.343   0.753  0.0407 -0.1163 -1.0943
17581TIP3    H274159   6.634   0.389   0.829 -0.3441 -2.7374  0.0091
17582TIP3   OH274160   6.417   0.167   0.182  0.1097 -0.5243  0.3088
17582TIP3    H174161   6.372   0.101   0.130 -1.7129  1.2209 -0.4485
17582TIP3    H274162   6.440   0.121   0.264 -0.6115 -2.1978 -0.3798
17583TIP3   OH274163   1.265   0.414   2.783 -0.3064 -0.4339 -0.5334
17583TIP3    H174164   1.242   0.502   2.810  0.6063 -0.5173  0.6131
17583TIP3    H274165   1.247   0.360   2.860 -0.3365 -1.1508 -1.0378
17584TIP3   OH274166   1.140   6.222   3.074  0.1809 -0.0795  0.1623
17584TIP3    H174167   1.198   6.287   3.116 -1.3595  2.0203 -0.8041
17584TIP3    H274168   1.068   6.212   3.136 -0.5544  0.6661 -0.5493
17585TIP3   OH274169   4.242   1.167  11.071 -0.2146 -0.8639 -0.2443
17585TIP3    H174170   4.230   1.262  11.072  1.3021 -0.6311 -0.6779
17585TIP3    H274171   4.155   1.131  11.087 -1.0990  0.5891 -1.4858
17586TIP3   OH274172   4.269   5.510   5.561  0.4945 -0.0405  0.1896
17586TIP3    H174173   4.259   5.477   5.650  2.1836  0.8451  0.7638
17586TIP3    H274174   4.276   5.605   5.572 -2.3262  0.4281 -1.2189
17587TIP3   OH274175   5.348   1.765  15.953 -0.0355 -0.2518  0.4208
17587TIP3    H174176   5.265   1.809  15.968  0.6491  0.8967  0.9237
17587TIP3    H274177   5.404   1.830  15.910  0.4252 -1.1965 -0.4908
17588TIP3   OH274178   1.273   5.026  14.621  0.2187  0.4516 -0.5215
17588TIP3    H174179   1.343   5.051  14.682  0.2888 -0.1781 -0.3400
17588TIP3    H274180   1.219   4.965  14.671  0.0303  0.2689 -0.9507
17589TIP3   OH274181   3.232   3.491  13.410 -0.2259  0.2535 -0.2366
17589TIP3    H174182   3.315   3.519  13.449 -0.5512  1.4989 -0.3900
17589TIP3    H274183   3.257   3.440  13.333  0.3972  0.6279 -0.2883
17590TIP3   OH274184   2.453   4.937   1.255 -0.1932 -0.2073  0.0794
17590TIP3    H174185   2.482   4.992   1.183  1.5238  1.4609  1.9012
17590TIP3    H274186   2.433   4.853   1.215 -3.2122  1.6726 -2.9371
17591TIP3   OH274187   0.758   5.956  11.731 -0.1858  0.8385 -0.4554
17591TIP3    H174188   0.853   5.955  11.740 -0.2689  0.0833  0.4996
17591TIP3    H274189   0.739   6.037  11.684  0.9775  0.6568 -1.2915
17592TIP3   OH274190   5.924   1.055  12.156 -0.0605 -0.1972  0.3528
17592TIP3    H174191   5.830   1.070  12.165  0.1969  0.2048  3.1310
17592TIP3    H274192   5.952   1.025  12.242  2.3827 -0.2140 -0.3756
17593TIP3   OH274193   3.655   1.939  15.452  0.2890 -0.4576  0.0456
17593TIP3    H174194   3.719   1.870  15.466  0.9053  0.1890  0.5082
17593TIP3    H274195   3.706   2.020  15.451 -0.6451  0.2372  2.0344
17594TIP3   OH274196   0.851   4.190  14.688 -0.0576 -0.3233  0.7787
17594TIP3    H174197   0.788   4.260  14.701  2.1430  1.5366  2.3499
17594TIP3    H274198   0.814   4.116  14.735 -1.7992  0.1582  0.2569
17595TIP3   OH274199   6.759   3.957  16.829 -0.1262  0.4306  0.5804
17595TIP3    H174200   6.810   4.035  16.810  1.7272  0.0825  3.4712
17595TIP3    H274201   6.766   3.904  16.749 -0.1915  2.5148 -0.8873
17596TIP3   OH274202   4.584   3.623   5.150 -0.2828 -0.5953 -0.3641
17596TIP3    H174203   4.678   3.638   5.158 -0.6016  0.4515  2.5855
17596TIP3    H274204   4.544   3.699   5.190 -2.3731 -1.9417  0.2738
17597TIP3   OH274205   3.636   6.098   1.430  0.1875 -0.1742 -0.3249
17597TIP3    H174206   3.599   6.161   1.492  0.0913 -0.0742 -0.4829
17597TIP3    H274207   3.676   6.152   1.362 -1.7730 -0.2367 -1.6135
17598TIP3   OH274208   4.763   6.534  13.658 -0.2042  0.5809 -0.0637
17598TIP3    H174209   4.851   6.570  13.653 -0.8836  2.3549  0.1436
17598TIP3    H274210   4.729   6.565  13.742 -0.6551 -1.0029  0.3740
17599TIP3   OH274211   0.842   0.549   1.533  0.3628 -0.3712 -0.5767
17599TIP3    H174212   0.860   0.467   1.578 -1.1759 -0.6164 -0.3594
17599TIP3    H274213   0.919   0.603   1.550  0.4955 -1.0235  1.0363
17600TIP3   OH274214   1.493   6.183  16.078 -0.2017  0.2211  0.6978
17600TIP3    H174215   1.407   6.222  16.093 -0.7769 -0.5510 -0.4667
17600TIP3    H274216   1.550   6.258  16.059 -0.9730  0.6232 -0.1010
17601TIP3   OH274217   2.290   4.034  11.565  0.5026 -0.2751 -0.0346
17601TIP3    H174218   2.261   4.121  11.537 -1.3331 -0.9894 -0.5323
17601TIP3    H274219   2.259   3.975  11.496 -0.0732 -1.5573  1.2704
17602TIP3   OH274220   2.939   3.881  16.882 -0.6778 -0.1461 -0.5921
17602TIP3    H174221   2.845   3.871  16.892 -0.3570 -3.6724  0.4426
17602TIP3    H274222   2.956   3.861  16.790 -0.8495 -1.4338 -0.3684
17603TIP3   OH274223   0.377   0.666   1.383 -0.0103  0.6386 -0.4515
17603TIP3    H174224   0.323   0.593   1.414 -0.3164  0.2979 -1.7488
17603TIP3    H274225   0.443   0.677   1.451 -0.9872  0.2749  0.5869
17604TIP3   OH274226   0.168   4.590  15.505  0.0762 -0.0195 -0.3036
17604TIP3    H174227   0.110   4.515  15.513  0.6530 -0.4049  0.3197
17604TIP3    H274228   0.244   4.556  15.458  0.0815  0.3283 -0.5525
17605TIP3   OH274229   3.073   2.271   1.756 -0.2602  0.0571  0.2499
17605TIP3    H174230   2.991   2.295   1.798 -0.9462 -0.2529 -0.8449
17605TIP3    H274231   3.133   2.342   1.778 -1.2113  0.9854 -0.0238
17606TIP3   OH274232   4.914   5.821   3.513 -0.6165  0.2991 -0.4371
17606TIP3    H174233   4.884   5.907   3.545 -2.8247 -1.3189  2.3805
17606TIP3    H274234   4.974   5.790   3.580 -2.1335 -1.5073  0.1808
17607TIP3   OH274235   6.659   3.743  13.512  0.2926 -0.3022 -0.2674
17607TIP3    H174236   6.704   3.669  13.552  1.5677  1.1884  1.1758
17607TIP3    H274237   6.587   3.763  13.572 -2.0392 -2.2251 -2.2026
17608TIP3   OH274238   1.375   2.420  16.769 -0.5825  0.5624  0.3514
17608TIP3    H174239   1.379   2.482  16.841 -2.3088  1.6107 -0.3930
17608TIP3    H274240   1.327   2.466  16.700  1.4040 -0.2212 -1.6720
17609TIP3   OH274241   2.859   5.206   6.019 -0.6144  0.5953 -0.1982
17609TIP3    H174242   2.942   5.195   6.066 -1.1033 -1.8460  0.2224
17609TIP3    H274243   2.877   5.179   5.929 -1.0591 -0.6081  0.0490
17610TIP3   OH274244   6.470   1.412   3.062  0.8127  0.1240  0.3747
17610TIP3    H174245   6.449   1.428   2.971  0.3278  0.8836  0.6144
17610TIP3    H274246   6.497   1.320   3.065 -1.1392 -0.4948 -0.1687
17611TIP3   OH274247   3.787   1.261  13.562  0.3318 -0.5890  0.7581
17611TIP3    H174248   3.812   1.289  13.474  1.4361  0.7554  1.4624
17611TIP3    H274249   3.726   1.328  13.592 -0.0642 -1.0589  1.0280
17612TIP3   OH274250   6.207   4.973  16.570  0.2237  0.6040  0.0200
17612TIP3    H174251   6.177   5.046  16.625 -0.3790 -0.7280  1.5683
17612TIP3    H274252   6.282   4.937  16.618  0.4251  0.1366 -0.6381
17613TIP3   OH274253   4.447   6.694   4.964  0.1344 -0.0904  0.5237
17613TIP3    H174254   4.529   6.707   4.917 -1.0010 -0.2441 -1.6224
17613TIP3    H274255   4.419   6.783   4.988  0.3433  0.0576  0.2295
17614TIP3   OH274256   6.157   5.836   3.380 -0.1235  0.6942 -0.3314
17614TIP3    H174257   6.201   5.794   3.453 -1.7263 -0.0171  0.2749
17614TIP3    H274258   6.158   5.930   3.402  1.0862  0.7102 -0.3757
17615TIP3   OH274259   5.722   1.166  10.972  0.2724 -0.4247 -1.3497
17615TIP3    H174260   5.734   1.086  10.921 -0.2244 -0.1943 -1.8345
17615TIP3    H274261   5.677   1.138  11.051 -2.0517 -0.3233 -2.5449
17616TIP3   OH274262   5.351   1.432  11.168 -0.0439  0.1317  0.1350
17616TIP3    H174263   5.258   1.451  11.184 -0.3435 -1.3598  0.3199
17616TIP3    H274264   5.387   1.514  11.133 -1.3236  0.8648  0.4729
17617TIP3   OH274265   6.346   0.388  13.150  0.2466  0.4108  0.0525
17617TIP3    H174266   6.267   0.441  13.146  1.3457  2.1356  0.0303
17617TIP3    H274267   6.370   0.388  13.243  1.0463  1.2292 -0.1382
17618TIP3   OH274268   5.500   2.521  15.152 -0.3735 -0.0930  0.0234
17618TIP3    H174269   5.541   2.476  15.078 -1.3737  0.9133 -1.1800
17618TIP3    H274270   5.465   2.450  15.206 -1.2132 -0.8248 -1.4135
17619TIP3   OH274271   1.516   3.024   4.331  0.0055  0.1509 -0.1518
17619TIP3    H174272   1.515   3.054   4.240 -1.1655  2.8493  0.6452
17619TIP3    H274273   1.566   3.091   4.378  0.6999 -1.2581  1.2100
17620TIP3   OH274274   1.103   1.710   4.972  0.8161  0.3370 -0.2721
17620TIP3    H174275   1.045   1.748   4.906 -2.3699 -1.7068  1.1269
17620TIP3    H274276   1.171   1.665   4.921 -1.3731 -0.9616 -2.2455
17621TIP3   OH274277   1.423   3.197  16.010 -0.0506  0.1006 -0.0551
17621TIP3    H174278   1.381   3.237  15.934 -0.9597 -0.9536 -0.1317
17621TIP3    H274279   1.381   3.239  16.085 -1.4079 -1.0474 -0.1286
17622TIP3   OH274280   5.283   4.325  15.772 -0.0180 -0.1701  0.1294
17622TIP3    H174281   5.331   4.376  15.837  0.3396  0.7323 -0.7922
17622TIP3    H274282   5.212   4.383  15.745  0.6148  0.0281 -1.2100
17623TIP3   OH274283   5.919   1.732  16.571  0.2339 -0.7210 -0.3679
17623TIP3    H174284   6.010   1.709  16.552  0.6039  0.4660 -0.1380
17623TIP3    H274285   5.868   1.685  16.505  0.8194 -2.8444  0.5960
17624TIP3   OH274286   1.674   4.912  15.829 -0.4886  0.3607  0.7118
17624TIP3    H174287   1.614   4.847  15.791  1.9782 -1.6077 -0.1066
17624TIP3    H274288   1.651   4.913  15.922 -0.4896 -1.8958  0.7922
17625TIP3   OH274289   6.690   1.638  16.521  0.0101  0.6616  0.0030
17625TIP3    H174290   6.614   1.695  16.532 -1.3763 -0.6052 -2.1568
17625TIP3    H274291   6.728   1.665  16.437  1.1798  0.4135  0.4300
17626TIP3   OH274292   0.381   3.019   2.500 -0.9061 -0.4947 -0.3153
17626TIP3    H174293   0.375   3.094   2.559 -5.9829 -0.5388 -0.2880
17626TIP3    H274294   0.322   3.041   2.428 -0.1167 -3.2252 -1.9340
17627TIP3   OH274295   0.556   0.354   2.075 -0.0061 -0.3234  0.0520
17627TIP3    H174296   0.646   0.336   2.047  1.0742  1.5756  1.9745
17627TIP3    H274297   0.535   0.283   2.135 -0.5358 -1.7763 -1.7711
17628TIP3   OH274298   2.506   0.408  11.958 -0.1894 -0.2422 -0.6442
17628TIP3    H174299   2.543   0.410  12.047  1.2797 -2.3773 -1.1250
17628TIP3    H274300   2.552   0.476  11.911 -0.5287  0.4915  0.0571
17629TIP3   OH274301   4.616   3.679  11.713 -0.0208 -0.4855  0.4504
17629TIP3    H174302   4.565   3.660  11.635  0.7068 -0.0658 -0.1423
17629TIP3    H274303   4.614   3.775  11.721  2.1011 -0.2984 -0.6130
17630TIP3   OH274304   5.971   2.202   5.793  0.2239  0.2536 -0.0194
17630TIP3    H174305   5.974   2.250   5.875  0.0922 -1.8966  1.3405
17630TIP3    H274306   6.053   2.223   5.748  0.7251  0.7389  1.1075
17631TIP3   OH274307   2.246   2.752   4.745  0.2097 -0.1307 -0.2505
17631TIP3    H174308   2.206   2.766   4.831 -0.8560  1.5404 -0.9771
17631TIP3    H274309   2.184   2.696   4.698  1.0248 -1.4581  0.1886
17632TIP3   OH274310   3.556   2.070   5.388 -0.1246 -0.1510  0.2127
17632TIP3    H174311   3.487   2.034   5.442 -0.1697 -0.3448  0.0287
17632TIP3    H274312   3.522   2.153   5.356 -0.1413 -0.0902  0.3916
17633TIP3   OH274313   6.304   4.397   5.392 -0.1197 -0.1740  0.0926
17633TIP3    H174314   6.230   4.337   5.397 -1.3127  1.1386 -1.0175
17633TIP3    H274315   6.370   4.358   5.450 -2.1268 -0.7033  2.1994
17634TIP3   OH274316   5.468   4.461  15.916 -0.3082  0.3022  0.7308
17634TIP3    H174317   5.482   4.475  16.010 -0.2417  0.4028  0.7060
17634TIP3    H274318   5.525   4.525  15.874  2.9022 -2.4269  0.5335
17635TIP3   OH274319   3.953   5.975  11.416  0.1763  0.4144  0.4473
17635TIP3    H174320   3.878   6.016  11.458  0.2085  1.5699 -0.5647
17635TIP3    H274321   4.008   6.049  11.389  1.2136 -0.3796  0.3242
17636TIP3   OH274322   5.623   3.088   2.111 -0.0352  0.1502  0.1742
17636TIP3    H174323   5.528   3.075   2.116 -0.0517  0.0043 -0.5220
17636TIP3    H274324   5.633   3.179   2.085 -0.0202 -0.2442 -1.2885
17637TIP3   OH274325   4.402   6.752  15.535  0.2316 -0.0589  0.7103
17637TIP3    H174326   4.455   6.776  15.459 -0.8674 -0.5980 -0.2697
17637TIP3    H274327   4.363   6.667  15.511  0.9871 -0.9462  2.4752
17638TIP3   OH274328   0.337   0.120   5.442  0.0353 -0.0528  0.2453
17638TIP3    H174329   0.254   0.168   5.432  0.0324 -0.2459 -0.8028
17638TIP3    H274330   0.401   0.188   5.464  0.1127  0.5430 -1.6228
17639TIP3   OH274331   3.626   6.399   1.942  0.4017  0.2189 -0.0901
17639TIP3    H174332   3.594   6.436   1.859 -0.1014  1.9374  0.8128
17639TIP3    H274333   3.601   6.464   2.008 -0.0389 -1.5367  1.5563
17640TIP3   OH274334   0.261   3.111  15.796  0.2158 -0.0879  0.9821
17640TIP3    H174335   0.177   3.065  15.798  1.5626 -2.8702  0.0953
17640TIP3    H274336   0.283   3.116  15.703  1.4231 -0.2299  1.2405
17641TIP3   OH274337   3.511   2.571  12.138 -0.1067 -0.3072 -0.5434
17641TIP3    H174338   3.453   2.554  12.212  0.7529  0.4499  0.3312
17641TIP3    H274339   3.579   2.628  12.174 -0.0027  0.5798 -2.0616
17642TIP3   OH274340   2.629   0.603   0.277 -0.1508  0.3545  0.1261
17642TIP3    H174341   2.619   0.572   0.367  0.4152  0.7260  0.3242
17642TIP3    H274342   2.700   0.549   0.241 -1.3834 -0.8454 -0.5999
17643TIP3   OH274343   4.426   1.090   5.971  0.6637 -0.0512 -0.1386
17643TIP3    H174344   4.412   1.107   5.878 -0.2826 -0.9035 -0.1634
17643TIP3    H274345   4.475   1.007   5.973  0.4610 -0.1652  0.1353
17644TIP3   OH274346   6.790   0.923  13.565  0.6201  0.2336 -0.0306
17644TIP3    H174347   6.783   0.870  13.485 -2.8049  1.1721 -0.5289
17644TIP3    H274348   6.807   1.012  13.533  0.1672  0.4623  0.3594
17645TIP3   OH274349   4.127   0.366   1.106  0.2745  0.3061  0.4755
17645TIP3    H174350   4.146   0.307   1.179 -2.5393  0.6503  1.6131
17645TIP3    H274351   4.199   0.430   1.108  1.7027 -1.2494  1.1700
17646TIP3   OH274352   5.538   5.041  15.187 -0.2354 -0.6853  0.3574
17646TIP3    H174353   5.560   5.096  15.112  0.8262 -1.7172 -0.1134
17646TIP3    H274354   5.593   5.074  15.258  0.8722 -1.5159 -0.0920
17647TIP3   OH274355   5.518   4.640  15.065  0.1021 -0.2449 -0.4681
17647TIP3    H174356   5.502   4.665  14.974  0.0994  0.3250 -0.3161
17647TIP3    H274357   5.441   4.671  15.112 -1.8824 -3.9839 -0.8168
17648TIP3   OH274358   1.180   5.972   0.526 -0.1270 -0.3432  0.2730
17648TIP3    H174359   1.174   5.908   0.455  0.9776  0.3442 -0.4804
17648TIP3    H274360   1.103   5.956   0.580 -0.4450 -1.5722 -0.5080
17649TIP3   OH274361   4.102   5.770   3.804 -0.0624 -0.2206 -0.0651
17649TIP3    H174362   4.054   5.736   3.880  1.3181 -1.9212  0.0989
17649TIP3    H274363   4.194   5.751   3.824  0.3929  0.0403 -1.8048
17650TIP3   OH274364   5.915   4.567  12.987 -0.2272 -0.0262  0.3395
17650TIP3    H174365   5.940   4.524  12.906  1.8528  0.6301  0.5847
17650TIP3    H274366   5.847   4.630  12.961  0.3236  0.0891 -0.8773
17651TIP3   OH274367   6.347   1.747   3.669 -0.3965  0.2200  0.9308
17651TIP3    H174368   6.263   1.700   3.665  0.8158 -2.0521 -2.3972
17651TIP3    H274369   6.352   1.793   3.585  0.6317  2.4912  2.1635
17652TIP3   OH274370   0.338   2.590   5.742 -0.2055  0.4736 -0.2408
17652TIP3    H174371   0.344   2.592   5.647  0.4319  4.6250 -0.2898
17652TIP3    H274372   0.244   2.595   5.760 -0.2579  1.5365 -0.7316
17653TIP3   OH274373   1.345   3.064   1.301  0.3395 -0.2516  0.1237
17653TIP3    H174374   1.340   3.134   1.366 -1.8626  0.0352 -0.2780
17653TIP3    H274375   1.371   3.108   1.220  1.7856 -0.4027  0.4754
17654TIP3   OH274376   2.041   0.908   0.792  0.6933 -0.0807 -0.2886
17654TIP3    H174377   2.003   0.852   0.860  1.5974 -0.9919 -0.5049
17654TIP3    H274378   2.012   0.997   0.815  2.3509 -0.1071  2.3307
17655TIP3   OH274379   2.335   1.632  11.847 -0.0583  0.2911  0.7938
17655TIP3    H174380   2.279   1.702  11.881  1.8051  1.0368  2.5043
17655TIP3    H274381   2.348   1.654  11.755 -0.5840  1.4375  0.9820
17656TIP3   OH274382   3.563   6.494   5.581 -0.7461  0.4708 -0.4145
17656TIP3    H174383   3.653   6.526   5.577  0.1495 -1.9309 -1.5741
17656TIP3    H274384   3.552   6.444   5.500 -2.5712 -0.6446  0.4577
17657TIP3   OH274385   2.348   4.632  13.467 -0.1497 -0.0472  0.0021
17657TIP3    H174386   2.291   4.662  13.538  0.9556  0.9302  0.5144
17657TIP3    H274387   2.328   4.539  13.457  1.3936 -0.8874  3.3071
17658TIP3   OH274388   2.951   4.046  12.392 -0.4387 -0.4281 -0.5918
17658TIP3    H174389   3.028   4.096  12.417 -0.7464 -0.5673  0.7422
17658TIP3    H274390   2.970   4.014  12.305  1.0504 -0.5401 -0.2501
17659TIP3   OH274391   0.090   3.929   3.056 -0.3181  0.2793  0.4516
17659TIP3    H174392   0.141   3.912   3.136 -0.9152  0.4323  0.8745
17659TIP3    H274393   0.062   4.020   3.064 -0.8505  0.1298  0.3414
17660TIP3   OH274394   4.818   3.005  13.581  0.5389  0.1243  0.1340
17660TIP3    H174395   4.893   3.046  13.624  0.1437 -0.9397  1.9014
17660TIP3    H274396   4.800   2.926  13.632 -0.6041 -0.6635 -1.3955
17661TIP3   OH274397   5.484   1.378  13.959  0.1538  0.3706  0.1081
17661TIP3    H174398   5.424   1.306  13.978  0.4943  0.3023  0.9429
17661TIP3    H274399   5.567   1.334  13.939  0.4962  0.5369  1.1128
17662TIP3   OH274400   1.248   5.009   2.853 -0.3664 -0.2494 -0.6962
17662TIP3    H174401   1.271   5.045   2.938 -1.3309  0.8620 -0.8816
17662TIP3    H274402   1.331   4.984   2.814  0.3930  1.9640 -0.6193
17663TIP3   OH274403   2.587   5.186   5.813 -0.1351 -0.1289  0.2439
17663TIP3    H174404   2.594   5.094   5.836 -1.3559 -0.0634  0.9882
17663TIP3    H274405   2.499   5.195   5.776 -0.2918  0.8601  0.8149
17664TIP3   OH274406   5.308   6.808  15.278  0.1511  0.2564  0.4068
17664TIP3    H174407   5.386   6.839  15.323 -0.0019  1.7282 -0.3091
17664TIP3    H274408   5.274   6.739  15.336  2.2656 -0.8550  0.4370
17665TIP3   OH274409   1.139   3.136  11.262  0.4543 -0.3043 -0.2507
17665TIP3    H174410   1.192   3.064  11.227  1.9529 -0.2855  1.8068
17665TIP3    H274411   1.201   3.209  11.270 -1.3176  1.8058 -3.6167
17666TIP3   OH274412   4.395   4.573   4.642 -0.0953 -0.2264 -0.0934
17666TIP3    H174413   4.301   4.581   4.623  0.0165  0.2368 -0.4952
17666TIP3    H274414   4.417   4.484   4.615 -0.5032 -0.4768  0.3901
17667TIP3   OH274415   6.635   5.812  14.661  0.0721 -0.3300  0.1359
17667TIP3    H174416   6.650   5.718  14.650  0.6076 -0.3189  0.6816
17667TIP3    H274417   6.542   5.820  14.678 -0.7836 -0.3860 -3.7096
17668TIP3   OH274418   6.708   0.280   3.486  0.4680 -0.5494  0.1563
17668TIP3    H174419   6.798   0.273   3.519 -0.0507  0.2100  1.8101
17668TIP3    H274420   6.700   0.371   3.458 -0.7170  0.3536  3.0655
17669TIP3   OH274421   0.508   4.189   5.776  0.4724 -0.5058 -0.0124
17669TIP3    H174422   0.463   4.157   5.698  0.8606 -0.3700 -0.2951
17669TIP3    H274423   0.440   4.190   5.844 -0.4345  1.3690 -0.8614
17670TIP3   OH274424   0.070   0.504   1.594  0.0309  0.1975 -0.2970
17670TIP3    H174425   0.053   0.598   1.597  1.0859  0.3714  0.8131
17670TIP3    H274426   0.036   0.476   1.509 -0.6275  1.5078 -0.4856
17671TIP3   OH274427   3.035   0.323  12.757 -0.3268 -0.3628 -0.2442
17671TIP3    H174428   3.040   0.295  12.848 -4.1698  0.0673  0.2669
17671TIP3    H274429   2.941   0.332  12.739  0.3008  1.0967 -3.7933
17672TIP3   OH274430   0.277   2.163   2.281 -0.0191  0.2232 -0.2621
17672TIP3    H174431   0.226   2.231   2.325  1.1816  1.6522 -0.9828
17672TIP3    H274432   0.306   2.106   2.352 -0.2652  1.0086  0.4965
17673TIP3   OH274433   2.561   3.941   1.475  0.0722  0.3523  0.4088
17673TIP3    H174434   2.573   3.880   1.402 -1.4763 -0.0734  0.4705
17673TIP3    H274435   2.610   4.019   1.450 -0.8225  0.4067 -1.3280
17674TIP3   OH274436   5.763   3.169  13.658 -0.1275  0.1075 -0.1840
17674TIP3    H174437   5.677   3.194  13.693  0.5232  0.1370  1.4979
17674TIP3    H274438   5.767   3.074  13.669 -0.0479  0.0738 -0.5009
17675TIP3   OH274439   5.570   2.180   2.814  0.1544 -0.5277  0.1544
17675TIP3    H174440   5.616   2.234   2.879 -0.8187 -0.6193  0.9455
17675TIP3    H274441   5.639   2.125   2.776  0.8302 -0.1312  0.7689
17676TIP3   OH274442   6.048   1.482   4.833  0.1361  0.2552  0.2064
17676TIP3    H174443   6.061   1.529   4.750 -0.5253 -0.2668 -0.2056
17676TIP3    H274444   6.122   1.421   4.836 -0.3546 -0.3993 -0.4932
17677TIP3   OH274445   3.207   2.758  10.365 -0.0676  0.2580  0.3351
17677TIP3    H174446   3.137   2.713  10.410 -1.2620  0.9778 -0.7417
17677TIP3    H274447   3.253   2.690  10.316 -0.9599 -0.0076 -0.1392
17678TIP3   OH274448   6.345   2.569  13.514 -0.0761  0.6392 -0.0253
17678TIP3    H174449   6.278   2.515  13.472  0.5415  0.6994 -1.1049
17678TIP3    H274450   6.296   2.640  13.556 -0.7348  0.3682 -0.3306
17679TIP3   OH274451   3.749   5.990  17.024 -0.3894  0.3199 -0.0191
17679TIP3    H174452   3.809   5.926  17.061  0.1253 -0.1715 -1.6130
17679TIP3    H274453   3.743   6.059  17.090  0.8517 -0.2714  0.7415
17680TIP3   OH274454   3.279   2.755   3.170  0.4381 -0.1620  0.3141
17680TIP3    H174455   3.266   2.693   3.098 -1.0294 -0.4148  0.7654
17680TIP3    H274456   3.279   2.841   3.128  1.2648 -0.3882 -0.1708
17681TIP3   OH274457   5.968   1.452  11.503  0.3596 -0.1964 -0.0644
17681TIP3    H174458   5.971   1.424  11.412 -1.8648 -0.1920 -0.1711
17681TIP3    H274459   5.949   1.372  11.553 -0.8049  0.2068  0.1507
17682TIP3   OH274460   3.450   5.508   5.405  0.0117 -0.0301  0.4228
17682TIP3    H174461   3.531   5.460   5.385 -0.8441 -0.8641 -1.2767
17682TIP3    H274462   3.400   5.449   5.461  1.0762  1.0195  2.5821
17683TIP3   OH274463   1.297   1.114  16.934 -0.9154 -0.1321  0.3671
17683TIP3    H174464   1.218   1.129  16.881 -0.3471  0.4854 -0.3402
17683TIP3    H274465   1.364   1.088  16.870 -0.0805  1.1092  0.6967
17684TIP3   OH274466   1.398   2.433   3.728 -0.3846 -0.0440  0.2490
17684TIP3    H174467   1.338   2.359   3.726 -0.2376 -0.2348  1.6357
17684TIP3    H274468   1.482   2.395   3.754 -0.3891  0.6307  1.3332
17685TIP3   OH274469   4.105   4.491   2.846  0.0213 -0.5481 -0.0473
17685TIP3    H174470   4.186   4.451   2.816 -0.8094 -1.4310 -1.1831
17685TIP3    H274471   4.037   4.427   2.826 -1.1465  0.7662 -0.4692
17686TIP3   OH274472   6.359   6.498  13.830  0.2824  0.3511  0.2490
17686TIP3    H174473   6.344   6.427  13.893 -1.9588  0.4905 -0.0648
17686TIP3    H274474   6.451   6.486  13.803  0.6317 -1.0464  1.8604
17687TIP3   OH274475   4.766   2.743   6.120 -0.7466 -0.7643  0.0856
17687TIP3    H174476   4.704   2.705   6.182 -0.1735 -0.6958  0.7121
17687TIP3    H274477   4.851   2.708   6.146 -0.3320  0.2221  0.1114
17688TIP3   OH274478   0.905   0.364   2.304  0.3260  0.0373  0.2155
17688TIP3    H174479   0.890   0.426   2.233 -0.1101  0.0091  0.2771
17688TIP3    H274480   0.853   0.287   2.279 -2.5523  1.1942  2.1059
17689TIP3   OH274481   3.134   4.176   0.475  0.3099  0.2161  0.0310
17689TIP3    H174482   3.169   4.236   0.410  1.4438  0.8934  1.2158
17689TIP3    H274483   3.211   4.137   0.515 -0.3363  0.1954  1.3142
17690TIP3   OH274484   5.243   5.542  10.964 -0.1683  0.2947  0.5793
17690TIP3    H174485   5.180   5.560  10.894  0.9690  0.4963 -0.4430
17690TIP3    H274486   5.264   5.449  10.953  0.3074  0.4216  0.3840
17691TIP3   OH274487   1.698   2.530  16.976 -0.0621 -0.2098 -0.0121
17691TIP3    H174488   1.651   2.606  16.942 -2.2590 -1.4017  0.1951
17691TIP3    H274489   1.740   2.491  16.899  2.5795  2.0867  0.1155
17692TIP3   OH274490   0.434   2.059   3.359  0.0207 -0.5085 -0.4679
17692TIP3    H174491   0.450   2.012   3.442  1.5484  0.0128 -0.4404
17692TIP3    H274492   0.481   2.008   3.293  1.0711  0.5418 -0.5594
17693TIP3   OH274493   4.784   1.352  16.282  0.7011  0.2948 -0.6731
17693TIP3    H174494   4.872   1.327  16.256  1.0136 -0.4200  0.9464
17693TIP3    H274495   4.793   1.440  16.318  1.0509 -0.2893  0.7553
17694TIP3   OH274496   3.145   0.417  15.326 -0.5694 -0.1875 -0.0464
17694TIP3    H174497   3.118   0.329  15.352  0.3167 -0.9256 -1.4630
17694TIP3    H274498   3.082   0.444  15.259 -1.2507  0.5770  0.8691
17695TIP3   OH274499   2.951   3.878   4.139  0.0866 -0.1906  0.1694
17695TIP3    H174500   3.002   3.953   4.172  0.6962 -1.6845  2.9825
17695TIP3    H274501   2.879   3.918   4.090  1.2924  2.1596  0.1700
17696TIP3   OH274502   2.677   4.152   3.628  0.4218 -1.0224 -0.0981
17696TIP3    H174503   2.603   4.102   3.663  0.3162 -0.5477  0.3784
17696TIP3    H274504   2.686   4.122   3.538  0.1082 -1.6090  0.0583
17697TIP3   OH274505   3.698   5.938  11.010 -0.5845  0.2311 -0.4861
17697TIP3    H174506   3.644   5.860  11.004  0.5995 -0.6861  0.3000
17697TIP3    H274507   3.685   5.982  10.926 -2.0540 -0.2654 -0.5471
17698TIP3   OH274508   2.204   6.554   2.908  0.1272 -0.0038  0.1250
17698TIP3    H174509   2.142   6.578   2.977  1.9482  0.1857  1.7729
17698TIP3    H274510   2.165   6.478   2.866 -1.5414  0.5316  0.6343
17699TIP3   OH274511   4.720   1.920  16.552  0.3728  0.4542 -0.3023
17699TIP3    H174512   4.672   1.883  16.478  0.1902  0.1977 -0.0609
17699TIP3    H274513   4.806   1.943  16.516  0.1141  0.7931 -0.7088
17700TIP3   OH274514   1.510   2.655   1.328  0.2869 -0.0099  0.7391
17700TIP3    H174515   1.426   2.701   1.322  0.4147  0.2888  1.1884
17700TIP3    H274516   1.539   2.670   1.418  0.0751 -1.4187  1.0613
17701TIP3   OH274517   3.035   5.874  13.503 -0.3576  0.1008 -0.3622
17701TIP3    H174518   2.947   5.862  13.468 -0.2854 -0.9326 -0.2208
17701TIP3    H274519   3.091   5.821  13.447  0.1170  0.4150 -0.1941
17702TIP3   OH274520   5.562   2.217  11.879  0.1022  0.0006  0.5273
17702TIP3    H174521   5.528   2.158  11.811  0.1157  1.5968 -0.9311
17702TIP3    H274522   5.643   2.252  11.842 -1.0620  2.6861  0.2542
17703TIP3   OH274523   0.232   5.604  11.418 -0.3540  0.0190 -0.0510
17703TIP3    H174524   0.224   5.571  11.507  0.8390 -0.2957 -0.0449
17703TIP3    H274525   0.319   5.575  11.389 -1.4889 -1.7001 -2.0530
17704TIP3   OH274526   4.433   5.777  13.790  0.5203  0.8177  1.0592
17704TIP3    H174527   4.362   5.828  13.830 -0.6488  1.1284 -1.2701
17704TIP3    H274528   4.454   5.824  13.710 -0.5698 -2.2698 -1.2141
17705TIP3   OH274529   3.893   2.964  13.558 -0.1811 -0.0880 -0.0092
17705TIP3    H174530   3.954   2.950  13.486  1.6138  1.2427  1.1523
17705TIP3    H274531   3.915   2.896  13.622 -1.4262 -0.9525 -0.4669
17706TIP3   OH274532   5.704   3.716  11.906  0.6073  0.7361 -0.4401
17706TIP3    H174533   5.618   3.702  11.945  0.4032  1.9513 -0.4214
17706TIP3    H274534   5.760   3.741  11.979  1.2170 -0.8977 -0.3053
17707TIP3   OH274535   1.744   1.129   1.272 -0.2133  0.1487 -0.3669
17707TIP3    H174536   1.653   1.100   1.268  0.0076 -0.4297 -1.4060
17707TIP3    H274537   1.739   1.225   1.267 -0.8019  0.1727  0.5087
17708TIP3   OH274538   5.291   0.468   4.836  0.1943 -0.7550 -0.0633
17708TIP3    H174539   5.324   0.557   4.849  0.9417 -1.0403  0.0632
17708TIP3    H274540   5.196   0.477   4.834  0.2947  0.2945 -1.8875
17709TIP3   OH274541   4.009   1.525  15.354 -0.0675 -0.0858 -0.2325
17709TIP3    H174542   3.982   1.570  15.434 -0.9616 -0.6423 -0.2080
17709TIP3    H274543   3.943   1.457  15.341  1.4010 -1.6081 -0.1164
17710TIP3   OH274544   1.939   1.034  16.087 -0.1142  0.0300 -0.3764
17710TIP3    H174545   1.854   1.078  16.087 -0.4421 -0.5942 -0.6898
17710TIP3    H274546   2.000   1.100  16.121 -0.3457  1.2057 -2.1131
17711TIP3   OH274547   6.428   4.384   3.840 -0.1842 -0.0077  0.7135
17711TIP3    H174548   6.382   4.327   3.778 -0.9229  0.7017  0.5979
17711TIP3    H274549   6.362   4.445   3.871  0.8221  1.5017  0.0035
17712TIP3   OH274550   5.162   3.415   3.984  0.0230  0.3597 -0.0511
17712TIP3    H174551   5.083   3.464   3.963 -0.0407 -0.0540 -0.8208
17712TIP3    H274552   5.171   3.352   3.912  0.2137 -0.6200  0.8005
17713TIP3   OH274553   1.669   6.224  12.823  0.1393  0.6644  0.3531
17713TIP3    H174554   1.617   6.178  12.888  1.4270  2.1186  2.5332
17713TIP3    H274555   1.608   6.286  12.783 -0.3892  0.5730  1.0176
17714TIP3   OH274556   3.292   4.625   1.598 -0.1309 -0.5483 -0.0769
17714TIP3    H174557   3.288   4.705   1.651 -2.9192 -1.0665  0.6665
17714TIP3    H274558   3.307   4.656   1.509 -0.9973  0.8448  0.2210
17715TIP3   OH274559   4.600   0.643   2.831 -0.2491 -0.2981  0.6959
17715TIP3    H174560   4.604   0.602   2.745 -0.1582  2.1917 -0.5923
17715TIP3    H274561   4.508   0.638   2.857 -0.7011  0.7962 -0.5877
17716TIP3   OH274562   5.609   2.284  16.497 -0.2366  0.8158 -0.8371
17716TIP3    H174563   5.555   2.299  16.574  1.0816 -1.0477  0.5158
17716TIP3    H274564   5.625   2.372  16.462  0.5240  1.9090  1.9745
17717TIP3   OH274565   4.323   5.171  14.151 -0.2894  0.2508  0.1610
17717TIP3    H174566   4.298   5.254  14.192 -0.8418  1.1245 -1.8741
17717TIP3    H274567   4.245   5.142  14.104  0.1036 -1.1265  0.2953
17718TIP3   OH274568   3.924   0.965  16.765  0.4819 -0.3683 -0.0108
17718TIP3    H174569   3.829   0.969  16.751  0.7157  1.1330 -1.4141
17718TIP3    H274570   3.959   0.927  16.685  1.0886 -0.9678  0.5225
17719TIP3   OH274571   0.728   0.907  16.368  0.0598  0.0964  0.4553
17719TIP3    H174572   0.648   0.879  16.414 -0.0521 -2.2616 -0.9776
17719TIP3    H274573   0.744   0.837  16.304  2.7052  1.0311 -0.0249
17720TIP3   OH274574   4.811   0.303  11.817  0.0507  0.4142  0.9361
17720TIP3    H174575   4.729   0.255  11.822  0.6241 -0.5864  0.9605
17720TIP3    H274576   4.827   0.314  11.724  0.3462 -0.2052  0.9096
17721TIP3   OH274577   1.906   5.235   5.319 -0.2938 -0.6587  0.3204
17721TIP3    H174578   1.936   5.258   5.231  0.7752  2.2021  1.3317
17721TIP3    H274579   1.813   5.257   5.319  0.0899  1.1012  0.3852
17722TIP3   OH274580   0.177   3.563   0.772 -0.1626  0.1875 -0.8507
17722TIP3    H174581   0.166   3.655   0.794 -1.0705  0.2365 -1.4751
17722TIP3    H274582   0.225   3.563   0.689 -1.2103  0.1432 -1.4717
17723TIP3   OH274583   5.693   5.923  12.393  0.1768 -0.0715 -0.2890
17723TIP3    H174584   5.665   5.898  12.481  0.4086  0.5290 -0.0377
17723TIP3    H274585   5.682   6.018  12.390 -0.1161 -0.1179 -1.0147
17724TIP3   OH274586   6.576   6.149   3.864 -0.2219  0.5279  0.7326
17724TIP3    H174587   6.584   6.105   3.949  0.2615 -1.7951 -0.4296
17724TIP3    H274588   6.571   6.077   3.801  3.0295  2.1233 -1.5792
17725TIP3   OH274589   0.891   1.748  12.117  0.5211 -0.2053 -0.0512
17725TIP3    H174590   0.901   1.843  12.113  0.4223 -0.1685  0.4710
17725TIP3    H274591   0.910   1.718  12.028  0.5162  0.3043 -0.2281
17726TIP3   OH274592   4.071   2.599  14.704  0.4444 -0.3768 -0.0864
17726TIP3    H174593   4.035   2.677  14.661  0.0212 -0.4951  0.0483
17726TIP3    H274594   4.115   2.634  14.782  0.4430 -0.2483 -0.1422
17727TIP3   OH274595   4.760   2.673   3.279  0.1780  0.6382  0.2316
17727TIP3    H174596   4.818   2.723   3.336 -0.4715  0.5395  0.9930
17727TIP3    H274597   4.673   2.682   3.319 -0.5083  1.5000 -1.3473
17728TIP3   OH274598   5.018   0.037  15.267  0.0520  0.3396 -0.6880
17728TIP3    H174599   5.106   0.000  15.282 -0.0186  0.8319  1.2050
17728TIP3    H274600   4.992   0.070  15.353 -2.2855 -0.4210 -1.0510
17729TIP3   OH274601   1.168   4.129   0.878 -0.3707 -0.5405  0.5708
17729TIP3    H174602   1.163   4.215   0.838  1.7538 -0.6901 -0.1653
17729TIP3    H274603   1.161   4.145   0.972  2.4319  0.8156  0.6515
17730TIP3   OH274604   5.492   5.144   5.033 -0.0176  0.0930  0.4851
17730TIP3    H174605   5.483   5.225   5.084  0.2815  1.2142 -1.1571
17730TIP3    H274606   5.458   5.167   4.946  1.9206 -0.9486 -0.6066
17731TIP3   OH274607   4.134   6.267   5.817 -0.1966 -0.0379 -0.0301
17731TIP3    H174608   4.097   6.229   5.897 -0.0369 -1.7418 -0.7081
17731TIP3    H274609   4.177   6.348   5.846 -0.9529 -0.1266  1.4350
17732TIP3   OH274610   0.475   3.150  13.981  0.6883  0.4430 -0.7203
17732TIP3    H174611   0.459   3.181  14.071 -0.3851  0.8651 -1.0380
17732TIP3    H274612   0.550   3.092  13.989  0.2381 -0.0033  0.5540
17733TIP3   OH274613   3.973   1.400   5.425  0.6125 -0.2585 -0.0959
17733TIP3    H174614   3.944   1.325   5.375  0.3006  0.1517 -0.5389
17733TIP3    H274615   3.898   1.460   5.425  0.6058 -0.2510  0.8523
17734TIP3   OH274616   6.017   2.805  12.483 -0.2092  0.2451  0.4462
17734TIP3    H174617   6.003   2.897  12.461  2.7238  0.3483 -1.6262
17734TIP3    H274618   6.040   2.806  12.576  0.1744  1.7064  0.3658
17735TIP3   OH274619   5.328   3.207  14.058 -0.1529  0.9124 -0.4295
17735TIP3    H174620   5.356   3.149  14.129 -0.7287  1.2176  0.0548
17735TIP3    H274621   5.311   3.148  13.984  0.8003  0.6278 -0.4330
17736TIP3   OH274622   2.157   4.437   3.457 -0.7346 -0.3210  0.1001
17736TIP3    H174623   2.194   4.354   3.487 -1.2804 -0.0341  1.7176
17736TIP3    H274624   2.067   4.435   3.490 -1.0730  0.4587 -0.7649
17737TIP3   OH274625   1.969   4.152  10.574  0.3332 -0.5645 -0.7484
17737TIP3    H174626   2.024   4.104  10.636  0.7349  0.3355 -0.3818
17737TIP3    H274627   1.887   4.104  10.571  1.5524 -2.7630 -2.3446
17738TIP3   OH274628   5.075   0.149  16.110  0.3303 -0.1720  0.1797
17738TIP3    H174629   5.165   0.176  16.128 -0.2180  1.1496  1.1620
17738TIP3    H274630   5.058   0.079  16.174  0.7602 -0.6656 -0.2412
17739TIP3   OH274631   1.372   0.318  13.300  0.0815 -0.3395 -0.2618
17739TIP3    H174632   1.433   0.243  13.295 -0.6841 -0.8909 -1.7430
17739TIP3    H274633   1.381   0.362  13.216  2.2058  2.6748  1.3693
17740TIP3   OH274634   2.109   4.456  14.886 -0.2272 -0.1702  0.7554
17740TIP3    H174635   2.185   4.475  14.830  0.5156 -0.8145  1.5061
17740TIP3    H274636   2.063   4.386  14.841 -1.3090  1.2858 -0.5146
17741TIP3   OH274637   3.387   6.510  16.190 -0.4868  0.1811  0.4285
17741TIP3    H174638   3.316   6.482  16.247 -0.5410 -0.1207  0.2149
17741TIP3    H274639   3.348   6.576  16.133 -1.1452 -1.3711 -1.0273
17742TIP3   OH274640   0.422   5.052   0.678 -0.1717 -0.3386  0.0318
17742TIP3    H174641   0.407   5.046   0.773 -0.9344  0.0640 -0.0524
17742TIP3    H274642   0.370   4.981   0.641  1.3210 -1.4498  0.0134
17743TIP3   OH274643   0.103   0.967   4.220  0.0015  0.2889  0.3856
17743TIP3    H174644   0.175   0.908   4.243 -0.2997 -0.4264 -0.4353
17743TIP3    H274645   0.078   0.940   4.132  0.7769  2.5782 -0.5996
17744TIP3   OH274646   4.736   6.113  14.770 -0.2542 -0.1143  0.0388
17744TIP3    H174647   4.754   6.019  14.776 -1.8875 -0.4273  0.6833
17744TIP3    H274648   4.790   6.152  14.838 -0.9889 -0.8477  1.0831
17745TIP3   OH274649   5.370   6.690   1.339 -0.6999 -0.0305  0.1165
17745TIP3    H174650   5.364   6.680   1.434 -2.4394  1.4651  0.2078
17745TIP3    H274651   5.318   6.767   1.319  0.2823  0.1627 -1.9933
17746TIP3   OH274652   6.706   0.622  13.484  0.7462 -0.3273  0.4395
17746TIP3    H174653   6.645   0.631  13.558  0.9072 -3.6907  1.1896
17746TIP3    H274654   6.791   0.611  13.526  1.7183  2.7006 -0.5455
17747TIP3   OH274655   4.188   4.207  11.754  0.4139  0.5519  0.4414
17747TIP3    H174656   4.120   4.273  11.740  0.1296 -0.2215 -2.5496
17747TIP3    H274657   4.139   4.124  11.755  1.0626  0.1707  1.0639
17748TIP3   OH274658   3.411   3.520   5.205 -0.4975  0.0999 -0.2125
17748TIP3    H174659   3.426   3.466   5.284 -1.5543 -0.8147 -0.6113
17748TIP3    H274660   3.499   3.538   5.172 -0.0430  0.3526  1.0797
17749TIP3   OH274661   0.218   5.531   4.790  0.3775 -0.1087  0.0905
17749TIP3    H174662   0.180   5.582   4.719 -0.1356  0.2182  0.5896
17749TIP3    H274663   0.279   5.471   4.747 -0.1072 -0.0849 -0.6370
17750TIP3   OH274664   0.632   2.377  11.913  0.7240 -0.6069 -0.0269
17750TIP3    H174665   0.642   2.471  11.902  0.5425 -0.4796  0.8414
17750TIP3    H274666   0.616   2.344  11.824  2.4520 -0.0347 -0.5831
17751TIP3   OH274667   0.212   2.895   5.627 -0.0761 -0.0313 -0.1148
17751TIP3    H174668   0.167   2.978   5.642  1.7856  1.1064 -0.4547
17751TIP3    H274669   0.150   2.828   5.655 -1.4145  1.4928  0.7123
17752TIP3   OH274670   3.255   0.327  12.218  0.1660 -0.4812  0.0292
17752TIP3    H174671   3.307   0.313  12.139  0.0501  0.5882 -0.2541
17752TIP3    H274672   3.313   0.304  12.290  1.4901  1.8063 -0.2151
17753TIP3   OH274673   5.204   1.291   0.128 -0.2644  0.0582  0.0078
17753TIP3    H174674   5.111   1.312   0.117 -0.0662  0.5141 -0.8334
17753TIP3    H274675   5.208   1.245   0.212 -1.0747  1.1440  0.6678
17754TIP3   OH274676   0.536   3.200  10.602 -0.2567  0.7965 -0.1210
17754TIP3    H174677   0.448   3.208  10.566 -0.8493  2.6760  1.5568
17754TIP3    H274678   0.525   3.215  10.696  1.5711 -1.1698  0.5010
17755TIP3   OH274679   6.614   0.097  13.503 -0.4194 -0.4309 -0.2302
17755TIP3    H174680   6.547   0.084  13.436  0.1983  0.3858 -1.0484
17755TIP3    H274681   6.687   0.042  13.475 -0.3709 -0.5405  0.1043
17756TIP3   OH274682   6.788   0.691   3.612  0.0934 -0.2814 -0.6391
17756TIP3    H174683   6.876   0.662   3.637 -0.9427 -0.4407  3.5772
17756TIP3    H274684   6.740   0.609   3.596  0.1129 -0.2908 -0.6507
17757TIP3   OH274685   4.105   4.997   4.406  0.1387 -0.2997  0.2989
17757TIP3    H174686   4.045   5.031   4.340  0.8548 -1.0116 -0.7579
17757TIP3    H274687   4.121   4.906   4.380 -0.5644 -1.0250  2.1992
17758TIP3   OH274688   4.459   4.278   5.885 -0.4150 -0.5180 -0.0281
17758TIP3    H174689   4.537   4.311   5.839  1.2425  1.0669  3.5295
17758TIP3    H274690   4.439   4.346   5.949 -2.3070 -2.6990  1.8595
17759TIP3   OH274691   3.903   3.171   1.765  0.5584  0.3234 -0.4395
17759TIP3    H174692   3.927   3.197   1.676 -1.3549 -0.8231 -1.3393
17759TIP3    H274693   3.954   3.091   1.781  0.6853  0.3679 -0.6171
17760TIP3   OH274694   3.473   6.230   0.070 -0.5033 -0.2083 -0.2125
17760TIP3    H174695   3.456   6.136   0.067 -1.2245 -0.0697 -1.5083
17760TIP3    H274696   3.557   6.240   0.024  0.6584 -0.3968  1.7750
17761TIP3   OH274697   5.029   5.604  14.755  0.8538  0.1219 -0.0743
17761TIP3    H174698   5.071   5.687  14.778  1.1919  0.0510 -0.4042
17761TIP3    H274699   5.052   5.592  14.662 -0.6166  0.5018 -0.5040
17762TIP3   OH274700   4.567   5.995  11.620 -0.5326  0.2366 -0.2426
17762TIP3    H174701   4.541   6.080  11.584  0.1337  0.4914 -0.1300
17762TIP3    H274702   4.658   6.006  11.647 -0.7220 -0.2330  0.6502
17763TIP3   OH274703   5.767   5.463   0.158  0.5247  0.0292  0.1605
17763TIP3    H174704   5.691   5.410   0.133  1.5131 -1.6633  0.5994
17763TIP3    H274705   5.731   5.549   0.179 -1.1877 -0.5655 -0.2340
17764TIP3   OH274706   0.775   0.728  14.149 -0.4436  0.2437  0.1703
17764TIP3    H174707   0.772   0.657  14.085  0.2106 -0.7279  1.1846
17764TIP3    H274708   0.714   0.701  14.218  2.5149 -1.2700  2.4360
17765TIP3   OH274709   2.702   2.707  15.969  0.3793  0.0870  0.1392
17765TIP3    H174710   2.737   2.686  15.883  1.7749  1.3324  0.3565
17765TIP3    H274711   2.704   2.625  16.018 -0.0836 -0.5475 -0.8909
17766TIP3   OH274712   4.330   4.548  15.390  0.3660  0.5871 -0.4376
17766TIP3    H174713   4.290   4.633  15.371  0.3973  0.6387 -0.2690
17766TIP3    H274714   4.256   4.487  15.393  0.3288  0.6330 -0.4186
17767TIP3   OH274715   5.412   2.120   2.245  0.3903  0.3619 -0.1057
17767TIP3    H174716   5.362   2.099   2.167  0.7332 -2.1261  0.2312
17767TIP3    H274717   5.349   2.159   2.305 -0.8126 -1.2150 -0.2736
17768TIP3   OH274718   1.326   3.672   2.856  0.2812  0.6406  0.1801
17768TIP3    H174719   1.406   3.717   2.886 -1.3820  2.3727  2.3204
17768TIP3    H274720   1.333   3.584   2.893  1.1378  0.7908  0.4084
17769TIP3   OH274721   0.191   3.514  14.796  0.4277 -0.0753  0.0724
17769TIP3    H174722   0.134   3.566  14.853  0.0015 -0.9239  0.4358
17769TIP3    H274723   0.130   3.473  14.734  0.6644 -0.8513  0.3513
17770TIP3   OH274724   5.755   3.598  14.860  0.2697  0.7566 -0.2864
17770TIP3    H174725   5.840   3.641  14.869 -0.0905  1.2371  1.1127
17770TIP3    H274726   5.716   3.639  14.782  0.5128  1.9801  0.2075
17771TIP3   OH274727   6.387   4.411  13.254  0.1300  0.3178 -0.3117
17771TIP3    H174728   6.298   4.444  13.271  0.2220  0.4326 -0.0569
17771TIP3    H274729   6.409   4.359  13.331  0.2392  0.1910 -0.4277
17772TIP3   OH274730   2.802   3.491  16.802 -0.1543  0.1175 -0.4752
17772TIP3    H174731   2.735   3.501  16.734  0.0394 -0.0590 -0.6956
17772TIP3    H274732   2.756   3.451  16.876 -0.5452  1.0331 -0.2122
17773TIP3   OH274733   0.351   5.800   6.355  0.6129  0.1651  0.8479
17773TIP3    H174734   0.408   5.827   6.427  1.3536 -0.8565  0.6687
17773TIP3    H274735   0.289   5.739   6.395 -0.5795  1.4575  1.0958
17774TIP3   OH274736   5.037   0.097   2.846 -0.2172  0.0908  0.5923
17774TIP3    H174737   4.962   0.074   2.900 -0.4500 -0.5421  0.0027
17774TIP3    H274738   5.071   0.178   2.886 -1.8873  1.0378  0.2017
17775TIP3   OH274739   5.382   3.195  14.746 -0.2000  0.2012 -0.2123
17775TIP3    H174740   5.299   3.203  14.792 -0.2446 -1.3023  0.0278
17775TIP3    H274741   5.358   3.180  14.654 -0.1131  3.0412 -0.7808
17776TIP3   OH274742   3.923   1.043  12.066  0.4845  0.3506  0.3227
17776TIP3    H174743   4.018   1.034  12.060  0.7119 -0.2104  3.3220
17776TIP3    H274744   3.910   1.123  12.117 -0.6398  0.0827  0.4816
17777TIP3   OH274745   0.723   1.822   0.443  0.3067  1.0314  0.0176
17777TIP3    H174746   0.694   1.747   0.496  0.9896  1.3096  0.8000
17777TIP3    H274747   0.643   1.872   0.427 -0.0810  0.3856 -0.1183
17778TIP3   OH274748   5.719   3.850   2.265 -0.0337 -0.5313  0.2666
17778TIP3    H174749   5.639   3.799   2.276 -0.2175 -0.6675 -1.4614
17778TIP3    H274750   5.713   3.918   2.332 -1.8197 -0.2788 -0.0996
17779TIP3   OH274751   3.578   3.562  16.953 -0.0850 -0.4699 -0.3053
17779TIP3    H174752   3.642   3.513  16.902 -0.6986 -0.2618 -1.3035
17779TIP3    H274753   3.534   3.495  17.006  1.3383 -0.5359  0.8629
17780TIP3   OH274754   3.733   0.785   3.318  0.2672 -0.0207  0.5729
17780TIP3    H174755   3.813   0.803   3.368 -0.4608  0.2162  1.6686
17780TIP3    H274756   3.727   0.689   3.317 -0.0005 -0.0144  1.3998
17781TIP3   OH274757   0.321   3.122  12.362 -0.5276 -0.3021  0.2420
17781TIP3    H174758   0.288   3.066  12.292 -1.7903  0.0412  0.5406
17781TIP3    H274759   0.411   3.142  12.336 -0.8096 -0.5798 -1.0193
17782TIP3   OH274760   5.725   5.158  13.916 -0.8652  1.1770 -0.4091
17782TIP3    H174761   5.814   5.129  13.896 -0.5418  1.9201 -0.0944
17782TIP3    H274762   5.670   5.081  13.899 -0.3096  1.0391 -1.7062
17783TIP3   OH274763   2.739   3.370  12.108  0.3184  0.0700 -0.0697
17783TIP3    H174764   2.816   3.425  12.092  0.6719 -0.1494  0.7989
17783TIP3    H274765   2.758   3.289  12.060 -0.2763  0.7307 -1.4862
17784TIP3   OH274766   3.045   3.456  15.063 -0.1718  0.1937  0.5119
17784TIP3    H174767   2.996   3.537  15.050  1.2106  0.7006 -2.4223
17784TIP3    H274768   3.088   3.467  15.148  0.2321  2.7028  0.0479
17785TIP3   OH274769   6.001   6.327  17.038  0.3759 -0.0225  0.2591
17785TIP3    H174770   5.952   6.278  16.971 -0.1925  0.5755  0.2282
17785TIP3    H274771   5.952   6.311  17.119  1.5738 -1.4974  0.7436
17786TIP3   OH274772   0.607   6.221  11.840  0.3843 -0.0224  0.1002
17786TIP3    H174773   0.654   6.138  11.846  0.5696  0.0197 -0.7231
17786TIP3    H274774   0.515   6.198  11.857  0.4089 -0.4226 -0.3036
17787TIP3   OH274775   2.824   4.848   0.414  0.3794 -0.4917  0.1255
17787TIP3    H174776   2.828   4.754   0.401  0.7049 -0.4193 -0.3110
17787TIP3    H274777   2.822   4.859   0.509 -3.4171 -1.0646  0.2508
17788TIP3   OH274778   5.403   1.983   5.308 -0.3098 -0.6695  0.0744
17788TIP3    H174779   5.383   2.070   5.344 -0.9209  0.3537 -2.4750
17788TIP3    H274780   5.438   2.002   5.221  1.2846 -2.9554  0.1395
17789TIP3   OH274781   4.343   6.453  15.699  0.4549  0.0572  0.2637
17789TIP3    H174782   4.282   6.434  15.628 -0.4982  1.5673  0.6322
17789TIP3    H274783   4.383   6.369  15.720 -1.4757 -0.9815 -0.0257
17790TIP3   OH274784   5.748   3.446   2.974 -0.0245 -0.0143 -0.0038
17790TIP3    H174785   5.815   3.406   3.029 -0.4324 -0.9153 -0.1282
17790TIP3    H274786   5.791   3.461   2.890 -0.5200 -2.7767 -0.8792
17791TIP3   OH274787   1.758   2.059   4.661  0.2543  0.5001 -0.2629
17791TIP3    H174788   1.739   2.143   4.703  0.0969  0.6494 -0.6266
17791TIP3    H274789   1.741   1.994   4.728  0.8757  0.7882  0.1855
17792TIP3   OH274790   5.082   0.845  15.376  0.0356  0.1257  0.2755
17792TIP3    H174791   5.000   0.890  15.354 -0.6783 -0.9673  0.6060
17792TIP3    H274792   5.143   0.872  15.308 -0.9976 -0.0984 -0.7809
17793TIP3   OH274793   4.100   6.587  13.918 -0.1905 -0.5226  0.0033
17793TIP3    H174794   4.189   6.552  13.926 -0.2999 -0.6106  1.1174
17793TIP3    H274795   4.091   6.644  13.995 -1.3629 -1.1409  0.3407
17794TIP3   OH274796   1.639   1.824  13.226  0.1127 -0.0720 -0.0368
17794TIP3    H174797   1.716   1.813  13.171 -0.7477  0.6466 -1.4309
17794TIP3    H274798   1.580   1.879  13.175 -0.7487  0.5940  1.5912
17795TIP3   OH274799   1.597   0.418   3.078 -0.2821 -0.3473  0.1368
17795TIP3    H174800   1.541   0.486   3.116 -0.5334 -0.8241  0.6379
17795TIP3    H274801   1.586   0.428   2.984 -0.8990 -0.1762  0.2207
17796TIP3   OH274802   1.040   3.981  15.095 -0.2774 -0.3168 -0.1717
17796TIP3    H174803   1.056   4.012  15.005 -0.3021 -1.1501 -0.4732
17796TIP3    H274804   0.998   4.055  15.138  1.1736  0.6812 -0.3692
17797TIP3   OH274805   3.510   2.513  16.199 -0.3380  0.0049 -0.2201
17797TIP3    H174806   3.445   2.552  16.257 -0.6697 -1.2415  0.2905
17797TIP3    H274807   3.591   2.558  16.219 -0.0431 -1.5340  2.5061
17798TIP3   OH274808   4.909   0.314  14.335 -0.0200 -0.7452  0.2524
17798TIP3    H174809   4.956   0.250  14.387 -1.3974 -1.2276  0.9552
17798TIP3    H274810   4.825   0.325  14.380 -0.1434  0.9395 -0.3118
17799TIP3   OH274811   4.823   5.773   4.233  0.2803  0.4334 -0.6431
17799TIP3    H174812   4.903   5.784   4.182  0.7600  0.7183  0.1593
17799TIP3    H274813   4.846   5.801   4.321 -0.7129  0.5473 -0.4033
17800TIP3   OH274814   5.261   0.743  15.028 -0.2957 -0.0897  0.2349
17800TIP3    H174815   5.255   0.821  14.973 -1.2393 -0.1116  0.2817
17800TIP3    H274816   5.170   0.718  15.044 -0.0086 -1.1443  0.3028
17801TIP3   OH274817   4.077   4.574   5.184 -0.0333  0.2760 -0.3022
17801TIP3    H174818   4.092   4.643   5.249  1.2262  1.0096 -1.3241
17801TIP3    H274819   4.154   4.518   5.191  0.0188  0.2568 -1.0186
17802TIP3   OH274820   4.655   5.712   1.619  0.7231 -0.1787  0.5120
17802TIP3    H174821   4.613   5.798   1.613  1.4692  0.2329  1.0659
17802TIP3    H274822   4.744   5.726   1.586  0.0453 -1.3827 -2.1395
17803TIP3   OH274823   0.398   3.754   5.013  0.3648  0.1007  0.1117
17803TIP3    H174824   0.390   3.764   4.918  0.0940 -1.0488 -0.0067
17803TIP3    H274825   0.489   3.728   5.027  1.0792  2.5143  0.4192
17804TIP3   OH274826   4.920   2.767   1.428  0.7860  0.3081  0.0709
17804TIP3    H174827   4.832   2.762   1.466  1.1600  2.1068  1.2853
17804TIP3    H274828   4.960   2.683   1.451 -0.2396 -0.0910  0.4694
17805TIP3   OH274829   1.552   4.207  12.641  0.2168 -0.3698 -0.8149
17805TIP3    H174830   1.569   4.118  12.611  0.7917  0.7583 -4.2728
17805TIP3    H274831   1.470   4.231  12.599 -0.8014  0.2685  1.3879
17806TIP3   OH274832   5.348   2.289   1.115  0.2321  0.5358 -0.3036
17806TIP3    H174833   5.295   2.244   1.049  1.1963  0.8401 -1.3129
17806TIP3    H274834   5.284   2.338   1.168 -0.4722  1.2611 -1.7632
17807TIP3   OH274835   0.405   6.560   3.122  0.4236  0.1297  0.5850
17807TIP3    H174836   0.365   6.639   3.085 -1.3050  0.5760  3.1240
17807TIP3    H274837   0.330   6.505   3.148  1.5794 -1.6858  0.2735
17808TIP3   OH274838   0.114   0.672   4.652  0.1830  0.1328 -0.1095
17808TIP3    H174839   0.197   0.690   4.609  1.2993 -0.9298  1.5030
17808TIP3    H274840   0.095   0.580   4.631 -0.9955  0.5608 -1.0677
17809TIP3   OH274841   0.592   1.000  11.889 -0.2328 -0.3885  0.2340
17809TIP3    H174842   0.643   0.919  11.879  0.5972  0.0652  0.7511
17809TIP3    H274843   0.582   1.011  11.983 -1.0174 -0.2971  0.1444
17810TIP3   OH274844   4.837   5.712  15.124 -0.1892  0.1588  0.4326
17810TIP3    H174845   4.843   5.748  15.213  0.5721  0.8070  0.1211
17810TIP3    H274846   4.747   5.731  15.097 -0.3511  0.1773  0.9748
17811TIP3   OH274847   4.586   0.627  10.903 -0.2510  0.1910  0.0271
17811TIP3    H174848   4.553   0.604  10.990  0.6471  0.2222  0.3829
17811TIP3    H274849   4.512   0.668  10.859 -0.6388  0.4030  0.8648
17812TIP3   OH274850   0.842   3.801  15.018 -0.2801  0.2971 -0.2234
17812TIP3    H174851   0.901   3.725  15.017  1.4909  1.5328  1.2553
17812TIP3    H274852   0.897   3.872  15.051 -1.9581  2.1621 -1.2857
17813TIP3   OH274853   2.207   6.570  14.903  0.1334 -0.0397  0.1054
17813TIP3    H174854   2.213   6.665  14.909  0.0417 -0.0746  0.8778
17813TIP3    H274855   2.120   6.554  14.866 -0.6789  0.1532  1.8139
17814TIP3   OH274856   6.395   1.846  14.054  0.2386  0.0590  0.1791
17814TIP3    H174857   6.308   1.841  14.093 -0.1788  1.5427 -0.4693
17814TIP3    H274858   6.405   1.939  14.031  1.3747 -0.3572 -1.1152
17815TIP3   OH274859   1.782   3.206   0.659 -0.0553 -0.3309  0.6285
17815TIP3    H174860   1.854   3.150   0.689 -0.3654 -0.2788  1.4792
17815TIP3    H274861   1.816   3.247   0.579  0.1277 -1.8466 -0.1109
17816TIP3   OH274862   2.753   0.949  12.237  0.0070  0.2940  0.2466
17816TIP3    H174863   2.669   0.930  12.280  0.9263  1.0726  2.5317
17816TIP3    H274864   2.819   0.917  12.298  1.4106  0.8582 -0.9182
17817TIP3   OH274865   1.931   5.801   1.598 -0.0303 -0.0354 -0.1114
17817TIP3    H174866   1.876   5.784   1.522  0.3815  0.1297 -0.4544
17817TIP3    H274867   1.914   5.728   1.657 -0.1772 -0.2935 -0.4680
17818TIP3   OH274868   0.941   0.412  12.632 -0.1440 -0.7024  0.1316
17818TIP3    H174869   0.979   0.471  12.566 -0.7235 -2.0320 -1.4574
17818TIP3    H274870   0.909   0.471  12.700  1.2302  0.6808 -0.3458
17819TIP3   OH274871   6.213   5.422  14.957 -0.1572  0.9067 -0.1182
17819TIP3    H174872   6.228   5.473  15.036  0.6635 -1.4749  1.3299
17819TIP3    H274873   6.300   5.406  14.921 -0.4581  1.1118 -0.9677
17820TIP3   OH274874   3.561   4.860  12.587  0.1222 -0.3813 -0.0442
17820TIP3    H174875   3.509   4.807  12.648 -0.4987  0.3251  0.0444
17820TIP3    H274876   3.497   4.913  12.540  0.7191  0.0979 -0.3284
17821TIP3   OH274877   4.461   2.072   0.419  0.5596 -0.0562 -0.1233
17821TIP3    H174878   4.544   2.113   0.394  1.1353 -1.2825 -0.2908
17821TIP3    H274879   4.472   2.049   0.511  0.0157  0.6852  0.1349
17822TIP3   OH274880   4.018   1.904  13.403 -1.0272 -0.1659 -0.4852
17822TIP3    H174881   4.064   1.832  13.447 -0.7921 -0.1930 -0.7726
17822TIP3    H274882   3.966   1.860  13.335  0.6095  0.0854 -1.9556
17823TIP3   OH274883   6.336   0.647  16.839 -0.7222  0.4935  0.1734
17823TIP3    H174884   6.331   0.742  16.846  1.3171  0.9104 -2.4343
17823TIP3    H274885   6.419   0.624  16.880  0.4248  0.3482 -2.0447
17824TIP3   OH274886   0.921   5.453  15.295 -0.0708  0.1334 -0.0183
17824TIP3    H174887   0.958   5.533  15.334  0.6526 -0.5469  0.7121
17824TIP3    H274888   0.993   5.415  15.246 -0.8666  0.7813 -1.7709
17825TIP3   OH274889   0.762   6.539   3.801 -0.2046 -0.5158 -0.0716
17825TIP3    H174890   0.825   6.471   3.824 -0.1117 -0.6508 -0.7095
17825TIP3    H274891   0.808   6.595   3.738  0.2076  0.9638  1.4666
17826TIP3   OH274892   4.028   2.504   4.934 -0.7188  0.1435  0.1138
17826TIP3    H174893   3.996   2.480   4.848 -1.7584  0.5346  0.3738
17826TIP3    H274894   4.123   2.509   4.924 -0.9335  2.7475 -1.7060
17827TIP3   OH274895   1.527   6.344  10.774 -0.3383 -0.3259  0.1095
17827TIP3    H174896   1.497   6.264  10.731 -0.6923  0.3571 -0.9528
17827TIP3    H274897   1.589   6.313  10.840 -0.2885 -1.4602 -0.4308
17828TIP3   OH274898   2.846   2.264   0.948  0.5910  0.8301 -0.5318
17828TIP3    H174899   2.843   2.317   1.028  0.6672 -0.8219  0.6044
17828TIP3    H274900   2.783   2.194   0.963  1.4067 -0.1278 -1.4738
17829TIP3   OH274901   6.302   0.199   5.211  0.7699 -0.3727  0.6996
17829TIP3    H174902   6.214   0.218   5.177  0.7406 -1.1882  0.2898
17829TIP3    H274903   6.328   0.279   5.257  0.5035  0.4946 -0.6183
17830TIP3   OH274904   4.985   4.248  14.600  0.1618  0.0401  0.1883
17830TIP3    H174905   4.996   4.261  14.694 -0.0502  2.0992 -0.0320
17830TIP3    H274906   4.890   4.254  14.586  0.2598  0.6565 -0.2568
17831TIP3   OH274907   5.463   6.495  11.448 -0.1575  0.2751 -0.2440
17831TIP3    H174908   5.532   6.442  11.487 -0.7541 -0.1022  0.3107
17831TIP3    H274909   5.430   6.443  11.375 -1.7712 -0.8405  1.2077
17832TIP3   OH274910   0.031   2.828   3.384 -0.7640 -0.0002 -0.4732
17832TIP3    H174911  -0.008   2.855   3.467  2.5895 -2.2333  2.0723
17832TIP3    H274912   0.007   2.898   3.323 -2.5245  2.3055  2.5808
17833TIP3   OH274913   1.946   3.867   2.254 -0.0079 -0.4581  0.0795
17833TIP3    H174914   1.940   3.937   2.319 -1.6313 -0.2954 -0.2106
17833TIP3    H274915   2.031   3.826   2.272  0.8755  1.3868  0.4331
17834TIP3   OH274916   2.310   3.996   2.898  0.3409 -0.2033  0.3902
17834TIP3    H174917   2.346   4.063   2.956  3.5184 -1.7158  0.3574
17834TIP3    H274918   2.350   4.014   2.813 -2.5418  0.6509 -0.9020
17835TIP3   OH274919   4.183   5.169  11.590  0.5620  0.1272 -0.1010
17835TIP3    H174920   4.128   5.094  11.610  1.2905 -0.2054  0.6964
17835TIP3    H274921   4.121   5.240  11.572 -0.1274 -0.5675 -0.5380
17836TIP3   OH274922   1.709   6.504  12.313  0.0516  0.5303 -0.5862
17836TIP3    H174923   1.630   6.461  12.282  0.1760 -0.4274  0.3698
17836TIP3    H274924   1.719   6.581  12.257 -0.7848 -0.0947 -1.6116
17837TIP3   OH274925   2.573   0.719  12.830  0.1216  0.0505 -0.4227
17837TIP3    H174926   2.516   0.643  12.817 -0.0523  0.2600 -0.9472
17837TIP3    H274927   2.514   0.789  12.857  0.0751  0.3392 -1.2291
17838TIP3   OH274928   2.589   4.602   5.090  0.0645 -0.5502  0.5044
17838TIP3    H174929   2.580   4.619   5.184  0.9216 -0.5058  0.5877
17838TIP3    H274930   2.510   4.552   5.067 -0.0816 -0.6910  1.2793
17839TIP3   OH274931   4.095   2.816  12.626  0.3176 -0.1844 -0.2926
17839TIP3    H174932   4.107   2.839  12.534  1.5216 -0.2747 -0.1764
17839TIP3    H274933   4.001   2.801  12.635  0.1432  0.1236 -1.4323
17840TIP3   OH274934   6.295   1.392  15.720  0.2378 -0.4478 -0.1126
17840TIP3    H174935   6.330   1.471  15.680 -0.0704  0.6641  1.7324
17840TIP3    H274936   6.315   1.401  15.813  0.3233 -2.6244  0.1340
17841TIP3   OH274937   1.877   5.572   0.634  0.4417 -0.0074  0.4209
17841TIP3    H174938   1.809   5.602   0.573 -1.2514 -2.0782  1.1473
17841TIP3    H274939   1.926   5.651   0.656 -0.2941  1.1846 -1.8689
17842TIP3   OH274940   4.433   5.433  15.286  0.1133  0.6310  0.0003
17842TIP3    H174941   4.434   5.458  15.379 -1.0752  2.3475 -0.3837
17842TIP3    H274942   4.525   5.425  15.262  0.5161  2.2133  0.8578
17843TIP3   OH274943   5.280   5.693  16.958  0.0720  0.2285  0.1749
17843TIP3    H174944   5.188   5.693  16.934  0.2900 -1.9160 -0.8793
17843TIP3    H274945   5.282   5.655  17.046  0.0096 -0.6532 -0.1954
17844TIP3   OH274946   2.579   2.898  12.756 -0.0471  0.1234  0.0323
17844TIP3    H174947   2.542   2.975  12.798 -0.9829  0.3526 -1.1534
17844TIP3    H274948   2.634   2.933  12.686  0.3653 -0.2689  0.1571
17845TIP3   OH274949   3.536   4.064  10.847 -0.0103  0.5655  0.0336
17845TIP3    H174950   3.585   4.014  10.782 -1.8414 -0.3158 -0.7327
17845TIP3    H274951   3.481   3.999  10.892 -0.8443  1.5645  0.5212
17846TIP3   OH274952   2.637   2.452   1.277  0.2265  0.5487 -0.3852
17846TIP3    H174953   2.723   2.410   1.280  0.2307  0.5307 -0.6984
17846TIP3    H274954   2.646   2.520   1.210  0.3309  1.3062  0.3960
17847TIP3   OH274955   0.875   1.139   2.084  0.0787 -0.2181  0.2123
17847TIP3    H174956   0.838   1.060   2.124  0.1939  0.2675  1.3432
17847TIP3    H274957   0.825   1.151   2.003  0.2719 -1.6107 -0.1409
17848TIP3   OH274958   2.655   3.149   2.056  0.4741  0.0392  0.5605
17848TIP3    H174959   2.651   3.245   2.056  1.3378  0.0808  0.3818
17848TIP3    H274960   2.742   3.129   2.022  0.5128 -0.7994  1.1410
17849TIP3   OH274961   4.879   3.014   4.187  0.2933 -0.0815 -0.3488
17849TIP3    H174962   4.794   2.970   4.180  0.4465 -0.5562  0.6598
17849TIP3    H274963   4.880   3.075   4.113 -0.2059 -1.2709 -1.3732
17850TIP3   OH274964   6.249   1.342   1.137 -0.4558  0.2887  0.1653
17850TIP3    H174965   6.283   1.259   1.104 -1.1478 -0.2221  0.6982
17850TIP3    H274966   6.175   1.362   1.080 -1.3795 -0.3705  1.0924
17851TIP3   OH274967   5.856   4.979   4.136 -0.7621  0.2450 -0.2685
17851TIP3    H174968   5.854   5.021   4.222 -4.4599 -0.6536  0.2576
17851TIP3    H274969   5.833   5.049   4.075 -1.4831  0.1739 -0.0835
17852TIP3   OH274970   6.240   3.716  10.914  0.5080  0.0648  0.0460
17852TIP3    H174971   6.326   3.752  10.935  0.0071  2.3772 -1.4477
17852TIP3    H274972   6.259   3.637  10.863  1.7924  1.1557 -1.2477
17853TIP3   OH274973   2.924   2.406   4.658 -0.7676  0.2976  0.1159
17853TIP3    H174974   2.873   2.351   4.600 -1.4588  0.6883  0.3364
17853TIP3    H274975   2.973   2.345   4.713 -0.6357 -0.0762 -0.4171
17854TIP3   OH274976   5.043   3.002   4.763  0.0284  0.5882  0.2715
17854TIP3    H174977   5.043   3.018   4.668 -2.4618  0.4726  0.1949
17854TIP3    H274978   5.083   3.081   4.800  0.4088  0.9383 -0.8303
17855TIP3   OH274979   6.131   1.858  12.714 -0.4143 -0.1365 -0.6360
17855TIP3    H174980   6.127   1.946  12.674 -0.5967  0.2378  0.1817
17855TIP3    H274981   6.179   1.871  12.796 -0.3168 -0.8357 -0.5801
17856TIP3   OH274982   5.326   1.235  14.417 -0.8698 -0.1001  0.1499
17856TIP3    H174983   5.311   1.256  14.325 -1.0116  0.8274  0.3702
17856TIP3    H274984   5.360   1.146  14.416 -0.9641 -0.1388 -0.7920
17857TIP3   OH274985   4.310   0.828   1.867 -0.9781 -0.8164 -0.1378
17857TIP3    H174986   4.276   0.850   1.780  0.8843  0.7598 -0.5083
17857TIP3    H274987   4.360   0.747   1.853 -0.4948 -0.4452 -0.5922
17858TIP3   OH274988   2.468   6.744  11.234 -0.1631 -0.3759  0.0642
17858TIP3    H174989   2.481   6.669  11.292  0.6895 -0.0365  0.3242
17858TIP3    H274990   2.463   6.706  11.146 -3.8937 -1.1745  0.4537
17859TIP3   OH274991   6.119   1.988   4.317 -0.9461  0.0440 -0.0448
17859TIP3    H174992   6.072   1.918   4.363  0.1944  0.1331  1.3249
17859TIP3    H274993   6.049   2.044   4.282 -1.8620 -1.0592 -0.0614
17860TIP3   OH274994   6.472   4.172   4.362  0.0835  0.2704 -0.3107
17860TIP3    H174995   6.456   4.147   4.453 -1.8450  2.4350  0.0384
17860TIP3    H274996   6.561   4.207   4.362  0.1463  0.1341  0.7170
17861TIP3   OH274997   5.602   4.794  12.138 -0.4053  0.1348 -0.0490
17861TIP3    H174998   5.600   4.862  12.070 -0.0769 -0.4548 -0.6562
17861TIP3    H274999   5.680   4.815  12.189 -0.4804  0.3988 -0.0398
17862TIP3   OH275000   5.278   0.507   0.819  0.1780  0.7091  0.0737
17862TIP3    H175001   5.194   0.509   0.772  0.2088 -0.2527 -0.0382
17862TIP3    H275002   5.343   0.520   0.750  0.3521 -2.6307 -0.5689
17863TIP3   OH275003   5.826   4.593  12.389 -0.0099 -0.0090  0.2355
17863TIP3    H175004   5.841   4.612  12.297  0.5485  1.0472  0.5255
17863TIP3    H275005   5.903   4.629  12.434 -0.6682  0.2564  1.1865
17864TIP3   OH275006   1.887   0.927  13.875  0.1237  0.3958 -0.2271
17864TIP3    H175007   1.853   0.895  13.959 -0.3547 -0.0456 -0.5746
17864TIP3    H275008   1.907   1.019  13.890  0.1642  0.2875  0.4062
17865TIP3   OH275009   3.385   0.685   4.064 -0.1659  0.0007 -0.4887
17865TIP3    H175010   3.322   0.640   4.120 -0.1678 -0.2821 -0.7159
17865TIP3    H275011   3.467   0.683   4.113 -0.3497  0.4491 -0.1511
17866TIP3   OH275012   0.875   0.523   5.601  0.1221  0.2335  0.5742
17866TIP3    H175013   0.865   0.607   5.556 -0.7158 -0.1827 -0.0384
17866TIP3    H275014   0.848   0.458   5.537  1.7996 -0.6106  0.6705
17867TIP3   OH275015   2.703   5.393  13.753  0.0916 -0.0068 -0.0391
17867TIP3    H175016   2.632   5.361  13.809  0.6031  0.3489  0.8377
17867TIP3    H275017   2.752   5.313  13.730 -0.1960 -0.1702 -0.0928
17868TIP3   OH275018   4.252   5.398  13.320  0.3466 -0.2194 -0.0451
17868TIP3    H175019   4.337   5.384  13.279 -0.3717  0.0136 -1.6613
17868TIP3    H275020   4.243   5.493  13.327 -0.4263 -0.1829 -1.3214
17869TIP3   OH275021   0.044   1.477   3.498 -0.1831  0.5570  0.4538
17869TIP3    H175022   0.026   1.465   3.591  0.6775 -1.0627  0.4550
17869TIP3    H275023  -0.040   1.461   3.455 -0.3031 -0.0320  0.8879
17870TIP3   OH275024   0.417   1.346   1.750 -0.3283 -0.3255  0.1295
17870TIP3    H175025   0.505   1.316   1.725 -0.3262  0.7213 -1.2730
17870TIP3    H275026   0.419   1.440   1.734 -1.2094 -0.0088  1.7032
17871TIP3   OH275027   3.157   4.983  11.388 -0.1332 -0.3953 -0.2539
17871TIP3    H175028   3.206   5.061  11.413  1.1472 -1.5405  0.9640
17871TIP3    H275029   3.176   4.972  11.294 -1.4918  1.5167 -0.7980
17872TIP3   OH275030   1.964   1.864  16.491 -0.1816  0.3640 -0.0848
17872TIP3    H175031   1.896   1.930  16.504 -1.6701 -0.7056 -1.9731
17872TIP3    H275032   2.016   1.896  16.417  0.5723  0.5072  0.4849
17873TIP3   OH275033   1.637   4.937  15.534 -0.3012 -0.2630 -0.0919
17873TIP3    H175034   1.616   5.030  15.538  1.9484  0.3034 -0.3797
17873TIP3    H275035   1.686   4.919  15.614  0.8410 -0.7534 -0.8746
17874TIP3   OH275036   0.354   3.329   0.454 -0.5177  0.8283 -0.1583
17874TIP3    H175037   0.368   3.414   0.496  0.1999  0.3138  0.6745
17874TIP3    H275038   0.369   3.345   0.361  1.1264  1.2957  0.1680
17875TIP3   OH275039   3.192   1.400  12.609  0.0215 -0.4442 -0.0019
17875TIP3    H175040   3.146   1.390  12.525 -0.8868 -2.8146  0.6921
17875TIP3    H275041   3.220   1.311  12.631 -1.1604 -0.1599  2.9704
17876TIP3   OH275042   6.099   0.516   5.815  0.0590 -0.1793 -0.0911
17876TIP3    H175043   6.141   0.522   5.729 -0.8412 -0.0525 -0.5305
17876TIP3    H275044   6.011   0.484   5.796 -0.6632  1.3056  0.6345
17877TIP3   OH275045   4.671   4.126   0.027 -0.2886  0.1962 -0.2979
17877TIP3    H175046   4.681   4.058  -0.040 -0.2278 -2.2502  1.9859
17877TIP3    H275047   4.727   4.198  -0.003  1.5802 -1.7125 -1.7406
17878TIP3   OH275048   6.378   4.549   3.366  0.3923 -0.3241  0.1363
17878TIP3    H175049   6.356   4.540   3.274 -1.4707  1.9620  0.2462
17878TIP3    H275050   6.314   4.495   3.412 -1.1324  1.3996  0.1694
17879TIP3   OH275051   0.997   2.643  11.163  0.2896 -0.0603 -0.3964
17879TIP3    H175052   1.046   2.574  11.206  1.6583  1.1198  0.0297
17879TIP3    H275053   0.912   2.604  11.142  0.7975 -1.6452  0.3899
17880TIP3   OH275054   1.530   0.940  11.875  0.4785 -0.1767  0.2894
17880TIP3    H175055   1.624   0.956  11.873  0.2132  1.7209  0.9247
17880TIP3    H275056   1.502   0.976  11.959 -0.8762 -0.4088 -0.0417
17881TIP3   OH275057   0.214   0.325  13.496 -0.5398 -0.2884  0.3640
17881TIP3    H175058   0.161   0.250  13.470  0.2201 -0.8076  0.2555
17881TIP3    H275059   0.304   0.290  13.498 -0.3379  0.2807  1.6473
17882TIP3   OH275060   2.831   1.430   2.348 -0.1355  0.7271 -0.4344
17882TIP3    H175061   2.898   1.474   2.400 -0.8078  0.1416  0.9714
17882TIP3    H275062   2.749   1.455   2.388 -0.5983 -0.8177 -0.3680
17883TIP3   OH275063   2.787   2.661  12.058 -0.6841  0.5209 -0.3518
17883TIP3    H175064   2.880   2.647  12.042 -1.1600 -0.6165 -2.5222
17883TIP3    H275065   2.750   2.573  12.062 -1.9109  0.9609 -1.3069
17884TIP3   OH275066   0.642   3.038   2.541 -0.2412 -0.1107 -0.5310
17884TIP3    H175067   0.676   3.072   2.458  0.3628  1.1260  0.1854
17884TIP3    H275068   0.549   3.024   2.524  0.5932 -4.6904 -2.8906
17885TIP3   OH275069   5.921   5.125  13.578 -0.5898  0.0935 -0.8905
17885TIP3    H175070   6.007   5.138  13.617 -0.6868  1.9093 -1.2096
17885TIP3    H275071   5.937   5.127  13.483 -1.0970  1.6510 -0.9718
17886TIP3   OH275072   0.185   4.551   5.074  0.8729  0.3716 -0.1036
17886TIP3    H175073   0.113   4.575   5.015  0.7629 -0.6427 -0.3933
17886TIP3    H275074   0.258   4.607   5.047  0.2943  1.1884 -0.0095
17887TIP3   OH275075   5.546   6.199   4.681  0.0811  0.2478  0.1875
17887TIP3    H175076   5.560   6.292   4.696 -1.0485  0.6332 -0.9084
17887TIP3    H275077   5.606   6.176   4.611 -0.5069  0.4744 -0.4070
17888TIP3   OH275078   1.892   1.742  14.479  0.3751 -0.8445 -0.1168
17888TIP3    H175079   1.928   1.830  14.463 -1.6455 -0.0734 -0.6505
17888TIP3    H275080   1.857   1.746  14.568 -0.2494 -0.9094 -0.3555
17889TIP3   OH275081   2.286   2.134  12.229 -0.2571 -0.2311 -0.4290
17889TIP3    H175082   2.278   2.044  12.199  0.2869 -0.1165 -0.9225
17889TIP3    H275083   2.249   2.187  12.159  0.9569  0.0306 -0.8859
17890TIP3   OH275084   6.315   3.992   1.748  0.7527  0.1834  0.1977
17890TIP3    H175085   6.364   4.070   1.719 -0.1448 -0.1647 -2.5167
17890TIP3    H275086   6.231   4.026   1.778  0.1478  0.2923 -1.5023
17891TIP3   OH275087   6.331   2.170  10.603 -0.2643 -0.3226  0.4354
17891TIP3    H175088   6.414   2.203  10.569 -0.5930 -0.3686 -0.4407
17891TIP3    H275089   6.266   2.196  10.538 -0.9051 -0.4708  1.0068
17892TIP3   OH275090   4.892   0.257  11.541  0.2297 -0.0202 -0.1663
17892TIP3    H175091   4.882   0.164  11.519 -2.7100  0.4601 -1.2837
17892TIP3    H275092   4.984   0.276  11.521  0.9074 -2.6251  0.0009
17893TIP3   OH275093   0.193   6.697   5.090  0.3740  0.2847 -0.3136
17893TIP3    H175094   0.116   6.743   5.126 -0.1982 -0.7730 -0.1589
17893TIP3    H275095   0.267   6.748   5.122 -0.2447  1.3105 -0.4328
17894TIP3   OH275096   4.496   2.285   3.515 -0.1422 -0.2901  0.1789
17894TIP3    H175097   4.562   2.354   3.529  0.9754 -1.3188  0.1382
17894TIP3    H275098   4.423   2.330   3.472  1.2379  0.5564 -1.3850
17895TIP3   OH275099   6.101   6.540  16.488 -0.3583 -0.2508  0.4635
17895TIP3    H175100   6.158   6.464  16.474  0.5383  0.7145 -1.4313
17895TIP3    H275101   6.045   6.514  16.562 -1.1002 -3.3325 -1.0163
17896TIP3   OH275102   5.975   0.864   1.065 -0.1627 -0.1393 -0.7917
17896TIP3    H175103   5.937   0.813   1.138 -0.9702  1.5511  0.0178
17896TIP3    H275104   5.944   0.953   1.080  0.2275  0.3825 -2.8478
17897TIP3   OH275105   2.402   5.327  16.324 -0.3414  0.7444  0.1817
17897TIP3    H175106   2.486   5.361  16.354 -0.5181  0.3848  1.1121
17897TIP3    H275107   2.372   5.390  16.258 -1.3202  3.2252  2.8275
17898TIP3   OH275108   5.106   1.729  11.525  0.1610  0.5918 -0.3059
17898TIP3    H175109   5.135   1.645  11.559  0.5197  0.4420 -0.9641
17898TIP3    H275110   5.149   1.737  11.440 -1.7343  0.3653 -1.3447
17899TIP3   OH275111   1.626   4.845  14.460  0.7694  0.3871 -0.2194
17899TIP3    H175112   1.722   4.837  14.460  0.7469  0.0630  0.4834
17899TIP3    H275113   1.594   4.755  14.458  0.4949  0.4256  1.1835
17900TIP3   OH275114   2.418   3.110   2.830  0.2579 -0.4616  0.2594
17900TIP3    H175115   2.473   3.101   2.752 -3.0723 -0.7018 -2.2879
17900TIP3    H275116   2.412   3.204   2.844  1.1992 -0.4285  0.5379
17901TIP3   OH275117   4.149   6.729  11.666 -0.3929  0.0742  0.8139
17901TIP3    H175118   4.178   6.642  11.694  1.5902  0.6877  0.8035
17901TIP3    H275119   4.144   6.780  11.747 -1.8043 -0.0937  0.8510
17902TIP3   OH275120   4.243   4.647  10.320 -0.0995  0.2262 -0.0138
17902TIP3    H175121   4.193   4.710  10.268 -0.3279  0.5194  0.5483
17902TIP3    H275122   4.303   4.606  10.258 -1.4032 -0.5260 -0.8062
17903TIP3   OH275123   4.087   5.279  16.766 -0.1825  0.0347 -0.6708
17903TIP3    H175124   3.999   5.262  16.801 -0.3181  0.2146 -0.9232
17903TIP3    H275125   4.103   5.371  16.788  0.4704 -0.3397  0.5191
17904TIP3   OH275126   5.348   2.711  16.461  0.2268  0.2119  0.4302
17904TIP3    H175127   5.367   2.803  16.480 -1.2450  0.5838  0.1461
17904TIP3    H275128   5.331   2.708  16.367 -2.8717  0.2724  0.8884
17905TIP3   OH275129   5.517   2.677   2.012  0.1925 -0.0582  0.0940
17905TIP3    H175130   5.491   2.679   1.920  0.6891  0.9469 -0.0430
17905TIP3    H275131   5.451   2.622   2.054  0.0722 -0.6912 -0.8903
17906TIP3   OH275132   1.467   1.152   0.950  1.0456 -0.1521 -0.2653
17906TIP3    H175133   1.425   1.183   1.030 -1.1346 -3.0247 -0.1582
17906TIP3    H275134   1.511   1.230   0.915 -1.3810  2.2191  1.5316
17907TIP3   OH275135   1.574   0.782   2.287 -0.6281 -0.2998  0.1201
17907TIP3    H175136   1.610   0.697   2.264 -2.3390 -0.8142 -0.7766
17907TIP3    H275137   1.649   0.842   2.283  0.6044 -1.7389  0.8306
17908TIP3   OH275138   2.252   2.965   4.054  0.2204 -0.7017 -0.2957
17908TIP3    H175139   2.212   3.025   3.990  0.0567  0.8598  1.1945
17908TIP3    H275140   2.182   2.904   4.076 -0.6656  0.5497  0.5086
17909TIP3   OH275141   0.915   6.106   4.616 -0.0423 -0.3753  0.2931
17909TIP3    H175142   1.001   6.136   4.586  0.9553 -3.9685 -0.9258
17909TIP3    H275143   0.874   6.068   4.538 -2.6493  0.9345  0.9331
17910TIP3   OH275144   0.201   0.157  11.427 -0.0614 -0.5344  0.6899
17910TIP3    H175145   0.198   0.062  11.440  0.8083 -0.6026  0.4488
17910TIP3    H275146   0.294   0.178  11.426 -0.1464 -0.0058 -1.4442
17911TIP3   OH275147   5.592   1.970  16.867  0.1737  0.4293  0.3103
17911TIP3    H175148   5.544   2.028  16.808 -1.0849  0.0159  0.8834
17911TIP3    H275149   5.524   1.918  16.909  1.0717  0.4686  1.8657
17912TIP3   OH275150   6.325   4.812  11.811  0.0639  0.2036 -0.5050
17912TIP3    H175151   6.328   4.767  11.895 -0.6177  2.2445  0.7046
17912TIP3    H275152   6.416   4.817  11.783  0.8572  2.7381  2.0524
17913TIP3   OH275153   3.889   0.118  14.734 -0.4106 -0.0438  0.4231
17913TIP3    H175154   3.957   0.060  14.770  0.0946 -0.8393 -1.6615
17913TIP3    H275155   3.906   0.118  14.640 -1.2266  2.4915  0.2159
17914TIP3   OH275156   4.771   4.001   4.462  0.4656  0.5586 -0.1911
17914TIP3    H175157   4.759   3.951   4.381 -1.3197 -1.4701  1.2074
17914TIP3    H275158   4.686   4.042   4.478 -0.3159 -1.7218  2.2295
17915TIP3   OH275159   6.748   2.108  11.093 -0.0402  0.2102  0.4137
17915TIP3    H175160   6.737   2.151  11.178 -0.5336 -0.1765  0.5484
17915TIP3    H275161   6.698   2.162  11.032  0.6169  0.6966  0.2965
17916TIP3   OH275162   1.517   2.112  15.905  0.2561  0.1669 -1.0191
17916TIP3    H175163   1.465   2.184  15.868 -1.7649  0.3567  1.8971
17916TIP3    H275164   1.568   2.153  15.975 -0.9501 -1.1829  0.7144
17917TIP3   OH275165   3.356   1.079  15.028 -0.1573  0.2818  0.0174
17917TIP3    H175166   3.379   1.012  15.093  2.4723  0.6285 -0.4309
17917TIP3    H275167   3.270   1.054  14.996  0.7222 -2.9408 -0.1647
17918TIP3   OH275168   2.778   5.122  16.164  0.2167  0.1682  0.3874
17918TIP3    H175169   2.839   5.055  16.194 -0.3533 -1.4580 -1.8411
17918TIP3    H275170   2.698   5.106  16.215 -0.0058 -1.0677 -0.3141
17919TIP3   OH275171   2.380   1.110  15.918 -0.5138 -0.4164  0.3199
17919TIP3    H175172   2.452   1.173  15.926 -1.8356  1.0575  1.2942
17919TIP3    H275173   2.373   1.070  16.004 -0.7281 -0.7120  0.1673
17920TIP3   OH275174   3.195   5.498   3.391 -0.4729 -0.0824  0.4743
17920TIP3    H175175   3.165   5.576   3.438 -1.1220  0.1819 -0.3569
17920TIP3    H275176   3.289   5.511   3.381 -0.6652  0.8896 -0.1863
17921TIP3   OH275177   0.929   3.956  13.977  0.2601 -0.0347  0.4471
17921TIP3    H175178   0.934   4.037  14.027 -4.4693  0.9722 -0.1911
17921TIP3    H275179   0.940   3.887  14.042  1.7547  1.1104  1.4731
17922TIP3   OH275180   5.336   4.808  16.414  0.1714 -0.2147 -0.9043
17922TIP3    H175181   5.421   4.852  16.419  0.0348  0.2959 -2.6213
17922TIP3    H275182   5.278   4.860  16.470 -0.0519  2.0323 -3.0463
17923TIP3   OH275183   2.422   4.042   3.761 -0.0225  0.0546  0.2462
17923TIP3    H175184   2.439   3.966   3.817 -1.2803 -1.2315 -1.0232
17923TIP3    H275185   2.359   4.095   3.811  1.4077  0.6985  1.4512
17924TIP3   OH275186   5.042   4.447   1.918  0.2087  0.4174  0.2516
17924TIP3    H175187   5.063   4.490   1.835  0.1714  0.8334  0.4537
17924TIP3    H275188   4.948   4.432   1.914  0.3973 -0.6437 -0.2815
17925TIP3   OH275189   2.656   4.641  16.214 -0.4342 -0.0148  0.4967
17925TIP3    H175190   2.694   4.719  16.172 -1.1005  0.1198  0.1335
17925TIP3    H275191   2.732   4.588  16.237  0.0465  0.8304  0.9423
17926TIP3   OH275192   3.355   6.116  11.375 -0.1805  0.2752 -0.5051
17926TIP3    H175193   3.369   6.023  11.397  1.2861  0.4762 -0.5212
17926TIP3    H275194   3.367   6.120  11.280  3.2720  1.0031 -0.1624
17927TIP3   OH275195   1.230   4.546  12.350  0.2276 -0.1424 -0.6344
17927TIP3    H175196   1.311   4.578  12.310  0.0618  1.5565  0.3241
17927TIP3    H275197   1.239   4.450  12.346  1.6128 -0.0123 -1.8458
17928TIP3   OH275198   1.799   0.566   2.832 -0.4117 -0.1807 -0.4269
17928TIP3    H175199   1.779   0.642   2.886  0.0347 -0.9048  0.8254
17928TIP3    H275200   1.719   0.514   2.833 -0.0069 -0.8424  0.7217
17929TIP3   OH275201   5.727   6.448   0.124 -0.0112  0.0392 -0.0612
17929TIP3    H175202   5.739   6.527   0.071 -1.4334  0.9557  0.8822
17929TIP3    H275203   5.751   6.476   0.213  1.7950 -1.3079 -0.0722
17930TIP3   OH275204   4.770   3.712  16.815  0.3355  0.9799 -0.4086
17930TIP3    H175205   4.818   3.642  16.859  0.0781  2.3371  2.2329
17930TIP3    H275206   4.679   3.681  16.812  0.6973 -0.0485 -2.1142
17931TIP3   OH275207   5.884   3.127   4.371 -0.1527 -0.0111  0.3798
17931TIP3    H175208   5.852   3.175   4.295 -0.3787 -0.7261  0.0245
17931TIP3    H275209   5.878   3.191   4.443 -2.3042 -0.0797  0.3202
17932TIP3   OH275210   0.019   2.159   0.195  0.1547 -0.3662  0.1896
17932TIP3    H175211   0.012   2.232   0.134 -0.3080 -1.4040 -1.0315
17932TIP3    H275212  -0.011   2.195   0.279 -0.6147  0.6829 -0.5177
17933TIP3   OH275213   1.026   2.560  10.468  0.0382 -0.3463 -0.7264
17933TIP3    H175214   1.097   2.560  10.404  0.6343 -0.9774 -0.0809
17933TIP3    H275215   1.000   2.652  10.474  1.0800 -0.0417 -0.6670
17934TIP3   OH275216   2.307   5.002  11.918  0.1182  0.3700  0.7450
17934TIP3    H175217   2.219   5.019  11.952 -0.9470 -0.6840 -1.2735
17934TIP3    H275218   2.307   4.910  11.894  1.2044  0.7315 -0.8199
17935TIP3   OH275219   0.636   3.091  10.855 -0.4582  0.2913  0.7129
17935TIP3    H175220   0.656   3.053  10.940  3.2486 -0.6701 -0.4283
17935TIP3    H275221   0.643   3.018  10.793 -1.5556  1.2592 -0.6235
17936TIP3   OH275222   0.503   2.172   2.767  0.1889 -0.1885  0.1048
17936TIP3    H175223   0.582   2.150   2.815 -1.1542 -2.4593  1.4589
17936TIP3    H275224   0.489   2.099   2.708 -0.8974  0.1532 -0.0865
17937TIP3   OH275225   3.302   1.626   2.382 -0.2834  0.4082 -0.2157
17937TIP3    H175226   3.321   1.551   2.325 -0.0160 -0.1250  0.5675
17937TIP3    H275227   3.321   1.702   2.327  1.5817 -0.0880 -0.3325
17938TIP3   OH275228   6.588   1.363   3.416 -0.0126 -0.3144 -0.1856
17938TIP3    H175229   6.606   1.301   3.486 -0.6130  0.0066  0.2531
17938TIP3    H275230   6.554   1.309   3.344 -5.7242 -0.1470  1.9028
17939TIP3   OH275231   0.288   3.534  14.004 -0.6321 -0.0452 -0.0360
17939TIP3    H175232   0.202   3.499  14.028  0.4697 -1.7568  1.7066
17939TIP3    H275233   0.329   3.555  14.087  1.2097 -0.7397 -0.7243
17940TIP3   OH275234   5.599   0.180  12.730 -0.4116  0.1811 -0.2236
17940TIP3    H175235   5.546   0.143  12.659  1.3119 -0.6949 -1.1173
17940TIP3    H275236   5.670   0.117  12.742 -0.0194  0.8902  1.5177
17941TIP3   OH275237   6.210   2.723   4.744  0.6951 -0.3763 -0.1508
17941TIP3    H175238   6.159   2.700   4.666  0.9420 -2.4669  0.2399
17941TIP3    H275239   6.221   2.818   4.738 -1.7201 -0.0776 -1.1680
17942TIP3   OH275240   3.339   0.199   1.889 -0.7920  0.0168 -0.2207
17942TIP3    H175241   3.282   0.270   1.917 -0.6230  0.1791 -0.2865
17942TIP3    H275242   3.423   0.241   1.871 -0.0436 -0.4765  1.7792
17943TIP3   OH275243   6.118   3.162  12.648  0.4686 -0.1979  0.0417
17943TIP3    H175244   6.034   3.207  12.655  1.2466  1.1554  1.5296
17943TIP3    H275245   6.149   3.182  12.560  0.5814  1.9450  0.4938
17944TIP3   OH275246   5.893   4.323  12.113  0.1441 -0.2381  0.4540
17944TIP3    H175247   5.954   4.276  12.056 -0.1607 -0.2016  0.0913
17944TIP3    H275248   5.928   4.311  12.201  1.1038  0.4337  0.1827
17945TIP3   OH275249   4.415   0.831  13.898  0.5186 -0.3639  0.6032
17945TIP3    H175250   4.347   0.895  13.921  1.1145  0.6057 -0.2738
17945TIP3    H275251   4.492   0.883  13.877  1.1283 -1.3899  0.2024
17946TIP3   OH275252   6.346   0.312   1.550  0.4701 -0.0586  0.8896
17946TIP3    H175253   6.273   0.283   1.605 -0.1013  0.3877  0.3760
17946TIP3    H275254   6.309   0.383   1.497  1.1881 -0.0621  0.3800
17947TIP3   OH275255   3.386   3.363   5.957  0.3441 -0.1879 -0.0581
17947TIP3    H175256   3.417   3.440   6.005 -1.1916 -0.6950  1.8739
17947TIP3    H275257   3.460   3.302   5.959  0.8218  0.3954  0.3502
17948TIP3   OH275258   4.292   3.933   5.066  0.4418  0.0166 -0.2751
17948TIP3    H175259   4.219   3.920   5.005  1.1271  1.7598 -1.5318
17948TIP3    H275260   4.267   4.008   5.119 -0.1357 -1.4682  1.6694
17949TIP3   OH275261   2.669   0.016   5.781  0.1869  0.0421 -0.4223
17949TIP3    H175262   2.610   0.091   5.787  0.1495  0.0241 -0.5555
17949TIP3    H275263   2.755   0.050   5.805 -0.1612 -0.3062  1.5651
17950TIP3   OH275264   1.375   4.546  13.718  0.9540  0.5448  0.4084
17950TIP3    H175265   1.471   4.549  13.716  1.0153 -0.7178  0.6404
17950TIP3    H275266   1.354   4.541  13.811  0.6680  0.5134  0.3410
17951TIP3   OH275267   6.763   0.250   6.073 -0.9565  0.0126 -1.0617
17951TIP3    H175268   6.684   0.223   6.120 -0.5374 -1.5003 -1.1956
17951TIP3    H275269   6.804   0.314   6.131 -0.5124 -1.7284  0.6044
17952TIP3   OH275270   6.604   1.279  14.326 -0.2808  0.1279  0.0387
17952TIP3    H175271   6.539   1.314  14.386  0.5605  0.7442  0.6187
17952TIP3    H275272   6.568   1.295  14.239 -0.2248  1.8541  0.3091
17953TIP3   OH275273   3.782   3.562   1.001  0.4368 -0.1720  0.1411
17953TIP3    H175274   3.861   3.614   0.990 -0.5424  1.4119  0.1551
17953TIP3    H275275   3.737   3.569   0.917  0.5604 -1.5339 -0.0610
17954TIP3   OH275276   1.208   5.503   2.180 -0.7970 -0.1769 -0.0104
17954TIP3    H175277   1.267   5.428   2.186 -2.0279 -1.0723  1.3670
17954TIP3    H275278   1.128   5.468   2.142 -1.2468  0.5123  0.2808
17955TIP3   OH275279   0.690   5.324  15.375  0.8378  0.0428  0.1652
17955TIP3    H175280   0.653   5.287  15.295 -1.0759  2.2708 -0.0971
17955TIP3    H275281   0.776   5.355  15.350 -0.6580  2.9992 -1.8834
17956TIP3   OH275282   3.456   2.508  13.829  0.2913  0.3092 -0.1012
17956TIP3    H175283   3.531   2.559  13.857  1.2136 -1.6214  1.1254
17956TIP3    H275284   3.414   2.480  13.910 -1.3189  0.6952 -0.7612
17957TIP3   OH275285   2.261   2.623   4.104  0.4569 -0.0892 -0.3176
17957TIP3    H175286   2.251   2.534   4.137 -1.7161  0.2259 -0.0172
17957TIP3    H275287   2.334   2.659   4.156  2.4166 -2.1032 -1.4981
17958TIP3   OH275288   3.508   2.134   2.239  0.3772  0.0985 -0.0980
17958TIP3    H175289   3.602   2.130   2.223  0.1981 -1.4346 -0.9196
17958TIP3    H275290   3.471   2.172   2.159  0.2954  0.9391  0.3212
17959TIP3   OH275291   0.082   2.472  11.470  0.4187 -0.6448  0.0773
17959TIP3    H175292   0.112   2.545  11.415  0.3029 -1.3488 -0.9647
17959TIP3    H275293   0.032   2.513  11.540 -0.4509  0.2460 -1.0205
17960TIP3   OH275294   1.978   6.617   3.075  0.2666  0.2442  0.0057
17960TIP3    H175295   1.962   6.655   3.162 -0.5944  0.1315 -0.1004
17960TIP3    H275296   1.893   6.619   3.032  0.5880 -0.1751 -0.6530
17961TIP3   OH275297   1.891   3.935   3.047 -0.2984  0.4026  0.3139
17961TIP3    H175298   1.909   4.028   3.060 -0.6805  0.7128 -1.1399
17961TIP3    H275299   1.812   3.918   3.098  0.2253  0.6796  1.2264
17962TIP3   OH275300   3.137   0.481   2.356 -0.3309  0.1491  0.2787
17962TIP3    H175301   3.229   0.484   2.383 -0.0460  0.1822 -0.6574
17962TIP3    H275302   3.108   0.572   2.360 -0.3812  0.1145  0.7550
17963TIP3   OH275303   1.639   3.752   4.348  0.3520  0.0542  0.4454
17963TIP3    H175304   1.569   3.790   4.294  1.6746  0.9682 -0.7061
17963TIP3    H275305   1.593   3.697   4.412 -1.6288  2.6851  1.4805
17964TIP3   OH275306   0.647   1.008  11.333  0.2258 -0.1011 -0.2430
17964TIP3    H175307   0.723   0.966  11.293  0.8114  1.5459 -0.9278
17964TIP3    H275308   0.651   1.099  11.304 -1.6765  0.1749  0.2043
17965TIP3   OH275309   1.313   5.468  15.929 -0.1016 -0.5153 -0.9003
17965TIP3    H175310   1.223   5.498  15.919 -0.2298 -0.1821  0.8465
17965TIP3    H275311   1.307   5.373  15.930 -0.4688 -0.4930 -0.6213
17966TIP3   OH275312   2.822   3.506  15.544 -0.2935 -0.0112  0.3695
17966TIP3    H175313   2.868   3.481  15.464 -0.7640  0.5996 -0.1122
17966TIP3    H275314   2.750   3.443  15.551  0.1244 -0.4557  0.6635
17967TIP3   OH275315   5.914   0.402  11.800 -0.7140 -0.0276 -0.6273
17967TIP3    H175316   5.995   0.436  11.838 -0.2059 -0.4735 -1.2974
17967TIP3    H275317   5.845   0.454  11.842 -0.0864  0.3938 -0.0887
17968TIP3   OH275318   6.725   2.321   0.415  0.2023 -0.5787 -0.2757
17968TIP3    H175319   6.644   2.271   0.400  0.0417 -0.8150  1.2341
17968TIP3    H275320   6.697   2.413   0.409  0.4344 -0.6050 -2.7174
17969TIP3   OH275321   6.303   3.686  13.871  0.0997  0.3528  0.7155
17969TIP3    H175322   6.285   3.599  13.906 -1.3883  0.5389  0.4896
17969TIP3    H275323   6.233   3.701  13.807  0.9772  1.2686 -0.0587
17970TIP3   OH275324   3.609   2.221   4.922  0.0820 -0.3527 -0.3301
17970TIP3    H175325   3.619   2.173   4.839  0.8384  1.6716 -1.4833
17970TIP3    H275326   3.517   2.211   4.945 -0.1300 -1.0003 -1.3862
17971TIP3   OH275327   4.875   5.239   0.412 -0.3691 -0.8582 -0.2107
17971TIP3    H175328   4.904   5.153   0.440 -0.3999 -0.6119  0.6015
17971TIP3    H275329   4.953   5.294   0.419 -0.3121 -0.8498 -0.8694
17972TIP3   OH275330   5.492   5.829  13.214 -0.4147 -0.2587  0.0175
17972TIP3    H175331   5.463   5.875  13.135 -1.8235  1.0760  1.2287
17972TIP3    H275332   5.415   5.829  13.271  1.2248  1.1939  2.4349
17973TIP3   OH275333   3.823   1.259   2.851  0.2220  0.0846 -0.1352
17973TIP3    H175334   3.756   1.191   2.842 -1.2269  1.3958  0.2824
17973TIP3    H275335   3.855   1.273   2.762 -1.2085  0.5363 -0.5962
17974TIP3   OH275336   0.874   3.864  16.076 -0.3438 -0.5665  0.1751
17974TIP3    H175337   0.939   3.822  16.133  0.7423  1.3432  0.4616
17974TIP3    H275338   0.924   3.893  16.000 -1.2108 -0.5609 -0.4000
17975TIP3   OH275339   5.856   1.748   2.601 -0.1909  0.3465 -0.0782
17975TIP3    H175340   5.905   1.721   2.524  0.6576  0.4947  0.3920
17975TIP3    H275341   5.923   1.777   2.663 -0.8034 -0.3864  0.9662
17976TIP3   OH275342   6.747   5.416  12.559  0.4036  0.4114  0.9578
17976TIP3    H175343   6.835   5.378  12.555  0.5516  0.8258  0.0536
17976TIP3    H275344   6.704   5.369  12.631  0.8902 -0.8056  0.4767
17977TIP3   OH275345   1.407   1.123   1.666 -0.3149  0.0585  0.7665
17977TIP3    H175346   1.349   1.080   1.730 -1.2275 -0.6977 -0.5212
17977TIP3    H275347   1.495   1.109   1.701 -0.8369  0.5014  2.3497
17978TIP3   OH275348   0.958   3.798   5.862 -0.4231 -0.0499 -0.0228
17978TIP3    H175349   0.982   3.809   5.954  3.2970 -0.6430 -0.7604
17978TIP3    H275350   0.936   3.886   5.832  0.4377  0.5259  0.9599
17979TIP3   OH275351   4.878   1.846   3.578  0.0234  0.0890 -0.7063
17979TIP3    H175352   4.951   1.906   3.564  0.4904 -0.0495  0.9720
17979TIP3    H275353   4.916   1.772   3.624 -0.9772 -0.4810 -0.7654
17980TIP3   OH275354   5.995   4.966  15.954  0.2492 -0.8011 -0.1986
17980TIP3    H175355   6.075   4.929  15.990  0.8229  1.0836  0.5175
17980TIP3    H275356   5.938   4.979  16.029  0.9675  1.9391 -0.0309
17981TIP3   OH275357   0.622   6.479   0.309 -0.2924  0.2983 -0.0303
17981TIP3    H175358   0.563   6.500   0.381 -0.9067 -0.2634 -0.3618
17981TIP3    H275359   0.658   6.564   0.282 -2.0132  0.8475 -0.7438
17982TIP3   OH275360   4.581   0.036   3.117 -0.2102 -0.1232 -0.0628
17982TIP3    H175361   4.525  -0.035   3.149  0.0816  0.5572  2.1733
17982TIP3    H275362   4.520   0.100   3.081 -0.6798 -0.4055  0.2082
17983TIP3   OH275363   1.383   3.513  14.406 -1.1067  0.1327 -0.0818
17983TIP3    H175364   1.381   3.531  14.500 -0.8520 -1.3083  0.2282
17983TIP3    H275365   1.388   3.599  14.365 -1.1100  0.7831  1.2282
17984TIP3   OH275366   2.795   5.757   1.604 -0.4554  0.5542 -0.2764
17984TIP3    H175367   2.707   5.790   1.583 -1.2319 -0.5809  1.0165
17984TIP3    H275368   2.782   5.705   1.684  1.1723 -0.6648 -0.7631
17985TIP3   OH275369   0.538   1.160  15.615  0.4645  0.3503 -0.1525
17985TIP3    H175370   0.505   1.245  15.587  1.9462  1.5368  1.5377
17985TIP3    H275371   0.493   1.141  15.697  0.4649 -0.2875 -0.2924
17986TIP3   OH275372   4.543   4.335  13.290  0.1974  0.4772  0.1739
17986TIP3    H175373   4.583   4.249  13.302  0.0048  0.6491  2.2955
17986TIP3    H275374   4.499   4.354  13.372  0.0556  2.5308 -0.3103
17987TIP3   OH275375   0.628   5.149   2.874  0.3766 -0.0948 -0.2400
17987TIP3    H175376   0.716   5.121   2.849  0.3159  1.2228 -2.0622
17987TIP3    H275377   0.642   5.224   2.932  0.4515 -0.1615 -0.1724
17988TIP3   OH275378   1.188   1.415  11.449 -0.2823  0.2127 -0.1492
17988TIP3    H175379   1.232   1.431  11.366 -0.8793 -0.7830 -0.6749
17988TIP3    H275380   1.226   1.479  11.509  2.3992 -1.0525 -0.3671
17989TIP3   OH275381   3.879   4.624  12.619  0.3807 -0.1755 -0.2125
17989TIP3    H175382   3.801   4.646  12.670  1.2035 -1.0795  1.5174
17989TIP3    H275383   3.880   4.529  12.616  1.7262 -0.1987  0.3299
17990TIP3   OH275384   3.126   3.371   2.125  0.3299 -0.1357  0.2804
17990TIP3    H175385   3.179   3.341   2.200 -0.3053  1.8302  1.6045
17990TIP3    H275386   3.039   3.386   2.162 -1.0430 -2.5356 -1.6972
17991TIP3   OH275387   2.787   1.162  14.280 -0.1712 -0.1278  0.2441
17991TIP3    H175388   2.755   1.073  14.268 -1.2396  0.3322 -0.4846
17991TIP3    H275389   2.711   1.211  14.311  0.0766  0.7818 -0.5450
17992TIP3   OH275390   2.700   2.077   0.191 -0.2004 -0.6460 -0.3186
17992TIP3    H175391   2.750   2.098   0.270 -0.7220 -0.9332  0.0966
17992TIP3    H275392   2.723   2.147   0.129 -2.0067  1.2939  1.0598
17993TIP3   OH275393   2.035   3.972   0.576 -0.0924 -0.2622  0.2865
17993TIP3    H175394   2.011   4.003   0.663  1.0507  3.2983 -0.4623
17993TIP3    H275395   2.115   3.921   0.590  0.0879  0.2843  1.3427
17994TIP3   OH275396   4.817   1.384  11.170  0.0004 -0.1516 -0.2314
17994TIP3    H175397   4.730   1.414  11.195  0.3518  1.2602 -0.6187
17994TIP3    H275398   4.801   1.310  11.111 -0.9029 -0.5519  0.4961
17995TIP3   OH275399   2.562   2.883  11.781  0.2828  0.3795 -0.1518
17995TIP3    H175400   2.523   2.969  11.770  0.6793  0.6254  0.3294
17995TIP3    H275401   2.655   2.900  11.799 -0.0168 -0.0161  2.1631
17996TIP3   OH275402   0.856   3.087  14.957  0.1039 -0.3225  0.1799
17996TIP3    H175403   0.932   3.121  14.911  0.0290  1.0578  1.0288
17996TIP3    H275404   0.877   2.994  14.972  1.2824 -0.1423 -0.2491
17997TIP3   OH275405   5.763   4.865   3.288 -0.0403 -0.0155  0.6523
17997TIP3    H175406   5.775   4.888   3.196 -0.6172 -0.0126  0.5716
17997TIP3    H275407   5.677   4.901   3.310  0.1371  0.0620  1.2174
17998TIP3   OH275408   6.054   5.288  17.091  0.1433  0.0961 -0.0811
17998TIP3    H175409   6.106   5.220  17.046 -2.7756 -1.3793 -1.5577
17998TIP3    H275410   6.076   5.369  17.045  1.5987 -0.3476 -0.2155
17999TIP3   OH275411   5.170   2.032  14.101  0.1456  0.3040 -0.4091
17999TIP3    H175412   5.083   2.071  14.088  0.0803  0.4700  0.4815
17999TIP3    H275413   5.184   2.037  14.196  0.4455 -1.2007 -0.3633
18000TIP3   OH275414   2.413   0.559  14.351  0.1399  0.2828 -0.8174
18000TIP3    H175415   2.386   0.604  14.431  3.0769  1.6126 -0.4466
18000TIP3    H275416   2.498   0.522  14.373  0.5883 -0.1261 -3.0769
18001TIP3   OH275417   3.127   0.651  11.648  0.4181  0.2613  0.2332
18001TIP3    H175418   3.051   0.599  11.623  1.4354 -1.2733  0.1954
18001TIP3    H275419   3.136   0.635  11.742 -0.7806  2.5026  0.8092
18002TIP3   OH275420   5.564   5.258  15.661  0.7418  0.6485  0.1775
18002TIP3    H175421   5.626   5.248  15.733 -0.6956  0.9416  1.5138
18002TIP3    H275422   5.546   5.352  15.657  0.2527  0.5489 -0.0727
18003TIP3   OH275423   0.429   0.900  12.402  0.1613 -0.3252 -0.4151
18003TIP3    H175424   0.356   0.838  12.406 -0.6485 -0.0396 -5.0096
18003TIP3    H275425   0.507   0.845  12.405 -0.4733 -1.3503 -1.6222
18004TIP3   OH275426   4.785   1.513  15.477 -0.0722  0.0068  0.5031
18004TIP3    H175427   4.727   1.507  15.401 -2.1781  0.2260  2.0295
18004TIP3    H275428   4.869   1.481  15.444 -1.2600 -1.2755 -1.5423
18005TIP3   OH275429   2.210   4.360  12.892  0.8312  0.4174  0.2777
18005TIP3    H175430   2.298   4.334  12.864  1.1825  1.6068  0.2373
18005TIP3    H275431   2.221   4.449  12.927 -0.3418  0.5491  0.3470
18006TIP3   OH275432   4.587   1.608   3.281 -0.1932  0.2652  0.2324
18006TIP3    H175433   4.578   1.545   3.352  1.1225 -1.9664 -1.4560
18006TIP3    H275434   4.598   1.692   3.325 -2.3397 -0.5515  2.5669
18007TIP3   OH275435   2.100   2.927   1.768 -0.0584 -0.0984  0.1172
18007TIP3    H175436   2.047   2.959   1.695  2.0631  1.6362 -0.7842
18007TIP3    H275437   2.073   2.980   1.843  0.5809  1.0207 -0.4177
18008TIP3   OH275438   5.349   3.459  16.755 -0.6377  0.0753  1.0649
18008TIP3    H175439   5.293   3.404  16.700  1.1915 -1.4166  0.5832
18008TIP3    H275440   5.295   3.536  16.774 -1.8620  0.0128 -1.6277
18009TIP3   OH275441   0.502   6.595  16.580 -0.2506  0.3250 -0.3769
18009TIP3    H175442   0.468   6.510  16.552 -1.5791  0.7994 -0.2783
18009TIP3    H275443   0.593   6.578  16.603  0.7721 -0.2695 -4.1820
18010TIP3   OH275444   1.947   5.749  11.916  0.2255 -0.2944 -0.2312
18010TIP3    H175445   1.956   5.691  11.841  0.6098 -0.6008  0.0484
18010TIP3    H275446   1.968   5.695  11.992  3.7219  0.9346 -0.1730
18011TIP3   OH275447   3.808   3.200  11.460  0.3632  0.4278  0.3795
18011TIP3    H175448   3.807   3.276  11.518  0.7500 -0.0653  1.0461
18011TIP3    H275449   3.900   3.175  11.454  0.2463  0.0410  0.1318
18012TIP3   OH275450   2.810   4.341   4.260  0.2986  0.0062 -0.2988
18012TIP3    H175451   2.785   4.314   4.172  0.0422  0.3113 -0.3228
18012TIP3    H275452   2.737   4.395   4.290  0.1113 -0.5753  0.3285
18013TIP3   OH275453   4.708   3.982  10.229  0.0448 -0.3797 -0.4464
18013TIP3    H175454   4.736   3.913  10.290 -0.7648 -0.4127 -0.1009
18013TIP3    H275455   4.628   3.949  10.190 -0.1294  0.1900 -0.5844
18014TIP3   OH275456   2.294   0.421  11.279 -0.0650  0.1285  0.8412
18014TIP3    H175457   2.221   0.399  11.221 -0.2461 -0.8336  1.4231
18014TIP3    H275458   2.294   0.353  11.345  3.4442 -1.9722 -1.0105
18015TIP3   OH275459   3.723   3.963  12.376  0.6412  0.5768  0.0450
18015TIP3    H175460   3.702   3.953  12.469  2.0247 -0.6364  0.2628
18015TIP3    H275461   3.748   4.055  12.367 -1.2851  1.1906  0.4596
18016TIP3   OH275462   1.308   2.638  16.984  0.3542  0.2806  0.2869
18016TIP3    H175463   1.270   2.552  17.004 -1.9393  1.4150  1.0728
18016TIP3    H275464   1.299   2.688  17.065  0.0432  1.8288 -0.6689
18017TIP3   OH275465   1.620   4.450   5.166 -0.1890  0.1845 -0.0287
18017TIP3    H175466   1.642   4.529   5.115 -0.2789 -0.7881 -1.6334
18017TIP3    H275467   1.702   4.401   5.170 -0.9261 -1.3301 -2.1743
18018TIP3   OH275468   5.707   5.097   3.515  0.0144 -0.5840 -0.2572
18018TIP3    H175469   5.661   5.086   3.431  0.2172  1.3997 -0.6717
18018TIP3    H275470   5.708   5.192   3.530  0.7938 -0.8313  1.5523
18019TIP3   OH275471   0.362   5.869  16.108 -0.3940 -0.5784 -0.2074
18019TIP3    H175472   0.328   5.958  16.116 -0.2754 -0.5282 -0.2477
18019TIP3    H275473   0.410   5.854  16.189  0.5244 -0.1923 -0.6614
18020TIP3   OH275474   5.014   0.470  11.908  0.4748 -0.3736 -0.0547
18020TIP3    H175475   4.934   0.422  11.885  0.7456 -1.0244  0.3175
18020TIP3    H275476   4.985   0.560  11.921 -0.3590 -0.7605  0.9187
18021TIP3   OH275477   6.548   6.605  15.274 -0.1655 -0.5656  0.5499
18021TIP3    H175478   6.469   6.569  15.314 -0.2112 -1.5494 -0.3695
18021TIP3    H275479   6.528   6.698  15.262 -0.9379 -0.6737  0.9062
18022TIP3   OH275480   0.672   4.826  12.292 -0.2525 -0.3358 -0.1254
18022TIP3    H175481   0.616   4.795  12.221 -0.6591 -4.2650  1.6574
18022TIP3    H275482   0.760   4.826  12.254 -0.8939  2.2662 -1.8617
18023TIP3   OH275483   4.412   2.422   3.878 -0.6985 -0.4191  0.1067
18023TIP3    H175484   4.502   2.390   3.883 -0.6638 -0.1753  1.6432
18023TIP3    H275485   4.381   2.395   3.791  0.4261 -1.6217  0.0491
18024TIP3   OH275486   0.501   5.471  15.693  0.2288  0.0399 -0.0294
18024TIP3    H175487   0.410   5.452  15.718  0.2054  0.9779  0.6785
18024TIP3    H275488   0.496   5.554  15.646  0.7971  0.5095  0.7097
18025TIP3   OH275489   1.289   4.258   4.992 -0.1618  0.6175 -0.6111
18025TIP3    H175490   1.221   4.193   4.975 -0.1474  0.6601 -0.8475
18025TIP3    H275491   1.246   4.342   4.974 -0.0217  0.6390 -0.8455
18026TIP3   OH275492   0.954   5.856  13.743 -0.5802  0.0692 -0.0239
18026TIP3    H175493   1.000   5.833  13.662  0.5266  1.6359  0.1213
18026TIP3    H275494   1.013   5.829  13.813 -0.6955  0.4484  0.2187
18027TIP3   OH275495   4.979   2.096   0.196  0.0699  0.3712  0.6202
18027TIP3    H175496   5.028   2.178   0.203 -1.1734  1.0453  1.7556
18027TIP3    H275497   5.045   2.028   0.214  0.9008  1.1753  0.6833
18028TIP3   OH275498   4.615   0.283  14.213  0.2326  0.4175 -0.7343
18028TIP3    H175499   4.663   0.359  14.179 -0.8301  0.9751 -1.0110
18028TIP3    H275500   4.549   0.319  14.272 -0.1660 -0.3028 -0.7206
18029TIP3   OH275501   4.460   4.731  15.191 -0.3818 -0.8379  0.4282
18029TIP3    H175502   4.429   4.644  15.213  0.8436 -1.6687 -0.9466
18029TIP3    H275503   4.548   4.718  15.155  0.7306  1.1888  2.1561
18030TIP3   OH275504   2.265   2.427  13.336 -0.0284 -0.0674  0.5506
18030TIP3    H175505   2.247   2.336  13.311 -0.0991 -0.1579  0.9232
18030TIP3    H275506   2.248   2.477  13.256  0.7445 -0.4603  0.1229
18031TIP3   OH275507   6.429   2.618   5.798  0.0503  0.0636 -0.2868
18031TIP3    H175508   6.412   2.564   5.721 -1.0441 -2.2983  1.4759
18031TIP3    H275509   6.481   2.562   5.856 -0.7368  1.0281  1.4636
18032TIP3   OH275510   6.538   5.288   2.255 -0.1988  0.1753 -0.1350
18032TIP3    H175511   6.482   5.268   2.329  0.2342 -0.1476  0.1055
18032TIP3    H275512   6.494   5.361   2.211  0.3521  1.4544  1.3477
18033TIP3   OH275513   2.810   4.078   4.361 -0.3765  0.1238 -0.3357
18033TIP3    H175514   2.854   4.070   4.446  1.3617 -0.5291 -1.2645
18033TIP3    H275515   2.833   4.166   4.331  0.6191 -0.3486 -0.9833
18034TIP3   OH275516   3.022   3.225   0.475 -0.3742 -0.2704 -0.2517
18034TIP3    H175517   2.954   3.288   0.454  1.5674  1.7703 -0.8011
18034TIP3    H275518   2.988   3.141   0.442 -2.1033  0.8623 -1.5381
18035TIP3   OH275519   1.147   0.380   4.087  0.1682 -0.2845  0.0129
18035TIP3    H175520   1.193   0.464   4.084  1.0227 -0.6246  2.0211
18035TIP3    H275521   1.058   0.402   4.116  0.0946  0.0203 -0.4413
18036TIP3   OH275522   6.706   1.872  14.133 -0.2755  0.5132  0.1338
18036TIP3    H175523   6.688   1.909  14.219 -0.3331  1.9788 -0.4771
18036TIP3    H275524   6.657   1.790  14.131 -0.8077  0.7863  1.2409
18037TIP3   OH275525   1.004   2.666  11.942 -0.2638  0.1547  0.5109
18037TIP3    H175526   1.098   2.681  11.929 -0.0476 -1.5600 -0.2013
18037TIP3    H275527   0.999   2.606  12.016 -0.5068 -2.4334 -1.4556
18038TIP3   OH275528   3.085   0.841  16.499 -0.1586 -0.5749  0.2091
18038TIP3    H175529   3.035   0.802  16.571  0.0344  0.0172  0.6796
18038TIP3    H275530   3.120   0.766  16.450 -0.7382 -0.9869  0.4151
18039TIP3   OH275531   2.969   6.459  11.691  0.6808 -0.0226  0.2726
18039TIP3    H175532   3.002   6.387  11.637  0.1533 -0.6065  0.7110
18039TIP3    H275533   3.004   6.538  11.650  2.2443 -0.5826  0.4554
18040TIP3   OH275534   0.376   0.677   0.117  0.4550 -0.4239  0.4515
18040TIP3    H175535   0.381   0.690   0.212 -1.9634  0.8498  0.4709
18040TIP3    H275536   0.325   0.597   0.106 -0.4353  0.1550  0.2535
18041TIP3   OH275537   6.138   2.665  13.786 -0.3252  0.9281  0.0641
18041TIP3    H175538   6.091   2.611  13.722  0.5057  1.2728 -0.8577
18041TIP3    H275539   6.093   2.749  13.784 -0.3611  0.9076 -0.0011
18042TIP3   OH275540   4.287   2.804  13.354  0.1010 -0.4488 -0.6233
18042TIP3    H175541   4.367   2.828  13.306 -0.0685 -1.9990 -1.7633
18042TIP3    H275542   4.235   2.884  13.354  2.1224  0.9770  1.2394
18043TIP3   OH275543   0.739   0.948   0.673  0.1028 -0.1403 -0.4656
18043TIP3    H175544   0.653   0.985   0.695  0.6800  0.3639  0.9971
18043TIP3    H275545   0.756   0.980   0.584 -1.8234 -1.3968 -1.3590
18044TIP3   OH275546   3.245   6.310  16.366  0.0088  0.1716  0.5249
18044TIP3    H175547   3.257   6.281  16.456 -1.5901  0.2288  0.7804
18044TIP3    H275548   3.179   6.251  16.330 -0.4902  1.0883 -0.1174
18045TIP3   OH275549   5.568   2.593   2.667  0.1648  0.1470  0.0010
18045TIP3    H175550   5.608   2.675   2.698 -1.8082  0.8418  0.9001
18045TIP3    H275551   5.638   2.528   2.676  0.9718  1.1750  1.9844
18046TIP3   OH275552   4.386   2.603  15.246 -0.0132  0.3556 -0.1186
18046TIP3    H175553   4.394   2.555  15.329  0.0385  1.7135  0.6889
18046TIP3    H275554   4.292   2.616  15.235 -0.0989 -0.7617 -0.8489
18047TIP3   OH275555   6.368   6.000  15.553 -0.1570  0.1116 -0.1071
18047TIP3    H175556   6.451   5.998  15.506 -0.3906 -0.2988 -0.5284
18047TIP3    H275557   6.390   6.025  15.642  0.5055 -0.6267 -0.0484
18048TIP3   OH275558   6.259   5.790  17.068  0.3928  0.2859  0.0540
18048TIP3    H175559   6.257   5.701  17.032  1.2904  0.7791 -1.3285
18048TIP3    H275560   6.328   5.834  17.018 -0.0972  1.7875  0.6476
18049TIP3   OH275561   2.151   1.236  15.780 -0.2311  0.0332 -0.3077
18049TIP3    H175562   2.242   1.238  15.812  0.7989  0.4082 -3.0076
18049TIP3    H275563   2.123   1.146  15.796 -0.0074  0.2863  1.9714
18050TIP3   OH275564   0.919   6.476  12.040 -0.2014  0.2023  0.2229
18050TIP3    H175565   0.939   6.564  12.073  0.0772 -0.2135  1.1886
18050TIP3    H275566   0.835   6.454  12.081 -1.2989  0.7893 -1.5759
18051TIP3   OH275567   3.547   1.103  12.403  0.1320  0.3049  0.1898
18051TIP3    H175568   3.484   1.175  12.403 -0.0157  0.1786  0.7813
18051TIP3    H275569   3.549   1.073  12.312 -1.3852 -0.3160  0.3251
18052TIP3   OH275570   6.005   5.279  10.786 -0.2637 -0.0910  0.5433
18052TIP3    H175571   6.021   5.290  10.692 -1.3963 -0.4672  0.3007
18052TIP3    H275572   5.925   5.228  10.791  0.1125 -0.5857  1.7221
18053TIP3   OH275573   5.161   3.399   1.305  0.4711 -0.2761 -0.2774
18053TIP3    H175574   5.220   3.352   1.247  0.1365 -0.9350 -0.0896
18053TIP3    H275575   5.215   3.425   1.379  0.6783 -0.2793 -0.4268
18054TIP3   OH275576   2.527   1.416  14.627  0.3820  0.1776  0.4450
18054TIP3    H175577   2.515   1.510  14.616  2.0690  0.3648 -0.0649
18054TIP3    H275578   2.442   1.384  14.655 -1.0214  1.4459 -2.0428
18055TIP3   OH275579   0.599   4.269  15.745 -0.1660 -0.2500 -0.1926
18055TIP3    H175580   0.539   4.340  15.724  0.8831  0.5899 -0.4603
18055TIP3    H275581   0.557   4.191  15.710 -0.4361  0.5263 -1.6975
18056TIP3   OH275582   2.304   1.471   0.248  0.2383 -0.5849  0.0131
18056TIP3    H175583   2.216   1.503   0.265  0.5151 -0.6452  1.8151
18056TIP3    H275584   2.292   1.381   0.219 -0.2965 -0.4966 -0.0460
18057TIP3   OH275585   3.110   5.367  11.516  0.0159 -0.1069  0.8042
18057TIP3    H175586   3.171   5.299  11.486  1.1395  1.2628 -0.1132
18057TIP3    H275587   3.023   5.328  11.503  0.5793 -0.8344 -1.1258
18058TIP3   OH275588   6.797   1.665  16.293 -0.0041 -0.0548  0.1983
18058TIP3    H175589   6.878   1.677  16.342 -0.5729 -0.5779  1.2880
18058TIP3    H275590   6.816   1.702  16.206  1.4650 -0.3980  0.3538
18059TIP3   OH275591   2.589   4.124  12.532 -0.0442 -0.1819 -0.0868
18059TIP3    H175592   2.629   4.049  12.487  2.1587 -0.5017  2.1887
18059TIP3    H275593   2.663   4.174  12.566 -1.4843  0.1444  2.9114
18060TIP3   OH275594   0.946   5.799   5.814 -0.1326  0.4327 -0.4371
18060TIP3    H175595   0.955   5.869   5.880 -0.1587  0.0863 -0.0624
18060TIP3    H275596   0.858   5.764   5.828  0.3653 -0.5960  0.3145
18061TIP3   OH275597   1.163   0.984  13.294  0.7995  0.7769 -0.0910
18061TIP3    H175598   1.225   0.912  13.301  0.9408  1.0051  1.1131
18061TIP3    H275599   1.078   0.942  13.282  0.9980  0.4328 -0.2888
18062TIP3   OH275600   4.337   1.882   1.589 -0.0463 -0.4188 -0.2615
18062TIP3    H175601   4.250   1.882   1.549 -0.6554  1.4798  0.9501
18062TIP3    H275602   4.328   1.826   1.666  0.2450 -1.4256 -0.9352
18063TIP3   OH275603   2.345   1.455  12.904 -0.1679  0.6908 -0.0305
18063TIP3    H175604   2.333   1.405  12.823 -2.1355  0.5911  0.2741
18063TIP3    H275605   2.307   1.400  12.972 -1.6537  2.1746  0.4299
18064TIP3   OH275606   5.169   2.331   0.152 -0.1457  0.5904  0.4218
18064TIP3    H175607   5.236   2.398   0.139 -1.9285  2.2824 -0.3876
18064TIP3    H275608   5.104   2.348   0.085 -1.5512 -0.8189  1.3622
18065TIP3   OH275609   1.818   4.862  12.990 -0.3972  0.6289 -0.2603
18065TIP3    H175610   1.808   4.805  12.914 -0.0024 -0.1546  0.2703
18065TIP3    H275611   1.912   4.871  13.002 -0.4565  0.9844 -0.0283
18066TIP3   OH275612   0.803   5.569   0.575 -0.7092  0.2397 -0.3127
18066TIP3    H175613   0.779   5.604   0.661  1.0465  0.2673  0.1990
18066TIP3    H275614   0.803   5.645   0.517 -0.2999  0.5042  0.0297
18067TIP3   OH275615   5.247   6.246   2.286  0.5843  0.0662  0.2056
18067TIP3    H175616   5.316   6.180   2.285  2.8215  2.2319 -0.8731
18067TIP3    H275617   5.288   6.322   2.328 -1.4428  1.2026  0.2703
18068TIP3   OH275618   2.032   3.832   3.455  0.0683  0.0704 -0.1410
18068TIP3    H175619   1.987   3.896   3.510  0.9397  0.3197  0.2998
18068TIP3    H275620   2.109   3.878   3.422  0.4726 -0.6116 -0.1706
18069TIP3   OH275621   6.202   1.330   4.360 -0.0184 -0.2526 -0.1346
18069TIP3    H175622   6.245   1.291   4.283  1.2522  0.2343  0.3082
18069TIP3    H275623   6.273   1.346   4.422 -0.9589 -0.1814  0.9619
18070TIP3   OH275624   0.194   1.911  11.351 -0.0663 -0.2884 -0.2927
18070TIP3    H175625   0.138   1.902  11.274 -2.0175  0.2058  0.9891
18070TIP3    H275626   0.159   1.988  11.397  1.0282 -0.5725  1.0957
18071TIP3   OH275627   0.981   6.214   3.464 -0.0373 -0.4952 -0.0514
18071TIP3    H175628   1.045   6.154   3.425  0.8214  1.3131 -1.5504
18071TIP3    H275629   1.033   6.269   3.522 -0.3540  0.4314 -0.6304
18072TIP3   OH275630   1.778   4.890   3.559 -0.2380 -0.1137 -0.3769
18072TIP3    H175631   1.734   4.958   3.508  1.8852  1.6074 -0.0498
18072TIP3    H275632   1.863   4.879   3.517  0.3287 -0.9564  0.9144
18073TIP3   OH275633   0.681   4.762   2.386 -0.5385 -0.6352  0.1844
18073TIP3    H175634   0.619   4.689   2.387 -0.5938 -0.6081  2.0201
18073TIP3    H275635   0.762   4.724   2.351 -0.4867 -1.6597  1.3763
18074TIP3   OH275636   0.994   5.255  14.097 -0.6197  0.4185 -0.3125
18074TIP3    H175637   1.004   5.312  14.173  1.4120  0.7323 -0.7682
18074TIP3    H275638   0.917   5.290  14.051 -1.2828  0.8248  1.0556
18075TIP3   OH275639   5.094   3.251   3.352 -0.3951 -0.0538  0.0001
18075TIP3    H175640   5.179   3.294   3.340  0.0297 -0.3538  1.5791
18075TIP3    H275641   5.030   3.317   3.328  0.2713  0.9664  0.9251
18076TIP3   OH275642   4.834   2.833   2.799  0.2508  0.0611 -0.4311
18076TIP3    H175643   4.823   2.767   2.867  2.9094 -0.1936 -0.1467
18076TIP3    H275644   4.800   2.914   2.837  2.8577  0.2363  1.8163
18077TIP3   OH275645   1.569   4.868   5.357 -0.9996 -0.3623  0.6640
18077TIP3    H175646   1.662   4.843   5.359 -1.1550 -1.0927 -0.3031
18077TIP3    H275647   1.531   4.823   5.432 -0.3338  1.0122  1.8523
18078TIP3   OH275648   1.510   1.802   2.310  0.2384 -0.2750  0.1979
18078TIP3    H175649   1.564   1.778   2.234  0.9501  0.6553  0.3942
18078TIP3    H275650   1.433   1.746   2.302  1.4687 -2.0770  0.2211
18079TIP3   OH275651   4.969   1.445   3.852  0.2079 -0.3128 -0.0095
18079TIP3    H175652   4.982   1.489   3.767 -2.8776  1.8758  0.4719
18079TIP3    H275653   5.057   1.436   3.888  1.5457 -0.5558 -3.0602
18080TIP3   OH275654   6.115   1.268  16.700  0.6002  0.3597 -0.0013
18080TIP3    H175655   6.137   1.304  16.614  1.1605  0.1409  0.0496
18080TIP3    H275656   6.032   1.310  16.722  0.9555  1.1847 -0.1976
18081TIP3   OH275657   3.514   4.082  13.820  0.5647  0.1594 -0.0196
18081TIP3    H175658   3.516   4.099  13.914  1.2814 -0.5661  0.1138
18081TIP3    H275659   3.423   4.058  13.801 -0.0589  2.2760  0.0988
18082TIP3   OH275660   2.054   0.504   0.716  0.5200  0.0073  0.6387
18082TIP3    H175661   1.988   0.464   0.660  1.0283 -0.8421  0.6326
18082TIP3    H275662   2.047   0.457   0.799  1.0281 -0.0119  0.6750
18083TIP3   OH275663   2.293   4.848   1.679  0.0491  0.0122  0.0007
18083TIP3    H175664   2.310   4.910   1.608  2.2795 -0.7861 -0.2530
18083TIP3    H275665   2.351   4.877   1.750 -1.6062  0.3622  1.2744
18084TIP3   OH275666   1.795   5.346  16.753  0.0076 -1.1702 -0.0090
18084TIP3    H175667   1.824   5.349  16.844 -1.5182 -0.8903  0.4907
18084TIP3    H275668   1.875   5.332  16.703  0.7111 -2.7486  1.4650
18085TIP3   OH275669   5.501   5.926  15.705  0.1616  0.2609  0.0145
18085TIP3    H175670   5.568   5.867  15.669  0.0415  1.2666 -1.9870
18085TIP3    H275671   5.512   6.008  15.657 -0.2078  1.6480  2.1581
18086TIP3   OH275672   0.044   5.796   2.621  0.6260 -0.3330  0.3956
18086TIP3    H175673   0.031   5.891   2.623 -1.3916 -0.3692 -3.0317
18086TIP3    H275674  -0.004   5.763   2.697 -0.2274  1.2847  0.5975
18087TIP3   OH275675   1.951   3.118  13.422  0.0681 -0.7170  0.5466
18087TIP3    H175676   1.882   3.075  13.371  0.2448 -0.9098  0.4671
18087TIP3    H275677   2.003   3.165  13.357  0.3408 -1.0280  0.5365
18088TIP3   OH275678   4.477   6.277   4.203 -0.4271 -0.2412  0.1196
18088TIP3    H175679   4.482   6.247   4.294  0.9971 -1.1445 -0.2281
18088TIP3    H275680   4.534   6.354   4.201 -1.5226  0.6005  0.2703
18089TIP3   OH275681   5.727   4.414  11.285  0.3655 -0.6482 -0.1036
18089TIP3    H175682   5.682   4.414  11.200 -3.9512 -0.6750  1.9329
18089TIP3    H275683   5.714   4.325  11.318 -2.2372  0.5084  2.3976
18090TIP3   OH275684   3.398   1.527  16.284  0.1367 -0.4249  0.4831
18090TIP3    H175685   3.492   1.514  16.272  0.0864 -0.7255  0.4135
18090TIP3    H275686   3.362   1.525  16.196  0.0155 -0.7014  0.5379
18091TIP3   OH275687   0.462   3.212  11.322 -0.0358  0.6850  0.3361
18091TIP3    H175688   0.374   3.179  11.307  0.2596 -1.5464  2.7031
18091TIP3    H275689   0.460   3.247  11.411  1.7050 -0.7109  1.0021
18092TIP3   OH275690   5.457   5.798   3.946 -0.2951  0.6407  0.0746
18092TIP3    H175691   5.412   5.731   3.894  2.2305 -0.4563 -0.8504
18092TIP3    H275692   5.473   5.869   3.883 -1.3802  1.3858  0.6069
18093TIP3   OH275693   1.663   6.727  15.850 -0.7353  0.2059  0.0435
18093TIP3    H175694   1.736   6.744  15.910 -2.2567 -0.4439  2.1814
18093TIP3    H275695   1.670   6.634  15.830 -0.9139  0.1607  0.1861
18094TIP3   OH275696   3.812   3.208  12.215 -0.4642 -0.0131  0.3796
18094TIP3    H175697   3.827   3.283  12.273  0.0119  1.0803 -1.0647
18094TIP3    H275698   3.872   3.223  12.141 -1.7813 -0.7480 -0.9005
18095TIP3   OH275699   1.199   6.625  12.389 -0.1042  0.0013  0.1667
18095TIP3    H175700   1.278   6.641  12.338 -0.0934 -1.7036 -0.4149
18095TIP3    H275701   1.225   6.639  12.480  1.1394 -1.4397  0.0658
18096TIP3   OH275702   6.254   1.882   2.394  0.0418  0.3161  0.0374
18096TIP3    H175703   6.256   1.916   2.484 -2.2334  0.5082  0.0683
18096TIP3    H275704   6.259   1.961   2.339  1.4028  0.2005 -0.0366
18097TIP3   OH275705   5.636   4.625  14.381 -0.1927 -0.0429 -0.1414
18097TIP3    H175706   5.720   4.671  14.389 -0.7781  0.8123  1.5136
18097TIP3    H275707   5.647   4.546  14.433 -1.3901  1.6472  2.9536
18098TIP3   OH275708   2.145   1.799   4.896  0.3936 -0.5194 -0.1326
18098TIP3    H175709   2.206   1.734   4.930 -1.0960 -0.8098  2.2241
18098TIP3    H275710   2.141   1.866   4.965  0.2767  1.0113 -1.5575
18099TIP3   OH275711   0.860   2.044   2.321 -0.1664 -0.1929 -0.2152
18099TIP3    H175712   0.797   2.047   2.392  1.0911 -0.1013  0.9418
18099TIP3    H275713   0.901   2.130   2.320  1.0399 -0.7337  0.1225
18100TIP3   OH275714   1.696   3.868  15.238  0.1846 -0.2256 -0.3994
18100TIP3    H175715   1.762   3.811  15.278  1.7009  0.8641 -1.2614
18100TIP3    H275716   1.706   3.854  15.143  0.9154  1.7588 -0.6652
18101TIP3   OH275717   0.089   2.296  16.356  0.2731 -0.0648 -0.3336
18101TIP3    H175718   0.080   2.369  16.418  0.9394  0.0942 -0.4207
18101TIP3    H275719   0.000   2.283  16.322  0.1688  0.8001 -0.4237
18102TIP3   OH275720   3.441   1.324  15.071 -0.0838  0.2376  0.4984
18102TIP3    H175721   3.505   1.303  15.138 -0.0308  0.6164  0.5650
18102TIP3    H275722   3.396   1.241  15.054  0.8694 -0.1928 -0.0294
18103TIP3   OH275723   2.838   0.955   4.899  0.0552 -0.4374 -0.0274
18103TIP3    H175724   2.919   0.968   4.849 -0.8103  0.3100 -1.2730
18103TIP3    H275725   2.868   0.926   4.985  1.7121  0.8272 -0.1258
18104TIP3   OH275726   2.235   6.546  13.223  0.5971  0.1114 -0.0171
18104TIP3    H175727   2.259   6.575  13.135  2.2174  1.2683  0.7553
18104TIP3    H275728   2.169   6.478  13.209  0.1461  0.9108 -2.0783
18105TIP3   OH275729   6.640   5.040   3.694 -0.0649 -0.7651 -0.4098
18105TIP3    H175730   6.621   5.113   3.636 -0.3574 -1.4602 -1.2129
18105TIP3    H275731   6.563   5.033   3.750  1.0595  1.2045  1.5022
18106TIP3   OH275732   6.095   3.284   2.740 -0.4411  0.2166 -0.4648
18106TIP3    H175733   6.000   3.291   2.729 -0.3424 -0.2826 -1.7552
18106TIP3    H275734   6.120   3.367   2.780 -1.8267 -0.9200  3.1305
18107TIP3   OH275735   5.337   2.756   2.387  0.0501  0.3044 -0.1158
18107TIP3    H175736   5.379   2.674   2.414  1.1149  0.2470 -1.7371
18107TIP3    H275737   5.283   2.731   2.311 -1.7820  0.6580  1.0149
18108TIP3   OH275738   6.203   2.519   3.554 -0.5915 -0.4940 -0.1005
18108TIP3    H175739   6.269   2.588   3.555 -0.7410 -0.2586 -2.5043
18108TIP3    H275740   6.240   2.451   3.497 -2.1217 -0.6587 -0.9448
18109TIP3   OH275741   2.337   0.209  10.542  0.0257 -0.4139  0.6827
18109TIP3    H175742   2.252   0.233  10.505  0.3020 -0.5200 -0.0321
18109TIP3    H275743   2.361   0.284  10.597 -0.1095  0.0185  0.1636
18110TIP3   OH275744   2.383   5.024   1.506 -0.6495 -0.0095 -0.6919
18110TIP3    H175745   2.368   4.996   1.416 -2.3323  2.0763 -1.1284
18110TIP3    H275746   2.452   5.090   1.499 -1.6161  1.0392 -0.6670
18111TIP3   OH275747   3.559   3.948  11.957  0.1479  0.5897  0.3393
18111TIP3    H175748   3.620   3.916  11.890  1.0324  0.4197  1.2146
18111TIP3    H275749   3.582   4.040  11.968 -0.1726  0.6853  0.2388
18112TIP3   OH275750   3.416   0.428  13.748  0.3206 -0.3496 -0.0039
18112TIP3    H175751   3.485   0.493  13.758 -0.4068  0.4916 -0.3448
18112TIP3    H275752   3.438   0.382  13.667  0.0207  0.5035 -0.5801
18113TIP3   OH275753   5.574   3.539   5.515 -0.3090  0.1387 -0.4513
18113TIP3    H175754   5.643   3.603   5.504  1.7665 -1.7759  0.6766
18113TIP3    H275755   5.543   3.551   5.605 -0.6060  0.1814 -0.5555
18114TIP3   OH275756   0.516   3.172   1.314 -0.4689 -0.0758  0.4195
18114TIP3    H175757   0.594   3.133   1.352 -0.0087 -0.4852 -0.8767
18114TIP3    H275758   0.447   3.156   1.378  0.3591 -0.2962  1.2795
18115TIP3   OH275759   0.449   6.785   1.451  0.4404  0.6764 -0.0305
18115TIP3    H175760   0.411   6.836   1.380  1.7587 -0.1964 -1.4334
18115TIP3    H275761   0.426   6.694   1.430  0.6612  0.4262  0.7728
18116TIP3   OH275762   2.613   5.229   4.631 -0.5840 -0.4501  0.4519
18116TIP3    H175763   2.532   5.267   4.666  0.4271  0.6798  1.6878
18116TIP3    H275764   2.628   5.276   4.550 -0.3188  0.5177  1.0463
18117TIP3   OH275765   4.339   5.997   5.968 -0.0312  0.2882 -0.1827
18117TIP3    H175766   4.293   5.915   5.950  0.8433 -0.0905 -0.7801
18117TIP3    H275767   4.431   5.972   5.973  0.0878  0.9752  1.3489
18118TIP3   OH275768   5.972   5.417   1.107 -0.0384  0.1692 -0.7492
18118TIP3    H175769   5.961   5.420   1.012  0.1363 -0.6449 -0.8026
18118TIP3    H275770   6.044   5.355   1.121  1.1412  1.6018 -0.1735
18119TIP3   OH275771   2.213   3.013   2.961  0.6523 -0.6583 -0.0768
18119TIP3    H175772   2.225   3.049   3.049 -0.1799 -2.0695  0.6507
18119TIP3    H275773   2.296   3.030   2.917  2.1718 -2.3400  1.9083
18120TIP3   OH275774   2.687   6.679  15.376 -0.2425  0.2768 -0.0847
18120TIP3    H175775   2.646   6.759  15.409 -3.6744 -1.1945 -0.3152
18120TIP3    H275776   2.688   6.690  15.281 -1.0769 -0.0568 -0.1427
18121TIP3   OH275777   2.070   6.293   1.095 -0.3248  1.1334  0.5783
18121TIP3    H175778   2.154   6.259   1.126 -0.2523 -0.2597 -1.0077
18121TIP3    H275779   2.004   6.250   1.149 -0.0963  0.4913  0.3578
18122TIP3   OH275780   1.730   4.441  12.723  0.4159  0.2530  0.3635
18122TIP3    H175781   1.802   4.387  12.756 -0.8500 -1.2190  0.8372
18122TIP3    H275782   1.703   4.398  12.642 -0.1505  0.6083  0.3622
18123TIP3   OH275783   2.261   3.827   1.417 -0.1180 -0.1739  0.7143
18123TIP3    H175784   2.325   3.899   1.424  1.6011 -1.6430  0.8864
18123TIP3    H275785   2.261   3.787   1.504  0.5051 -1.6007  0.0883
18124TIP3   OH275786   6.279   2.416   5.218  0.4793  0.7017  0.3972
18124TIP3    H175787   6.249   2.430   5.308  0.3473  0.4770  0.3894
18124TIP3    H275788   6.223   2.346   5.185  0.0261  1.2868 -0.1071
18125TIP3   OH275789   6.244   4.598  10.732  0.3246 -0.0561  0.0729
18125TIP3    H175790   6.237   4.601  10.827 -1.0169  0.4230 -0.0214
18125TIP3    H275791   6.330   4.635  10.713  1.3579 -1.7571  1.1710
18126TIP3   OH275792   1.620   0.875  10.719 -0.5751  0.6234 -0.3938
18126TIP3    H175793   1.648   0.965  10.703 -1.1987  0.7136 -0.9983
18126TIP3    H275794   1.579   0.847  10.637  1.5880 -0.9748 -1.0203
18127TIP3   OH275795   0.150   2.761   2.407 -0.2892  0.2233 -0.1450
18127TIP3    H175796   0.151   2.849   2.444  3.1793  1.0425 -1.8312
18127TIP3    H275797   0.064   2.753   2.366 -0.3293  3.2768 -0.8696
18128TIP3   OH275798   4.371   3.002  13.741 -0.2285  0.1383 -0.0343
18128TIP3    H175799   4.406   2.983  13.654 -1.6807  3.5084 -1.5338
18128TIP3    H275800   4.401   3.091  13.760 -1.7850  0.3243  1.9003
18129TIP3   OH275801   5.209   4.602   4.233 -0.1375 -0.1254  0.3421
18129TIP3    H175802   5.265   4.574   4.160  1.0590 -0.0264  1.1875
18129TIP3    H275803   5.122   4.569   4.210  0.2934 -0.4559 -0.9244
18130TIP3   OH275804   2.140   0.168   2.139 -0.0292 -0.0537  0.0308
18130TIP3    H175805   2.062   0.114   2.152  1.0539 -1.8025 -0.4065
18130TIP3    H275806   2.157   0.206   2.225 -0.4382 -0.9688  0.5311
18131TIP3   OH275807   5.756   3.449  12.294 -0.0165 -0.0618  0.0924
18131TIP3    H175808   5.748   3.358  12.267  1.0319 -0.1851  0.1604
18131TIP3    H275809   5.799   3.445  12.380  0.3653  0.5015 -0.0646
18132TIP3   OH275810   0.411   2.221  10.458 -0.8142  0.6322  0.5762
18132TIP3    H175811   0.487   2.197  10.510 -0.0221  0.7930 -0.4714
18132TIP3    H275812   0.386   2.308  10.491  0.4734  1.3096 -0.1333
18133TIP3   OH275813   2.061   5.227  11.497  0.2355  0.4854  0.2757
18133TIP3    H175814   2.094   5.276  11.572  0.8713  0.2653  0.1481
18133TIP3    H275815   1.966   5.225  11.509  0.2303  1.4291  0.4723
18134TIP3   OH275816   1.256   5.468   2.540 -0.5033  0.0867  0.2672
18134TIP3    H175817   1.241   5.404   2.610 -0.5143  0.6076  0.7476
18134TIP3    H275818   1.169   5.507   2.525 -0.1127  1.5050  1.4786
18135TIP3   OH275819   2.368   0.010   2.110 -0.4451  0.0713  0.0932
18135TIP3    H175820   2.423   0.022   2.187  0.0853  0.6999 -0.3729
18135TIP3    H275821   2.286   0.053   2.132 -0.0652  0.8160  0.0627
18136TIP3   OH275822   6.421   3.001   4.525 -0.2398 -0.4534  0.0486
18136TIP3    H175823   6.464   2.992   4.440  0.9847  1.6747  0.3648
18136TIP3    H275824   6.474   2.948   4.584 -0.9983 -1.8065 -0.4398
18137TIP3   OH275825   0.658   3.589   3.139 -0.4991 -0.0694 -0.3111
18137TIP3    H175826   0.599   3.649   3.094 -2.5081 -2.7690 -1.5456
18137TIP3    H275827   0.664   3.624   3.228 -2.4456  1.3506 -0.6629
18138TIP3   OH275828   2.782   3.160  13.091  0.2670  0.7261 -0.1031
18138TIP3    H175829   2.757   3.185  13.180  2.6082 -0.7705  1.0720
18138TIP3    H275830   2.819   3.240  13.054  1.0586  0.8927  0.9933
18139TIP3   OH275831   1.297   3.630  12.621 -0.6619  0.2085 -0.3411
18139TIP3    H175832   1.225   3.574  12.594 -0.5156 -1.1588  1.8892
18139TIP3    H275833   1.334   3.663  12.539 -2.0009 -1.3602 -1.6309
18140TIP3   OH275834   2.166   3.695   2.278 -0.2149 -0.5300  0.5118
18140TIP3    H175835   2.218   3.734   2.349 -1.3315 -0.4004  1.2925
18140TIP3    H275836   2.212   3.720   2.198  0.1515  0.7533  1.0978
18141TIP3   OH275837   3.505   3.392  12.722 -0.5660 -0.7304 -0.7658
18141TIP3    H175838   3.463   3.307  12.711  0.1555 -1.0409 -1.2308
18141TIP3    H275839   3.577   3.392  12.659 -0.7612  0.3659 -1.0086
18142TIP3   OH275840   2.803   2.265   5.694 -0.0944 -0.3521  0.2487
18142TIP3    H175841   2.767   2.347   5.661 -1.1357 -0.6987  0.4776
18142TIP3    H275842   2.870   2.291   5.756  0.3346  0.3144 -0.4714
18143TIP3   OH275843   0.682   3.347  11.929  0.2063  0.3087  0.3749
18143TIP3    H175844   0.655   3.260  11.958 -1.1777  0.3589 -0.6563
18143TIP3    H275845   0.604   3.383  11.887  0.7027  2.1359  0.9582
18144TIP3   OH275846   0.239   5.725  12.734 -0.0291  0.5749 -0.1429
18144TIP3    H175847   0.277   5.682  12.811 -1.5179 -1.8530 -0.6811
18144TIP3    H275848   0.273   5.676  12.660 -1.1489  0.8058 -0.8304
18145TIP3   OH275849   0.098   0.161  14.905 -0.0156 -0.7615 -0.4311
18145TIP3    H175850   0.047   0.203  14.835 -1.6847 -1.3109  0.4003
18145TIP3    H275851   0.071   0.069  14.903  0.4633 -0.9331  0.4581
18146TIP3   OH275852   5.151   4.894  16.964 -0.1031 -0.1369  0.3089
18146TIP3    H175853   5.227   4.952  16.960 -0.2444  0.0473  0.2771
18146TIP3    H275854   5.169   4.828  16.897  2.0388 -2.5840  3.0228
18147TIP3   OH275855   6.243   4.085  16.360 -0.3052 -0.0280 -0.0220
18147TIP3    H175856   6.228   4.127  16.274 -1.1510  0.0145  0.1336
18147TIP3    H275857   6.245   3.992  16.341 -0.8444 -0.0385 -0.0492
18148TIP3   OH275858   1.409   0.258  12.059  0.2146 -1.0552  0.0519
18148TIP3    H175859   1.502   0.238  12.067  0.0793 -1.7366 -0.0185
18148TIP3    H275860   1.401   0.296  11.971  0.3906 -1.1948 -0.0250
18149TIP3   OH275861   5.922   4.510   4.143  0.0114  0.6598  0.1292
18149TIP3    H175862   5.916   4.516   4.238 -0.4081 -1.5198  0.2779
18149TIP3    H275863   5.833   4.493   4.114  0.3045  0.2347 -0.5605
18150TIP3   OH275864   1.688   5.810   3.826  0.3406 -0.4084  0.3662
18150TIP3    H175865   1.646   5.731   3.861  0.6411 -0.7830 -0.0852
18150TIP3    H275866   1.778   5.782   3.808  0.4984  0.0932  0.3781
18151TIP3   OH275867   2.037   4.896   0.889  0.3179 -0.8485  0.4347
18151TIP3    H175868   2.090   4.854   0.956  0.0938 -0.4877  0.8424
18151TIP3    H275869   1.969   4.943   0.937  1.5766  1.4513  0.1253
18152TIP3   OH275870   5.210   2.044  11.130  0.0721  0.0914  0.7686
18152TIP3    H175871   5.218   2.066  11.037 -0.4304  0.9320  0.9081
18152TIP3    H275872   5.207   1.949  11.132 -0.8188  0.0835 -0.1599
18153TIP3   OH275873   5.149   5.672   3.302  0.5138  0.2199  0.6091
18153TIP3    H175874   5.235   5.714   3.303  0.5785  0.1199 -0.3402
18153TIP3    H275875   5.138   5.637   3.391  1.6468 -0.1762  0.6005
18154TIP3   OH275876   0.446   3.852  11.485  0.0523  0.0901 -0.3064
18154TIP3    H175877   0.478   3.797  11.556 -1.9428 -0.2741  0.3530
18154TIP3    H275878   0.509   3.924  11.481  1.4608 -1.0383  0.2964
18155TIP3   OH275879   0.253   4.447   2.006  0.3390  0.6362  0.5428
18155TIP3    H175880   0.323   4.495   1.961  0.1823  0.0784 -0.3205
18155TIP3    H275881   0.174   4.469   1.957 -0.0404  0.9906  1.3045
18156TIP3   OH275882   0.969   1.424  13.976 -0.1312 -0.3166  0.1758
18156TIP3    H175883   0.901   1.367  13.940  0.5335  0.0445 -1.7767
18156TIP3    H275884   1.041   1.365  13.998 -0.8877 -0.6562  1.9238
18157TIP3   OH275885   5.409   4.036  16.548  0.2897 -0.3954  0.0910
18157TIP3    H175886   5.415   4.068  16.638 -0.9804  0.6817 -0.1830
18157TIP3    H275887   5.390   4.114  16.495 -2.7268 -1.4621 -0.6299
18158TIP3   OH275888   4.001   6.017   4.857  0.2761  0.0668 -0.2186
18158TIP3    H175889   3.943   6.036   4.931 -0.3904 -1.2948 -0.3556
18158TIP3    H275890   4.059   6.093   4.852  0.5142  0.0885  1.8782
18159TIP3   OH275891   2.255   4.803  13.720  0.4439 -0.5124  0.1953
18159TIP3    H175892   2.228   4.859  13.793 -0.6343 -1.0839  0.2540
18159TIP3    H275893   2.232   4.853  13.642  0.2925 -0.4946  0.2499
18160TIP3   OH275894   6.130   1.054  13.973  0.2212 -0.5163 -0.3905
18160TIP3    H175895   6.189   1.048  14.048  0.9457  0.8249 -0.8160
18160TIP3    H275896   6.165   0.993  13.909  2.1328  1.3517 -1.2438
18161TIP3   OH275897   0.436   1.604  12.651 -0.0507  0.5882  0.5970
18161TIP3    H175898   0.356   1.586  12.601 -0.4508  1.1035  1.0436
18161TIP3    H275899   0.493   1.530  12.631 -1.2446 -0.6383  1.5175
18162TIP3   OH275900   1.068   1.855  16.587  0.2870 -0.5554  0.1637
18162TIP3    H175901   1.086   1.839  16.680  1.1583 -1.2475 -0.1086
18162TIP3    H275902   1.098   1.944  16.572 -0.3104 -0.2637  0.6517
18163TIP3   OH275903   3.386   6.412   5.868 -0.1500  0.1987  0.2842
18163TIP3    H175904   3.319   6.470   5.830  0.5592  0.6318 -0.3283
18163TIP3    H275905   3.448   6.397   5.796 -0.7455 -2.0201  0.1470
18164TIP3   OH275906   2.800   6.427  11.063  0.5543 -0.3526  0.0546
18164TIP3    H175907   2.794   6.332  11.069 -0.9143 -0.1859  2.4792
18164TIP3    H275908   2.770   6.448  10.974 -2.2381 -1.9951  0.4959
18165TIP3   OH275909   2.846   2.349   1.921 -0.2590  0.5709  0.2193
18165TIP3    H175910   2.802   2.300   1.990  0.0075  1.0288  0.7231
18165TIP3    H275911   2.782   2.354   1.850 -1.3937  2.0218  1.2800
18166TIP3   OH275912   5.016   2.551   2.759  0.7521  1.2101 -0.2788
18166TIP3    H175913   4.925   2.520   2.755  1.4595 -1.7752  2.6129
18166TIP3    H275914   5.018   2.613   2.832  0.7357  2.8053 -1.5824
18167TIP3   OH275915   1.730   0.812   1.999 -0.1082  0.0406  0.4657
18167TIP3    H175916   1.692   0.748   1.939 -0.8984  1.4993 -0.6561
18167TIP3    H275917   1.766   0.759   2.071 -0.1266 -1.6875 -0.7233
18168TIP3   OH275918   0.936   3.088   0.515  0.2457  0.0477 -0.5731
18168TIP3    H175919   0.993   3.037   0.573 -0.1952 -0.9740 -1.0266
18168TIP3    H275920   0.931   3.037   0.434  2.2371  2.2469 -2.2319
18169TIP3   OH275921   5.047   1.489  15.310  0.2050 -0.1263 -0.2075
18169TIP3    H175922   5.081   1.494  15.221  0.3940 -2.5636 -0.3481
18169TIP3    H275923   5.117   1.447  15.360 -0.8823 -1.1564  0.4975
18170TIP3   OH275924   5.495   5.883  15.342 -0.2362  0.0009  0.0639
18170TIP3    H175925   5.427   5.819  15.362 -0.2057  0.3997  1.5961
18170TIP3    H275926   5.454   5.968  15.361  0.0382  0.3855 -0.9992
18171TIP3   OH275927   2.479   2.082  15.192  0.9677 -0.6955 -0.1838
18171TIP3    H175928   2.499   2.068  15.099 -0.9864  0.8717 -0.9227
18171TIP3    H275929   2.432   2.166  15.194 -0.3051 -1.3672  2.0346
18172TIP3   OH275930   4.726   3.807  12.357  0.0608 -0.0091 -0.1486
18172TIP3    H175931   4.649   3.791  12.302  0.3355 -2.1023 -0.0295
18172TIP3    H275932   4.777   3.726  12.349  2.7777  1.6565 -0.9964
18173TIP3   OH275933   3.893   5.809   0.675  0.2787 -0.0267  0.8636
18173TIP3    H175934   3.949   5.882   0.651 -1.8550  1.8675  1.2248
18173TIP3    H275935   3.946   5.756   0.735  2.1721  0.7398 -0.0614
18174TIP3   OH275936   4.053   3.116  16.926 -0.6076 -0.5440  0.2035
18174TIP3    H175937   4.041   3.021  16.913 -1.3800 -0.2574 -1.6366
18174TIP3    H275938   4.144   3.132  16.901 -1.3982 -0.3834 -3.0332
18175TIP3   OH275939   0.408   5.597   1.821  0.5835  0.3366 -0.4088
18175TIP3    H175940   0.378   5.573   1.909  0.5946 -1.0318 -0.7511
18175TIP3    H275941   0.436   5.688   1.829 -3.4175  1.7168  0.0040
18176TIP3   OH275942   6.237   4.616   3.975 -0.5494 -0.0744  0.7050
18176TIP3    H175943   6.187   4.649   4.050 -0.1059 -1.3517  1.5832
18176TIP3    H275944   6.321   4.661   3.981 -0.5709 -0.0556  0.8677
18177TIP3   OH275945   2.834   4.569  11.000  0.3766 -0.3607  0.0704
18177TIP3    H175946   2.880   4.622  10.934 -0.0600 -0.7474 -0.5625
18177TIP3    H275947   2.741   4.589  10.986  0.3290  0.4299  1.3476
18178TIP3   OH275948   4.602   3.252  10.627 -0.0106  0.1491 -0.3744
18178TIP3    H175949   4.622   3.168  10.584 -0.4081 -0.8588  1.3484
18178TIP3    H275950   4.595   3.314  10.554 -1.5298 -1.6562 -1.8674
18179TIP3   OH275951   3.190   4.971  11.850 -0.0611  0.3707 -0.2100
18179TIP3    H175952   3.199   4.881  11.818 -0.7206  0.1996  0.0723
18179TIP3    H275953   3.274   5.011  11.831  0.6794 -0.6590  0.7889
18180TIP3   OH275954   6.045   6.549  11.894  0.0636  0.0150  0.1793
18180TIP3    H175955   6.001   6.464  11.893 -0.1210  0.0549 -2.1169
18180TIP3    H275956   6.106   6.544  11.820  0.0207  1.8670 -0.0217
18181TIP3   OH275957   2.001   3.698  16.074 -0.2266 -0.2048  0.3016
18181TIP3    H175958   2.057   3.723  16.148 -0.4641 -1.4769  0.9396
18181TIP3    H275959   2.031   3.610  16.050  0.0013  0.2777 -1.2917
18182TIP3   OH275960   4.131   3.954   4.460 -0.1382 -0.1332  0.4538
18182TIP3    H175961   4.175   3.952   4.545  1.6542  0.8068 -0.3783
18182TIP3    H275962   4.052   4.005   4.475 -0.1329 -0.4501  1.6644
18183TIP3   OH275963   2.596   0.906   5.149 -0.1583  0.6014  0.3970
18183TIP3    H175964   2.564   0.962   5.219  0.0363  0.4930  0.5732
18183TIP3    H275965   2.691   0.912   5.154 -0.1207  2.1407 -1.1002
18184TIP3   OH275966   5.704   3.806  15.065  0.4856 -0.5868 -0.6698
18184TIP3    H175967   5.762   3.856  15.007  1.0990 -0.0008  0.4239
18184TIP3    H275968   5.763   3.754  15.120 -0.0308 -0.3121  0.1634
18185TIP3   OH275969   6.288   3.790  15.814  0.2749 -0.5552 -0.1529
18185TIP3    H175970   6.266   3.883  15.813 -1.5547 -0.9405  0.8284
18185TIP3    H275971   6.359   3.784  15.878  1.6802  0.3692 -1.5415
18186TIP3   OH275972   4.278   5.872   4.782 -0.3283 -0.1447 -0.1991
18186TIP3    H175973   4.188   5.841   4.769  0.3985 -2.7761  0.5651
18186TIP3    H275974   4.333   5.796   4.764  1.6804  1.0072  0.7413
18187TIP3   OH275975   2.461   3.031  13.663  0.2537  0.2085 -0.0748
18187TIP3    H175976   2.382   3.037  13.608  0.1591 -0.3516 -0.0054
18187TIP3    H275977   2.522   2.979  13.611 -0.1012 -0.9620  0.6427
18188TIP3   OH275978   4.695   3.169  12.322  0.7553  0.1585 -0.3487
18188TIP3    H175979   4.638   3.186  12.247  1.3495  0.0389 -0.8310
18188TIP3    H275980   4.753   3.246  12.326 -1.6150  2.0074  2.2268
18189TIP3   OH275981   0.920   5.673  11.439 -0.7428 -0.1818  0.1289
18189TIP3    H175982   0.924   5.766  11.415  0.1991 -0.6290 -1.6191
18189TIP3    H275983   0.910   5.627  11.356  0.8443 -1.7592  0.7385
18190TIP3   OH275984   5.753   1.568   4.023  0.2705  0.3307  0.6983
18190TIP3    H175985   5.712   1.620   3.954 -0.9935 -1.8802 -0.3313
18190TIP3    H275986   5.760   1.628   4.098 -0.7895  2.0403 -0.5121
18191TIP3   OH275987   0.157   3.107  15.173  0.0772 -0.4297  0.4818
18191TIP3    H175988   0.087   3.092  15.237 -0.6812 -2.7820 -0.7557
18191TIP3    H275989   0.114   3.151  15.100  0.5776  0.7541  0.8776
18192TIP3   OH275990   1.544   6.078  12.439 -0.5158  0.1105 -0.3174
18192TIP3    H175991   1.490   6.005  12.407 -0.3946 -0.1885  0.1390
18192TIP3    H275992   1.620   6.035  12.478 -1.5018  0.3355  2.0005
18193TIP3   OH275993   6.304   0.986   5.547  0.0393  0.1296  0.5467
18193TIP3    H175994   6.400   0.991   5.544  0.1954 -2.1344 -1.4765
18193TIP3    H275995   6.275   1.030   5.468 -0.5050 -0.2978  0.5023
18194TIP3   OH275996   3.034   1.327   5.609  0.0861 -0.1667 -0.3704
18194TIP3    H175997   3.064   1.355   5.522  0.8322  0.3987  0.0527
18194TIP3    H275998   3.099   1.262   5.636 -0.4932 -0.8004 -0.4885
18195TIP3   OH275999   2.507   1.400  10.525 -0.0349 -0.7426  0.5222
18195TIP3    H176000   2.547   1.331  10.472  0.8855  0.3069 -0.1987
18195TIP3    H276001   2.573   1.470  10.527 -1.6584  0.9064 -0.3999
18196TIP3   OH276002   3.231   4.748   5.363  0.2855  0.4000 -0.1727
18196TIP3    H176003   3.286   4.748   5.285 -0.4150 -0.8502 -0.7045
18196TIP3    H276004   3.292   4.741   5.436  0.8696 -0.9771 -0.7494
18197TIP3   OH276005   0.543   5.646  16.601  0.9425 -0.5053  0.5189
18197TIP3    H176006   0.554   5.619  16.510  1.5837 -0.5601  0.6111
18197TIP3    H276007   0.473   5.712  16.598  0.0780 -1.4120  0.1646
18198TIP3   OH276008   6.381   0.712   0.310 -0.5673 -0.6325 -0.0787
18198TIP3    H176009   6.472   0.728   0.337 -0.3059  3.0475 -2.3993
18198TIP3    H276010   6.382   0.623   0.275  2.7720 -0.0869 -1.8736
18199TIP3   OH276011   0.606   3.305  13.138 -0.5525 -0.2327 -0.0816
18199TIP3    H176012   0.600   3.225  13.189  0.8066 -1.1603 -1.3120
18199TIP3    H276013   0.539   3.362  13.176 -0.5149 -1.3641  1.8072
18200TIP3   OH276014   2.920   6.236  17.026  0.0360 -0.0913 -0.1957
18200TIP3    H176015   2.891   6.189  17.104  0.0578 -1.7824 -1.1480
18200TIP3    H276016   3.015   6.241  17.036  0.2903 -2.1198 -0.9868
18201TIP3   OH276017   5.850   1.836  12.709 -0.4622 -0.0886 -0.1582
18201TIP3    H176018   5.798   1.897  12.656 -0.5928 -1.3929 -1.6278
18201TIP3    H276019   5.940   1.868  12.702 -0.5381 -0.0060 -0.8779
18202TIP3   OH276020   5.100   1.710  15.607  0.2379  0.0664 -0.6216
18202TIP3    H176021   5.105   1.643  15.676 -0.1961  2.0491  1.4886
18202TIP3    H276022   5.013   1.697  15.568  0.1076 -0.5243 -0.1630
18203TIP3   OH276023   1.977   5.791  15.012  0.0196  0.0898  0.8517
18203TIP3    H176024   1.986   5.821  15.102 -1.3225  1.5393  0.5398
18203TIP3    H276025   1.930   5.708  15.019  1.8217 -0.9268  1.5889
18204TIP3   OH276026   3.812   1.529  14.149 -0.8045 -0.1600 -0.3832
18204TIP3    H176027   3.791   1.449  14.101  1.9789 -0.9640 -0.4549
18204TIP3    H276028   3.872   1.501  14.218  0.9632  1.9442 -0.9432
18205TIP3   OH276029   3.872   2.484  16.017 -0.4047 -0.7913 -0.0985
18205TIP3    H176030   3.966   2.466  16.014 -0.6654 -2.0590 -1.5424
18205TIP3    H276031   3.858   2.548  15.947 -0.4057  0.7529  1.2257
18206TIP3   OH276032   3.161   5.077   4.953 -0.1290 -0.1593  0.6835
18206TIP3    H176033   3.155   5.169   4.928 -2.1409 -0.6188 -0.7148
18206TIP3    H276034   3.121   5.073   5.040 -2.1876 -0.0174 -0.2063
18207TIP3   OH276035   4.830   6.160   6.168  0.1798  0.3235 -0.1075
18207TIP3    H176036   4.799   6.097   6.103 -2.0233 -1.1164  2.1910
18207TIP3    H276037   4.893   6.111   6.221 -1.4760 -0.0041  1.6409
18208TIP3   OH276038   5.427   6.202   3.060 -0.0214 -0.1436 -0.0489
18208TIP3    H176039   5.370   6.127   3.042  0.7416 -0.6606 -0.3572
18208TIP3    H276040   5.503   6.189   3.004 -0.2016  1.2677 -0.6740
18209TIP3   OH276041   2.175   0.051  13.242  0.0495  0.3042 -0.1220
18209TIP3    H176042   2.112  -0.020  13.245 -0.2276  0.2195 -3.7286
18209TIP3    H276043   2.223   0.044  13.324 -2.3844 -1.6944  1.2751
18210TIP3   OH276044   6.466   0.173   6.594  0.6694  0.3738  0.1195
18210TIP3    H176045   6.560   0.176   6.578  0.6567  0.8657  0.1047
18210TIP3    H276046   6.436   0.094   6.549  1.0904  0.1556  0.2190
18211TIP3   OH276047   2.400   2.245   2.820 -0.3503 -0.6791 -0.3118
18211TIP3    H176048   2.378   2.338   2.812 -0.5619 -0.6515  0.4790
18211TIP3    H276049   2.315   2.201   2.826 -0.2488 -0.9022 -0.5214
18212TIP3   OH276050   3.941   2.512   1.102  0.0464  0.5066 -0.0317
18212TIP3    H176051   3.886   2.552   1.170 -0.5073 -2.3969  1.3458
18212TIP3    H276052   3.893   2.434   1.074  1.2580  0.4914 -2.3150
18213TIP3   OH276053   0.156   2.692   1.919 -0.3696  0.4856  0.6734
18213TIP3    H176054   0.217   2.620   1.938 -0.7926  0.3325  1.5011
18213TIP3    H276055   0.174   2.758   1.986 -1.7972 -0.0023  1.5910
18214TIP3   OH276056   0.066   0.540   4.910  0.4057  1.1698 -0.4128
18214TIP3    H176057   0.110   0.593   4.845  0.7326  0.5790 -0.6756
18214TIP3    H276058   0.128   0.534   4.983  0.7826  0.3235 -0.7904
18215TIP3   OH276059   6.494   2.950   2.925 -0.4850 -0.0808 -0.7424
18215TIP3    H176060   6.431   2.958   2.853 -0.6860  1.6843 -0.4207
18215TIP3    H276061   6.504   3.039   2.957 -0.0452 -0.7726  1.1361
18216TIP3   OH276062   6.474   2.296  16.285 -0.5366  0.5353 -0.0458
18216TIP3    H176063   6.457   2.387  16.309 -1.9171 -0.3858  2.8000
18216TIP3    H276064   6.394   2.268  16.240  0.2541  0.9028 -1.8048
18217TIP3   OH276065   1.775   3.381   5.260  0.1062 -0.2953  0.4664
18217TIP3    H176066   1.736   3.303   5.300  0.6164 -0.9177 -0.2288
18217TIP3    H276067   1.746   3.379   5.169 -0.4499  0.7185  0.6062
18218TIP3   OH276068   3.511   1.431  12.665 -0.1162  0.1303 -0.2109
18218TIP3    H176069   3.440   1.460  12.608  0.1073  0.6072 -0.2505
18218TIP3    H276070   3.586   1.483  12.639 -0.1248  0.6985  0.8234
18219TIP3   OH276071   0.831   2.144  16.131  0.3560  0.0169  0.4366
18219TIP3    H176072   0.874   2.060  16.146 -0.5202 -0.5199  0.0565
18219TIP3    H276073   0.895   2.209  16.157  0.3077 -0.7828  2.8213
18220TIP3   OH276074   0.791   2.607   3.832  0.1945  0.3228  0.3952
18220TIP3    H176075   0.852   2.663   3.880  0.8317  0.8194 -0.9534
18220TIP3    H276076   0.735   2.570   3.900  1.4830  0.4703  1.5936
18221TIP3   OH276077   3.699   0.777   4.083 -0.0231 -0.4045  0.4375
18221TIP3    H176078   3.787   0.741   4.077  0.1579  0.2778 -1.9117
18221TIP3    H276079   3.708   0.869   4.058 -1.3847 -0.3299  0.1178
18222TIP3   OH276080   4.194   3.268   4.792 -0.4631  0.4194 -0.1001
18222TIP3    H176081   4.250   3.209   4.841 -1.1025 -0.0424  0.0901
18222TIP3    H276082   4.198   3.236   4.702 -0.6450  0.2157 -0.0351
18223TIP3   OH276083   2.356   2.120   3.617 -0.1326  0.1399  0.1497
18223TIP3    H176084   2.393   2.049   3.670 -0.1175  0.9214  1.2462
18223TIP3    H276085   2.282   2.081   3.571  0.8679 -0.9792 -0.5579
18224TIP3   OH276086   5.237   0.868  16.899 -0.0638  0.4557 -0.3817
18224TIP3    H176087   5.291   0.916  16.836  1.8854 -1.8389 -0.6072
18224TIP3    H276088   5.285   0.873  16.981  0.5167 -1.4835 -0.5422
18225TIP3   OH276089   0.521   2.841   3.882  0.2943 -0.3328 -0.1940
18225TIP3    H176090   0.567   2.813   3.961 -0.8053 -1.2317  0.1352
18225TIP3    H276091   0.436   2.872   3.913  1.3231  3.2842 -0.5400
18226TIP3   OH276092   5.649   1.659   3.151  0.1879  0.5313 -0.0035
18226TIP3    H176093   5.669   1.582   3.097  3.5949  2.0157 -1.1574
18226TIP3    H276094   5.688   1.639   3.236 -1.9530 -0.3032  0.8511
18227TIP3   OH276095   5.626   1.816   6.295 -0.0789  0.5425 -0.3493
18227TIP3    H176096   5.550   1.758   6.296  0.6842 -0.5112 -1.1317
18227TIP3    H276097   5.701   1.757   6.291  0.7941  1.5649  0.4230
18228TIP3   OH276098   0.831   2.583   6.333 -0.5034 -0.1376  0.7356
18228TIP3    H176099   0.837   2.508   6.392  1.6709 -0.5151  0.1003
18228TIP3    H276100   0.919   2.621   6.333 -0.6449  0.3360 -1.6018
18229TIP3   OH276101   4.457   0.878  13.503  0.4400 -0.0328 -0.0196
18229TIP3    H176102   4.525   0.815  13.526  0.6564  0.4187  0.5987
18229TIP3    H276103   4.375   0.831  13.517  0.5788  0.0409  1.1379
18230TIP3   OH276104   5.252   4.063   4.607 -0.2322  0.1392 -0.4298
18230TIP3    H176105   5.183   4.127   4.623 -0.7871 -0.6874  0.5618
18230TIP3    H276106   5.332   4.108   4.634 -0.1054  1.6643 -3.0090
18231TIP3   OH276107   1.255   3.871   1.043  0.7543 -0.3431  0.0731
18231TIP3    H176108   1.176   3.915   1.012  0.0486  0.0592  2.2835
18231TIP3    H276109   1.232   3.778   1.044  1.1216 -0.4735 -1.4505
18232TIP3   OH276110   3.669   4.327   3.634  0.1712 -0.1352  0.6868
18232TIP3    H176111   3.601   4.365   3.578  0.2501 -0.5867  0.2861
18232TIP3    H276112   3.751   4.359   3.597  0.1903  0.4431  1.1954
18233TIP3   OH276113   3.971   1.623   1.319 -0.0436  0.1144 -0.3599
18233TIP3    H176114   4.033   1.595   1.386  0.1616  0.5733 -0.3593
18233TIP3    H276115   4.015   1.604   1.236  0.0758  0.3836 -0.3596
18234TIP3   OH276116   1.449   0.279  12.711 -0.1656  0.7154 -0.2604
18234TIP3    H176117   1.491   0.340  12.770  0.0690 -0.4329  0.8009
18234TIP3    H276118   1.515   0.211  12.695 -1.1982 -0.5334  0.5531
18235TIP3   OH276119   4.006   6.630   1.800 -0.2550  0.1498  0.2055
18235TIP3    H176120   4.056   6.619   1.719  0.8666 -0.0811  0.9144
18235TIP3    H276121   3.917   6.601   1.777  0.2402 -0.6773 -0.7260
18236TIP3   OH276122   0.217   6.464  15.316  0.1663  0.1690  0.2760
18236TIP3    H176123   0.248   6.418  15.238  0.8344 -0.0027  0.6339
18236TIP3    H276124   0.197   6.553  15.285  2.0863  0.6296  0.2246
18237TIP3   OH276125   2.699   1.433  11.453 -0.1935  0.7558  0.5759
18237TIP3    H176126   2.674   1.523  11.474 -0.6808  0.7208  0.1675
18237TIP3    H276127   2.764   1.441  11.383 -0.4719  0.7810  0.3190
18238TIP3   OH276128   1.654   3.327   0.406 -0.6465  0.6377 -0.0387
18238TIP3    H176129   1.740   3.286   0.408 -0.8630  0.1651 -0.1426
18238TIP3    H276130   1.669   3.415   0.374 -0.3447  0.1959 -1.1477
18239TIP3   OH276131   2.921   1.432  17.028 -0.1852  0.5240 -0.2272
18239TIP3    H176132   2.932   1.357  16.970  0.6668  0.9612 -0.6506
18239TIP3    H276133   2.923   1.508  16.970  0.4718  0.9584  0.3375
18240TIP3   OH276134   6.786   3.579  13.194  0.3987  0.1302  1.0786
18240TIP3    H176135   6.819   3.661  13.232 -1.6681  1.1012  0.9392
18240TIP3    H276136   6.695   3.599  13.171  0.9347 -0.9643 -2.6201
18241TIP3   OH276137   4.560   4.509   4.862  0.1590 -0.0501 -1.0838
18241TIP3    H176138   4.635   4.568   4.852 -0.7436  1.3724  0.1011
18241TIP3    H276139   4.498   4.538   4.795  0.6012 -1.1796 -2.0155
18242TIP3   OH276140   3.745   4.324   4.831 -0.3594 -0.4604  0.1315
18242TIP3    H176141   3.716   4.263   4.899 -0.2856 -0.0922  0.4968
18242TIP3    H276142   3.680   4.315   4.761 -0.5099 -0.7416  0.3057
18243TIP3   OH276143   4.462   2.847  14.362  0.4047 -0.1565 -0.7228
18243TIP3    H176144   4.384   2.902  14.371  0.2799 -0.3903 -0.3466
18243TIP3    H276145   4.428   2.757  14.367  0.7322 -0.2559 -0.2757
18244TIP3   OH276146   3.496   3.776   5.750  0.4606  0.2137 -0.5277
18244TIP3    H176147   3.433   3.715   5.711 -2.2764  2.8436 -0.6659
18244TIP3    H276148   3.504   3.748   5.841  0.5517 -1.2600 -0.9684
18245TIP3   OH276149   1.270   0.108  13.695  0.4273 -0.1425 -0.0795
18245TIP3    H176150   1.211   0.111  13.771 -2.0361  1.2594 -1.9095
18245TIP3    H276151   1.242   0.030  13.646  0.4537  0.2148 -0.6702
18246TIP3   OH276152   5.937   1.856  16.225  0.4013  0.9878  0.2064
18246TIP3    H176153   5.900   1.769  16.241  1.4506  0.6929  1.1704
18246TIP3    H276154   5.862   1.915  16.228 -0.4120  0.0659 -1.0721
18247TIP3   OH276155   5.202   3.850   5.413  0.1551 -0.0001 -0.0692
18247TIP3    H176156   5.188   3.869   5.321  1.3046 -1.9541 -0.7177
18247TIP3    H276157   5.219   3.756   5.416 -1.1116 -0.2547  2.3094
18248TIP3   OH276158   6.153   3.831   3.566  0.0779  0.4969  0.7289
18248TIP3    H176159   6.084   3.802   3.508  1.4630 -0.0156 -0.7491
18248TIP3    H276160   6.229   3.777   3.543  0.6077  0.0188  3.2849
18249TIP3   OH276161   1.736   3.547   5.485 -0.0061 -0.1496 -0.4225
18249TIP3    H176162   1.779   3.531   5.401  1.4657  1.4655 -0.0344
18249TIP3    H276163   1.651   3.584   5.463  0.9341  1.6137 -1.2396
18250TIP3   OH276164   0.624   1.019  12.152 -0.0195 -0.0722 -0.1917
18250TIP3    H176165   0.668   1.103  12.162  0.8090 -0.2512 -1.9116
18250TIP3    H276166   0.650   0.968  12.229  0.3158  0.8774  0.3319
18251TIP3   OH276167   5.236   1.592   4.448  0.2950  0.2822 -0.0752
18251TIP3    H176168   5.208   1.572   4.537 -3.1249  1.2214 -0.7704
18251TIP3    H276169   5.248   1.687   4.448  0.4600  0.2634 -0.5873
18252TIP3   OH276170   0.157   6.232  14.799  0.8171 -0.3858  0.0478
18252TIP3    H176171   0.252   6.230  14.785  0.7157  1.4071 -1.2557
18252TIP3    H276172   0.130   6.141  14.786  2.0251 -0.4894 -2.4569
18253TIP3   OH276173   1.392   5.286   2.188  0.7163 -0.5720 -0.3422
18253TIP3    H176174   1.391   5.191   2.192  1.3248 -0.5952 -0.6382
18253TIP3    H276175   1.477   5.308   2.150  0.9057  0.1086  0.4336
18254TIP3   OH276176   6.629   6.696   5.806  0.2238 -0.9511 -0.2225
18254TIP3    H176177   6.644   6.614   5.758  0.7585 -1.4657  0.7787
18254TIP3    H276178   6.580   6.669   5.884  3.2239 -0.9432  1.8484
18255TIP3   OH276179   1.510   3.613  13.294 -0.1096  0.0287  0.2385
18255TIP3    H176180   1.481   3.547  13.357  1.3485 -1.0922 -0.2090
18255TIP3    H276181   1.443   3.613  13.226 -0.5055 -0.4604  0.6234
18256TIP3   OH276182   0.376   4.584   3.443  0.0013 -0.0357  0.6659
18256TIP3    H176183   0.287   4.561   3.416  0.2798  0.4507 -0.7559
18256TIP3    H276184   0.385   4.677   3.420  2.3048 -1.0401 -3.6111
18257TIP3   OH276185   0.762   1.924  14.026  0.7171 -0.0441  0.0147
18257TIP3    H176186   0.840   1.971  14.054  0.4712 -1.2289  2.9547
18257TIP3    H276187   0.782   1.895  13.937  2.7118  1.5258 -0.1101
18258TIP3   OH276188   0.568   1.119  12.465 -0.1901  0.2463  0.0490
18258TIP3    H176189   0.650   1.130  12.418  0.0824 -0.4229  0.3576
18258TIP3    H276190   0.530   1.038  12.430  0.4847 -0.8056  1.6183
18259TIP3   OH276191   3.420   5.433  16.421  0.1004 -0.3164  0.2917
18259TIP3    H176192   3.472   5.455  16.499  2.0445 -1.5761 -0.5743
18259TIP3    H276193   3.458   5.351  16.390  0.2898  0.8062 -2.7591
18260TIP3   OH276194   1.697   0.835  13.680 -0.7653  0.1841  0.1142
18260TIP3    H176195   1.726   0.743  13.679  0.1745  0.4142  1.9091
18260TIP3    H276196   1.752   0.876  13.747 -2.0644  1.7717  0.2563
18261TIP3   OH276197   6.042   0.894  14.425 -0.1129 -0.1740  0.2245
18261TIP3    H176198   6.017   0.931  14.510  0.5443  0.5929  0.0983
18261TIP3    H276199   6.101   0.960  14.387  0.4627 -1.0015 -0.3501
18262TIP3   OH276200   5.321   2.041   1.355  0.7073  0.4180 -0.3503
18262TIP3    H176201   5.245   1.997   1.315 -0.1532  0.6530  0.9581
18262TIP3    H276202   5.389   2.037   1.287  0.5254 -2.4651 -0.4890
18263TIP3   OH276203   4.409   5.229   2.696 -0.0754  0.0499 -0.4341
18263TIP3    H176204   4.343   5.162   2.675 -0.9600  0.4821  0.8027
18263TIP3    H276205   4.369   5.311   2.669 -0.6582  0.4640  1.4936
18264TIP3   OH276206   4.073   3.815   1.579  1.2454 -0.0315  0.1645
18264TIP3    H176207   4.080   3.797   1.485 -2.8139  0.1624 -0.3566
18264TIP3    H276208   4.049   3.730   1.618  1.1387  0.2519  0.7270
18265TIP3   OH276209   5.592   4.506   2.719 -0.1506  0.5709  0.0264
18265TIP3    H176210   5.613   4.414   2.703  0.1556  0.6377  0.0324
18265TIP3    H276211   5.622   4.552   2.640 -0.8598  0.5901 -0.2385
18266TIP3   OH276212   4.710   2.574  12.184 -0.9874  0.0265 -0.4067
18266TIP3    H176213   4.742   2.487  12.204  0.5073  0.7068  0.3086
18266TIP3    H276214   4.726   2.625  12.263  1.7632  1.8951 -1.9841
18267TIP3   OH276215   2.999   5.885   4.583 -0.0550  0.6237 -0.1525
18267TIP3    H176216   3.072   5.873   4.644  0.4337  2.8388 -0.2262
18267TIP3    H276217   2.929   5.829   4.618  1.6384 -1.6400 -0.1378
18268TIP3   OH276218   1.676   1.197  16.984 -0.5642 -0.1948  0.3610
18268TIP3    H176219   1.654   1.171  16.894  1.2031  0.8810 -0.4530
18268TIP3    H276220   1.653   1.290  16.987 -0.4224 -0.1801  0.9757
18269TIP3   OH276221   3.871   6.727   0.041 -0.0137  0.0718  0.7820
18269TIP3    H176222   3.840   6.657   0.100 -1.7801  0.2644  0.1181
18269TIP3    H276223   3.966   6.714   0.038 -0.1850 -1.6836  1.4737
18270TIP3   OH276224   5.842   4.035   3.062  0.1225  0.5079 -0.0389
18270TIP3    H176225   5.925   4.017   3.106  0.1605 -1.2863 -0.7374
18270TIP3    H276226   5.776   4.018   3.128  0.1721 -2.2765 -0.5694
18271TIP3   OH276227   0.146   5.776   2.155  0.4612  0.5606 -0.1379
18271TIP3    H176228   0.055   5.796   2.179  0.1380  1.2213 -1.8105
18271TIP3    H276229   0.199   5.823   2.220 -0.3741  0.7395  0.4314
18272TIP3   OH276230   5.042   1.828   1.069  0.0402  0.0833  0.0579
18272TIP3    H176231   4.993   1.761   1.117 -0.1876  1.2151  1.4949
18272TIP3    H276232   5.132   1.818   1.100 -0.0797  0.7169  0.6492
18273TIP3   OH276233   2.616   5.222   2.382  0.2702  0.4108 -0.8384
18273TIP3    H176234   2.692   5.230   2.440  0.5565 -0.7692 -1.0253
18273TIP3    H276235   2.651   5.179   2.303 -0.9615 -2.1047 -0.1187
18274TIP3   OH276236   0.618   5.127   3.956 -0.2172  0.0861  0.0471
18274TIP3    H176237   0.526   5.145   3.939  0.1026  3.9691  1.4440
18274TIP3    H276238   0.626   5.129   4.051  1.3429 -0.0014 -0.0550
18275TIP3   OH276239   5.067   3.995  14.793  0.0326 -0.4827  0.7021
18275TIP3    H176240   5.040   3.908  14.823  1.0338 -0.9637  0.2498
18275TIP3    H276241   5.010   4.055  14.841 -0.5634 -1.3740  1.1485
18276TIP3   OH276242   1.822   6.082   0.704  0.2236  0.0233  0.1001
18276TIP3    H176243   1.894   6.032   0.664 -0.0182  0.2311 -0.6077
18276TIP3    H276244   1.816   6.162   0.651 -0.8895 -0.2399 -0.1891
18277TIP3   OH276245   6.202   2.096  11.517  0.2208 -0.0596  0.7547
18277TIP3    H176246   6.115   2.068  11.548  0.5775 -0.1334  1.7237
18277TIP3    H276247   6.202   2.074  11.424 -0.1763 -1.6520  1.1038
18278TIP3   OH276248   2.652   4.917   6.387 -0.0082 -0.0897 -0.1300
18278TIP3    H176249   2.693   4.998   6.357 -0.3253 -0.3825 -1.4070
18278TIP3    H276250   2.695   4.848   6.336  0.1690 -0.7235  0.8549
18279TIP3   OH276251   0.762   1.444  14.797 -0.7565 -0.2666 -0.3659
18279TIP3    H176252   0.679   1.470  14.836 -0.2917  0.7229 -0.0130
18279TIP3    H276253   0.740   1.421  14.707 -1.7891 -2.2605  0.3347
18280TIP3   OH276254   6.515   3.309  12.920 -0.1516 -0.3324  0.0464
18280TIP3    H176255   6.423   3.282  12.922  0.3059 -1.9807  1.1854
18280TIP3    H276256   6.548   3.288  13.008  1.1048  1.0427 -0.0551
18281TIP3   OH276257   4.457   0.055   2.495 -0.5657  0.3398 -0.1866
18281TIP3    H176258   4.405   0.134   2.480 -1.2416 -0.4233 -2.0888
18281TIP3    H276259   4.548   0.085   2.485 -0.7025  1.1866  0.8100
18282TIP3   OH276260   1.417   4.743  16.260  0.7623  0.7102 -0.9622
18282TIP3    H176261   1.357   4.679  16.222 -0.6249  1.4891 -0.2047
18282TIP3    H276262   1.361   4.795  16.319  2.7238 -0.3996  2.1100
18283TIP3   OH276263   2.613   6.671   3.209  0.2567  0.1476  0.1596
18283TIP3    H176264   2.569   6.611   3.269 -4.0688  2.0331 -0.7210
18283TIP3    H276265   2.564   6.753   3.218  2.8853  2.1357 -2.0602
18284TIP3   OH276266   5.593   5.162   2.177 -0.0446  0.1592  0.1327
18284TIP3    H176267   5.650   5.137   2.105 -2.6741  1.6337 -2.6948
18284TIP3    H276268   5.598   5.258   2.180  0.4504  0.1151  2.3683
18285TIP3   OH276269   2.742   4.623  11.764  0.1706  0.4454  0.0006
18285TIP3    H176270   2.747   4.641  11.670 -2.6416  3.2678  0.2308
18285TIP3    H276271   2.767   4.531  11.771 -1.8282 -0.6425 -3.8553
18286TIP3   OH276272   2.321   1.749   2.364 -0.5804  0.0442  0.3843
18286TIP3    H176273   2.329   1.767   2.458  1.1925  0.7873  0.1344
18286TIP3    H276274   2.334   1.654   2.357  1.2443  0.2265  0.7523
18287TIP3   OH276275   0.810   5.472  14.864 -0.9548  0.0018 -0.4020
18287TIP3    H176276   0.900   5.506  14.862 -1.2036  0.6525 -1.8827
18287TIP3    H276277   0.763   5.534  14.921 -0.5458 -0.1818  0.1504
18288TIP3   OH276278   6.779   0.304  16.482 -0.1801  0.7202 -0.7198
18288TIP3    H176279   6.744   0.362  16.414 -1.8399  1.8190  0.9536
18288TIP3    H276280   6.704   0.287  16.539  1.1190 -0.2199  0.7939
18289TIP3   OH276281   2.356   5.198   4.949  0.0418  0.0915 -0.2786
18289TIP3    H176282   2.333   5.136   4.880  0.9754 -0.4982 -0.0725
18289TIP3    H276283   2.335   5.153   5.031 -2.0885  1.1908 -0.1456
18290TIP3   OH276284   6.132   4.209  16.577  0.1610  0.7736  0.0373
18290TIP3    H176285   6.180   4.153  16.638 -0.7491  0.6030  0.6114
18290TIP3    H276286   6.148   4.169  16.491  0.2295  0.1424  0.3359
18291TIP3   OH276287   1.316   2.579   5.153 -0.1728 -0.6281 -0.1400
18291TIP3    H176288   1.282   2.506   5.102 -1.5578 -0.0565 -0.0783
18291TIP3    H276289   1.240   2.614   5.199  0.6071  0.3580  0.4464
18292TIP3   OH276290   1.549   5.255   0.009 -0.2807  0.6123  0.4338
18292TIP3    H176291   1.507   5.316  -0.052 -0.5271  0.0708  0.0498
18292TIP3    H276292   1.555   5.173  -0.040  0.0844  0.3388  0.9288
18293TIP3   OH276293   3.580   0.771  11.992  0.2635  0.5071 -0.0783
18293TIP3    H176294   3.500   0.819  12.015  0.3680  0.7281 -0.1719
18293TIP3    H276295   3.553   0.679  11.991 -0.0692  0.6041 -0.4253
18294TIP3   OH276296   5.338   1.194  16.964  0.2347  0.0946 -0.1664
18294TIP3    H176297   5.262   1.203  16.907  0.5530  0.4937 -0.5312
18294TIP3    H276298   5.301   1.170  17.049 -0.2681 -0.1418 -0.4464
18295TIP3   OH276299   0.359   1.369   4.030  0.1091 -0.4970  0.3732
18295TIP3    H176300   0.354   1.452   3.983 -0.9601 -1.2859 -1.0045
18295TIP3    H276301   0.424   1.318   3.981  0.1824 -0.7458  0.7291
18296TIP3   OH276302   2.026   1.104  12.522 -0.4050 -0.2268  0.1230
18296TIP3    H176303   1.980   1.049  12.586 -0.5173 -1.0849 -0.6635
18296TIP3    H276304   2.092   1.150  12.573 -1.1165 -0.1595  1.0144
18297TIP3   OH276305   4.235   6.582  15.439 -0.6150 -0.4009 -0.0559
18297TIP3    H176306   4.200   6.497  15.464 -0.1268 -0.0858  1.9096
18297TIP3    H276307   4.193   6.602  15.355 -2.4157 -1.5957  0.5003
18298TIP3   OH276308   4.849   3.742   5.280  0.1084  0.0306 -0.0040
18298TIP3    H176309   4.865   3.660   5.233 -1.0233 -0.5963  0.6616
18298TIP3    H276310   4.837   3.807   5.212 -2.4003 -1.0284 -0.6690
18299TIP3   OH276311   4.034   3.986   2.819 -0.2136 -0.1017 -0.3840
18299TIP3    H176312   4.027   3.943   2.734  1.7731 -1.5033  0.0776
18299TIP3    H276313   3.997   3.923   2.881  1.0613 -0.4063  0.0973
18300TIP3   OH276314   0.286   6.621  14.748  0.1625 -0.4943  0.3804
18300TIP3    H176315   0.278   6.664  14.662  1.1408  0.2875  0.6695
18300TIP3    H276316   0.227   6.671  14.804 -1.0833 -1.4847  0.0222
18301TIP3   OH276317   1.480   1.816  11.256 -0.1784 -0.1268  0.0970
18301TIP3    H176318   1.385   1.813  11.267 -0.4202  1.7510 -1.0184
18301TIP3    H276319   1.503   1.731  11.218 -1.8432  0.3659 -2.2280
18302TIP3   OH276320   6.064   2.240  12.976  0.0494 -0.1596 -0.1420
18302TIP3    H176321   6.024   2.195  13.050 -0.6006 -0.8032 -0.8610
18302TIP3    H276322   6.005   2.314  12.958 -0.7340 -0.9707 -1.0512
18303TIP3   OH276323   6.259   1.596  16.249  0.4043 -0.1989  0.3980
18303TIP3    H176324   6.350   1.567  16.241  0.6206  0.8675 -1.7753
18303TIP3    H276325   6.264   1.678  16.297  0.8832  0.8608 -1.3526
18304TIP3   OH276326   5.783   1.603  15.169 -0.2060  0.0689  0.2004
18304TIP3    H176327   5.824   1.537  15.224 -0.8080 -0.7081 -0.2783
18304TIP3    H276328   5.692   1.605  15.197 -0.1777  0.7882  0.2853
18305TIP3   OH276329   2.697   3.610  16.338  0.1650 -0.0079 -0.2428
18305TIP3    H176330   2.741   3.620  16.422  1.2570  0.3864 -0.8406
18305TIP3    H276331   2.608   3.584  16.361  0.6311 -0.6003  1.0093
18306TIP3   OH276332   2.589   1.421   5.854 -0.2488  0.1323 -0.1870
18306TIP3    H176333   2.607   1.344   5.908  1.1973 -0.4560 -1.4501
18306TIP3    H276334   2.600   1.495   5.914  1.6028 -0.4907  0.2874
18307TIP3   OH276335   3.372   6.010  11.107  0.4072  0.3141 -0.3110
18307TIP3    H176336   3.385   6.059  11.026  1.8489  0.4161 -0.0477
18307TIP3    H276337   3.422   5.929  11.094 -0.0401 -0.0503  0.1695
18308TIP3   OH276338   1.987   2.978   4.721 -0.8727  0.4891 -0.7592
18308TIP3    H176339   2.016   2.971   4.630  0.5721  0.8560 -0.3604
18308TIP3    H276340   2.013   2.895   4.761  0.4313  1.1250 -0.2076
18309TIP3   OH276341   0.416   2.934  11.828  0.0184  0.4294  0.7092
18309TIP3    H176342   0.355   2.977  11.768  1.6214  2.8411  0.6702
18309TIP3    H276343   0.423   2.844  11.796  0.2441  1.4098 -2.2873
18310TIP3   OH276344   4.484   2.824   2.978  0.2406  0.1526  0.2149
18310TIP3    H176345   4.425   2.812   2.903 -1.2854 -0.9995  1.5244
18310TIP3    H276346   4.466   2.748   3.034  0.4591  1.5807  2.3003
18311TIP3   OH276347   6.733   4.266  14.829  0.0333  0.2718 -0.4583
18311TIP3    H176348   6.779   4.348  14.809  1.7983 -0.1479  1.5048
18311TIP3    H276349   6.692   4.282  14.913  0.6650 -0.9218  0.1047
18312TIP3   OH276350   1.159   1.554   5.527  0.3239  0.6647 -0.1052
18312TIP3    H176351   1.197   1.525   5.444  1.0314 -0.6762  0.6528
18312TIP3    H276352   1.079   1.501   5.536 -0.4617  1.7461 -0.5396
18313TIP3   OH276353   5.187   4.439   4.904  0.2134 -0.0907  0.2720
18313TIP3    H176354   5.158   4.514   4.851  0.1873 -0.7872 -0.7376
18313TIP3    H276355   5.247   4.477   4.968 -0.8767  0.9952  0.7074
18314TIP3   OH276356   0.849   3.504  15.799 -0.4994  0.0295  0.1423
18314TIP3    H176357   0.887   3.591  15.801 -1.1298  0.3583 -0.9611
18314TIP3    H276358   0.894   3.460  15.727  0.4377 -0.8751  1.2440
18315TIP3   OH276359   4.427   6.132  16.264 -0.0811 -0.0278 -0.1654
18315TIP3    H176360   4.517   6.149  16.293 -0.5089 -0.7579  1.7742
18315TIP3    H276361   4.428   6.041  16.235  0.3700  0.7245 -2.8335
18316TIP3   OH276362   1.241   0.677  14.751 -0.0502  0.5962 -0.3626
18316TIP3    H176363   1.175   0.665  14.819  0.6900  1.7087  0.5709
18316TIP3    H276364   1.231   0.600  14.695 -0.0891 -0.7889  1.4727
18317TIP3   OH276365   6.450   6.138  12.671  0.1520  0.3750  0.5032
18317TIP3    H176366   6.474   6.220  12.630 -0.6783 -0.4201 -1.7121
18317TIP3    H276367   6.506   6.072  12.629 -2.6440 -0.8687 -1.6047
18318TIP3   OH276368   4.913   6.173   3.831 -0.1729 -0.8417 -0.2498
18318TIP3    H176369   4.880   6.155   3.919 -1.8909  0.4950 -0.5613
18318TIP3    H276370   5.006   6.193   3.844 -0.1921 -1.5034  1.1239
18319TIP3   OH276371   0.268   0.958   2.744 -0.0289 -0.0137  0.2788
18319TIP3    H176372   0.229   0.998   2.822 -1.8022 -1.2554  0.0826
18319TIP3    H276373   0.211   0.984   2.672  0.9318  0.1494 -0.4413
18320TIP3   OH276374   5.307   6.071  15.417 -0.1911 -0.2214 -0.7957
18320TIP3    H176375   5.283   6.161  15.439 -1.5457 -0.8469  0.4346
18320TIP3    H276376   5.223   6.027  15.402  0.4752 -1.1838 -1.8210
18321TIP3   OH276377   3.864   1.589   1.759  0.4370 -0.5739  1.4492
18321TIP3    H176378   3.808   1.588   1.681  2.3545  2.5576 -0.1737
18321TIP3    H276379   3.811   1.548   1.827 -2.4994 -0.7596 -0.7538
18322TIP3   OH276380   0.027   0.948  15.951  0.3918  0.1136  0.5594
18322TIP3    H176381  -0.004   1.026  15.903 -1.6135 -1.1038 -0.2719
18322TIP3    H276382   0.043   0.883  15.883  1.2049 -0.4950  1.3083
18323TIP3   OH276383   4.414   1.238  12.148  0.4804  0.1777 -0.2086
18323TIP3    H176384   4.462   1.278  12.075 -0.3702  0.6541 -0.5260
18323TIP3    H276385   4.480   1.189  12.196  1.3596  1.1203 -0.4213
18324TIP3   OH276386   6.398   4.060   6.013  0.0669 -0.6480  0.2025
18324TIP3    H176387   6.490   4.078   6.031 -0.0214  0.1728 -0.1403
18324TIP3    H276388   6.356   4.146   6.011 -0.6411 -0.9869 -0.0127
18325TIP3   OH276389   3.527   1.269   3.335  0.0038 -0.2644 -0.1956
18325TIP3    H176390   3.563   1.234   3.417  3.8858 -1.0051 -1.9944
18325TIP3    H276391   3.577   1.349   3.320 -0.4096 -0.3176 -1.9851
18326TIP3   OH276392   1.904   5.853  15.769  0.5435  0.2368  0.2366
18326TIP3    H176393   1.990   5.825  15.799  1.1099  1.6957  0.0474
18326TIP3    H276394   1.873   5.912  15.838  1.1271  2.2761 -1.1317
18327TIP3   OH276395   1.661   0.005   2.272  0.2971 -0.0432  0.1061
18327TIP3    H176396   1.586  -0.001   2.213 -0.3042  0.6551  0.7761
18327TIP3    H276397   1.685  -0.087   2.289  0.5417 -0.2585 -1.2639
18328TIP3   OH276398   3.216   0.069  14.354  0.0601  0.4393 -0.3307
18328TIP3    H176399   3.254   0.116  14.429 -0.8455  0.4779  0.1234
18328TIP3    H276400   3.187  -0.014  14.390 -3.0919  1.5937  0.1247
18329TIP3   OH276401   3.983   5.852   5.675  0.7466  0.0576  0.1377
18329TIP3    H176402   4.033   5.807   5.744 -0.9643 -0.7324  0.9185
18329TIP3    H276403   3.909   5.892   5.721 -0.5321 -0.6200 -1.2467
18330TIP3   OH276404   4.982   5.892   4.445 -0.2571  0.1359 -0.5390
18330TIP3    H176405   4.961   5.984   4.456  0.0741  0.0663  0.8937
18330TIP3    H276406   5.061   5.891   4.391 -0.2572  0.6917 -0.5538
18331TIP3   OH276407   0.659   5.108  15.078 -0.4205  0.1941 -0.3371
18331TIP3    H176408   0.661   5.030  15.133 -1.4403  0.7979  0.5900
18331TIP3    H276409   0.732   5.096  15.018  2.0039  0.3958  2.3575
18332TIP3   OH276410   2.334   3.386   3.122  0.2523 -0.3782  0.3874
18332TIP3    H176411   2.285   3.466   3.140 -0.2480 -0.9513  1.7399
18332TIP3    H276412   2.324   3.372   3.028 -2.0431 -0.3686  0.5767
18333TIP3   OH276413   2.462   6.717  16.832  0.5049  0.0062  0.1020
18333TIP3    H176414   2.470   6.781  16.903  1.0183  1.3431 -1.1145
18333TIP3    H276415   2.382   6.742  16.786  1.5215  0.7873 -1.3180
18334TIP3   OH276416   1.275   0.732   3.406  0.3559 -0.4439  0.0529
18334TIP3    H176417   1.353   0.780   3.434  0.1443  0.5273 -0.9750
18334TIP3    H276418   1.232   0.789   3.342 -2.5551  0.2157  2.3370
18335TIP3   OH276419   2.647   0.924   4.728 -0.1687  0.6659  0.4072
18335TIP3    H176420   2.705   0.925   4.805  0.6800 -1.0235 -0.1496
18335TIP3    H276421   2.706   0.933   4.653 -0.6147 -0.8080 -0.1576
18336TIP3   OH276422   6.005   2.967   5.959  0.6210  0.4427 -0.0800
18336TIP3    H176423   6.016   2.997   6.049  2.1612 -0.0424 -0.0805
18336TIP3    H276424   5.978   3.045   5.911 -1.2476  0.4854  0.9583
18337TIP3   OH276425   6.562   0.439   3.790 -0.4561 -0.3378  0.1091
18337TIP3    H176426   6.634   0.495   3.818  1.0542 -2.5359  0.8086
18337TIP3    H276427   6.497   0.448   3.860 -0.2355  0.4706  0.2283
18338TIP3   OH276428   3.259   3.652  13.093  0.2760  0.1858  0.3105
18338TIP3    H176429   3.323   3.609  13.037  1.1004 -1.3888  2.3423
18338TIP3    H276430   3.174   3.622  13.060  0.5914  0.9751 -1.3567
18339TIP3   OH276431   5.841   1.121   1.808  0.6911 -0.1431 -0.3041
18339TIP3    H176432   5.832   1.205   1.853 -3.3679  0.2132 -1.3881
18339TIP3    H276433   5.858   1.144   1.716  0.7437 -0.5377 -0.3977
18340TIP3   OH276434   5.773   1.795  14.654 -0.1114  0.5700  0.5812
18340TIP3    H176435   5.794   1.879  14.695  0.9078 -0.4840  2.3652
18340TIP3    H276436   5.772   1.813  14.560  2.9647  2.0068  0.6941
18341TIP3   OH276437   5.508   1.526   4.842 -0.0558 -0.3163  0.2587
18341TIP3    H176438   5.578   1.590   4.852  1.1215 -1.3912 -0.6897
18341TIP3    H276439   5.452   1.539   4.919  0.8270  0.9919  0.7106
18342TIP3   OH276440   0.821   1.927   1.021 -0.0846  0.0273  0.6220
18342TIP3    H176441   0.742   1.979   1.036  0.1260  0.9287 -1.1452
18342TIP3    H276442   0.892   1.991   1.018  0.1458 -0.2251 -1.9078
18343TIP3   OH276443   0.449   6.437  10.747 -0.0984  0.3576 -0.1760
18343TIP3    H176444   0.405   6.491  10.813 -0.6680 -0.4711  0.1254
18343TIP3    H276445   0.387   6.433  10.674 -0.8113 -1.3202  0.4918
18344TIP3   OH276446   6.474   3.460   2.615  0.1274  0.3668 -0.3605
18344TIP3    H176447   6.406   3.528   2.617  0.2639  0.5133  1.7670
18344TIP3    H276448   6.506   3.455   2.705 -0.2414 -2.8902 -0.2669
18345TIP3   OH276449   1.919   6.362   0.862 -0.1026  0.5041 -0.2030
18345TIP3    H176450   2.004   6.344   0.902 -0.1844 -0.8499 -0.5524
18345TIP3    H276451   1.932   6.442   0.812  0.4653  1.2823  1.1521
18346TIP3   OH276452   4.386   1.567  11.836 -0.4650 -0.4558 -0.2284
18346TIP3    H176453   4.328   1.496  11.867 -1.5742 -1.0362 -3.2582
18346TIP3    H276454   4.351   1.589  11.750  1.0913  2.4676 -0.2033
18347TIP3   OH276455   6.304   3.808   4.300 -0.0341 -0.0970  0.9144
18347TIP3    H176456   6.344   3.804   4.214  0.1593 -2.6414  1.0636
18347TIP3    H276457   6.305   3.901   4.323  1.1413  0.4612 -1.2264
18348TIP3   OH276458   4.182   1.273  15.112 -0.1110  0.3205 -1.1147
18348TIP3    H176459   4.139   1.203  15.160 -0.6877  1.7309  0.5392
18348TIP3    H276460   4.234   1.319  15.178 -2.5287  3.5757 -1.2533
18349TIP3   OH276461   2.497   5.695   5.051  0.1286  0.0635 -0.2726
18349TIP3    H176462   2.565   5.688   4.983 -1.0745  1.3298 -1.6904
18349TIP3    H276463   2.456   5.609   5.052  0.6177 -0.1853 -0.6448
18350TIP3   OH276464   2.998   5.825  15.027 -0.1107  0.2214 -0.4047
18350TIP3    H176465   2.949   5.836  14.945  0.2431 -2.8132 -1.1726
18350TIP3    H276466   2.951   5.878  15.091 -1.0494  1.8321 -2.3258
18351TIP3   OH276467   2.825   3.582   3.146  0.3538  0.3452  0.3461
18351TIP3    H176468   2.749   3.637   3.163  0.1505  1.3957 -3.1577
18351TIP3    H276469   2.789   3.493   3.142 -0.5074  0.6957 -0.0979
18352TIP3   OH276470   2.838   6.094  16.179  0.0215  0.5466 -0.0090
18352TIP3    H176471   2.837   6.165  16.244 -1.6767  0.3292  0.2601
18352TIP3    H276472   2.879   6.132  16.102  0.1443  1.4736  0.4961
18353TIP3   OH276473   3.649   3.599   5.093  0.1106  0.5225  0.1668
18353TIP3    H176474   3.701   3.669   5.052 -1.4542 -0.5446 -4.1548
18353TIP3    H276475   3.682   3.519   5.054 -1.6742 -0.6263  0.9160
18354TIP3   OH276476   4.130   6.112   5.296  0.0872  0.5366 -0.1905
18354TIP3    H176477   4.170   6.188   5.255 -0.9224  0.6032 -1.0874
18354TIP3    H276478   4.071   6.147   5.363  1.1622  0.4515  0.8402
18355TIP3   OH276479   0.744   0.858   5.245  0.4078 -0.1327 -0.2695
18355TIP3    H176480   0.765   0.951   5.250  1.1222 -0.3116  0.2093
18355TIP3    H276481   0.781   0.820   5.325 -1.3618 -0.5491  0.3885
18356TIP3   OH276482   4.097   1.365   4.382  0.4300  0.0812  0.3965
18356TIP3    H176483   4.128   1.336   4.296 -0.1630  0.9155 -0.1196
18356TIP3    H276484   4.163   1.334   4.443  2.6218  2.2444 -0.6982
18357TIP3   OH276485   0.221   1.427   5.642  0.2404  0.5037  0.0348
18357TIP3    H176486   0.181   1.468   5.718  1.1610  1.7063 -0.1032
18357TIP3    H276487   0.225   1.497   5.576  1.4858  0.1054 -0.3471
18358TIP3   OH276488   6.118   4.604  13.954  0.2021 -0.2435  0.3166
18358TIP3    H176489   6.199   4.560  13.929 -0.8743 -1.8302 -0.5728
18358TIP3    H276490   6.080   4.633  13.871 -0.4290 -0.0628  0.6642
18359TIP3   OH276491   2.944   1.667  11.947  0.3275 -0.5465 -0.1853
18359TIP3    H176492   2.969   1.613  11.872 -1.4250  1.2146 -2.1991
18359TIP3    H276493   2.926   1.753  11.909  0.5241  0.7781  2.4813
18360TIP3   OH276494   6.164   1.078  13.356 -0.8090 -0.5428 -0.3801
18360TIP3    H176495   6.113   1.033  13.288  1.5450 -3.1913 -0.5639
18360TIP3    H276496   6.243   1.109  13.311 -0.6490  0.4801  0.5527
18361TIP3   OH276497   4.121   3.756  12.798  0.2807  0.4483 -0.3191
18361TIP3    H176498   4.131   3.671  12.756 -1.5148  0.0772 -0.0872
18361TIP3    H276499   4.180   3.753  12.873  0.8409 -0.2807 -0.7815
18362TIP3   OH276500   5.622   5.812   5.826 -0.2513  0.5157  0.4791
18362TIP3    H176501   5.661   5.767   5.901 -0.9677 -1.4941 -0.2723
18362TIP3    H276502   5.684   5.881   5.805  0.5543  0.3744  2.1698
18363TIP3   OH276503   4.569   1.396  10.177 -0.6599 -0.3267 -0.0242
18363TIP3    H176504   4.523   1.472  10.141  0.3797 -0.3107 -1.3657
18363TIP3    H276505   4.542   1.323  10.121  1.1061 -0.2746 -1.0010
18364TIP3   OH276506   5.702   4.315  10.967 -0.1982  0.2077 -0.2040
18364TIP3    H176507   5.627   4.284  10.915  0.6462  1.3287 -2.2055
18364TIP3    H276508   5.761   4.240  10.970 -0.5842 -0.1032 -0.2521
18365TIP3   OH276509   2.736   1.988   4.100 -0.3374  0.0196  0.1152
18365TIP3    H176510   2.731   2.059   4.036  1.1006  0.5377  0.5326
18365TIP3    H276511   2.698   2.025   4.179 -0.0719  0.1455  0.1843
18366TIP3   OH276512   6.721   0.216  15.600 -0.3420 -0.0754 -0.3181
18366TIP3    H176513   6.745   0.182  15.514 -0.5828  0.6737 -0.6829
18366TIP3    H276514   6.637   0.175  15.619 -0.1600 -0.4544 -0.3125
18367TIP3   OH276515   4.797   0.573  16.871  0.3251  0.0951  0.8517
18367TIP3    H176516   4.795   0.482  16.901 -0.1422  0.0190  0.6041
18367TIP3    H276517   4.857   0.571  16.796 -2.1473 -0.6980 -1.2501
18368TIP3   OH276518   0.382   4.755   2.487  0.0395 -0.3376  0.3199
18368TIP3    H176519   0.410   4.752   2.578  1.3572 -1.3652 -0.0735
18368TIP3    H276520   0.353   4.666   2.468 -1.0031  0.0682 -0.0543
18369TIP3   OH276521   1.080   4.320  14.605 -0.0608  0.7290 -0.2827
18369TIP3    H176522   1.107   4.396  14.656 -1.9180  1.1648  0.1133
18369TIP3    H276523   1.005   4.284  14.653  0.5735 -1.1916 -0.6262
18370TIP3   OH276524   4.489   4.633   5.765 -0.2784  1.1137  0.3042
18370TIP3    H176525   4.510   4.541   5.752  0.2642  1.3063 -0.2138
18370TIP3    H276526   4.396   4.633   5.791 -0.8087  0.5452 -1.4568
18371TIP3   OH276527   5.251   0.630   4.556 -0.2180 -0.0030  0.0315
18371TIP3    H176528   5.164   0.659   4.529 -0.8835  0.0828  2.1389
18371TIP3    H276529   5.302   0.711   4.562 -1.3673  0.6430  3.3714
18372TIP3   OH276530   4.677   0.163  15.372  0.3290  0.0189 -0.2401
18372TIP3    H176531   4.688   0.240  15.316  0.0553  0.8916  0.8763
18372TIP3    H276532   4.643   0.096  15.313  1.4790  0.4451 -1.4408
18373TIP3   OH276533   1.362   2.931   5.579 -0.3449 -0.0973  0.2426
18373TIP3    H176534   1.391   2.981   5.503  0.5598 -0.1999  0.5159
18373TIP3    H276535   1.294   2.985   5.619  1.3502  1.4655  1.1552
18374TIP3   OH276536   3.931   6.476  10.714  0.5935 -0.7428  0.4367
18374TIP3    H176537   3.880   6.398  10.693  0.4191 -0.0614 -1.9706
18374TIP3    H276538   4.020   6.455  10.687  0.3441  0.2101 -1.2559
18375TIP3   OH276539   4.423   2.555  17.066 -0.5546  0.0361  0.1326
18375TIP3    H176540   4.500   2.611  17.075  0.0591 -0.5967 -0.8964
18375TIP3    H276541   4.439   2.482  17.125 -0.1752 -0.2702 -0.3324
18376TIP3   OH276542   0.746   1.959  14.871  0.1306 -0.3336 -0.1830
18376TIP3    H176543   0.671   1.927  14.921 -1.7344  2.6007 -0.8371
18376TIP3    H276544   0.716   1.957  14.780  1.9710 -1.7908 -0.8010
18377TIP3   OH276545   2.127   1.931   1.401 -0.8895  0.3240  0.2190
18377TIP3    H176546   2.110   1.839   1.422 -0.7109  0.1988 -0.1732
18377TIP3    H276547   2.223   1.938   1.399 -0.9033  0.4407 -0.0849
18378TIP3   OH276548   0.992   1.530   5.148 -0.2240 -0.1567 -0.2689
18378TIP3    H176549   1.055   1.584   5.102  1.7467 -2.7209 -0.8270
18378TIP3    H276550   0.913   1.584   5.154  1.3317  2.4179 -1.3944
18379TIP3   OH276551   3.079   2.117   2.100  0.6689 -0.2916 -0.0649
18379TIP3    H176552   3.023   2.094   2.026  0.4318  0.2716 -0.0681
18379TIP3    H276553   3.034   2.190   2.143  1.7219  0.6222 -0.4563
18380TIP3   OH276554   4.124   6.399  15.037 -0.0398 -0.0066 -0.0210
18380TIP3    H176555   4.158   6.400  14.948 -0.9270 -1.0640 -0.3938
18380TIP3    H276556   4.156   6.315  15.073  0.3361  0.4251  0.6724
18381TIP3   OH276557   2.271   5.117  13.283  0.5362 -0.1589 -0.2283
18381TIP3    H176558   2.335   5.045  13.281 -0.2033 -0.8215 -0.8830
18381TIP3    H276559   2.323   5.196  13.282  1.3524 -0.6919 -0.6535
18382TIP3   OH276560   2.885   5.384  10.731 -0.2870  0.4353 -0.2927
18382TIP3    H176561   2.935   5.384  10.813 -0.9616  0.7033  0.1228
18382TIP3    H276562   2.811   5.325  10.749 -0.6056  0.7423 -0.6042
18383TIP3   OH276563   6.189   4.782  15.399  0.1020 -0.6443 -0.1813
18383TIP3    H176564   6.204   4.855  15.460 -0.5796 -1.1514  0.6124
18383TIP3    H276565   6.097   4.789  15.374 -0.0259 -1.3485  0.0646
18384TIP3   OH276566   0.911   3.053   0.907 -0.2264  0.5329 -0.4982
18384TIP3    H176567   0.876   2.986   0.966 -0.5874  0.7456 -0.4670
18384TIP3    H276568   0.887   3.136   0.947  0.1967  0.6847 -0.5523
18385TIP3   OH276569   6.396   6.661   1.584  0.4830  0.1224  0.2995
18385TIP3    H176570   6.389   6.716   1.506 -1.8120  0.6413  0.8018
18385TIP3    H276571   6.490   6.654   1.600  0.9175  2.0754 -1.0396
18386TIP3   OH276572   5.752   5.453  13.808  0.4470 -0.9543 -0.5333
18386TIP3    H176573   5.701   5.374  13.827  1.4537 -1.2820  0.9543
18386TIP3    H276574   5.729   5.514  13.878  1.8072 -0.9850 -0.0264
18387TIP3   OH276575   1.843   4.169  14.156  0.2957 -0.6469  0.0469
18387TIP3    H176576   1.753   4.173  14.188 -0.0426 -1.3005 -0.7713
18387TIP3    H276577   1.835   4.181  14.061  1.0630 -0.7896 -0.0426
18388TIP3   OH276578   3.900   3.712  11.498  0.0865  0.5850 -0.5420
18388TIP3    H176579   3.883   3.736  11.589  0.8182  1.3358 -0.5982
18388TIP3    H276580   3.874   3.788  11.447  1.6032  0.9753 -0.7864
18389TIP3   OH276581   0.341   6.588   1.297  0.1917 -0.2545 -0.0331
18389TIP3    H176582   0.256   6.561   1.262 -0.4121 -2.1404  2.6107
18389TIP3    H276583   0.404   6.529   1.256 -0.6154 -3.0997  2.5159
18390TIP3   OH276584   2.266   2.578   5.926  0.1328  0.2285 -0.1579
18390TIP3    H176585   2.300   2.581   5.837  3.3733 -1.2277  0.8473
18390TIP3    H276586   2.208   2.501   5.927 -0.4323  0.6315 -1.1268
18391TIP3   OH276587   3.749   2.745  12.170  0.1155 -0.1776  0.2665
18391TIP3    H176588   3.710   2.798  12.100  1.9008  1.5855  0.5204
18391TIP3    H276589   3.758   2.806  12.244  3.8018 -0.2122  0.0226
18392TIP3   OH276590   4.298   6.257  16.996  0.1032 -0.1280 -0.3758
18392TIP3    H176591   4.331   6.196  17.062 -2.9232  0.2374  1.6913
18392TIP3    H276592   4.269   6.201  16.924  0.2646 -0.8520  0.1144
18393TIP3   OH276593   6.111   4.804  10.976 -0.2162  0.2553  0.2825
18393TIP3    H176594   6.067   4.753  10.909 -0.2707 -1.3621  1.4806
18393TIP3    H276595   6.101   4.752  11.056  0.0381  1.9928  1.5019
18394TIP3   OH276596   0.401   4.165  16.261  0.6921  0.4188 -0.2398
18394TIP3    H176597   0.414   4.102  16.190 -0.1192  1.0539 -0.9557
18394TIP3    H276598   0.373   4.111  16.335  1.0988 -0.1924 -0.5156
18395TIP3   OH276599   1.747   6.622  14.609 -0.5917  0.0180  0.5252
18395TIP3    H176600   1.699   6.638  14.690 -0.9969  0.7513  0.1454
18395TIP3    H276601   1.838   6.645  14.630 -0.9786  1.8462  0.3029
18396TIP3   OH276602   2.885   0.283   4.197  0.0750  0.3714 -0.0297
18396TIP3    H176603   2.837   0.326   4.267  1.2768 -0.0642  1.1148
18396TIP3    H276604   2.832   0.207   4.174 -1.3739  1.6514 -1.1088
18397TIP3   OH276605   1.187   0.652   0.739  0.1826 -0.7717 -0.4937
18397TIP3    H176606   1.101   0.660   0.780  0.9485 -1.3770  1.3685
18397TIP3    H276607   1.227   0.738   0.749  1.0480 -1.3585  1.8148
18398TIP3   OH276608   4.123   3.631   2.134  0.2821 -0.1410  1.1656
18398TIP3    H176609   4.165   3.699   2.081 -0.6115 -0.4400  0.0324
18398TIP3    H276610   4.031   3.635   2.108  0.6713 -4.2369 -1.8442
18399TIP3   OH276611   4.165   4.430  17.087 -0.6821  0.2171 -0.1285
18399TIP3    H176612   4.148   4.496  17.153  0.6774  0.7292 -0.2615
18399TIP3    H276613   4.254   4.398  17.106 -1.3579 -1.6903  0.0284
18400TIP3   OH276614   6.398   5.817  11.302  0.5094 -0.4551  0.3417
18400TIP3    H176615   6.446   5.899  11.309 -0.2965  0.0880 -0.2335
18400TIP3    H276616   6.438   5.760  11.367 -0.2324  1.0483  2.2212
18401TIP3   OH276617   3.271   5.869  12.841  0.4547  0.4678 -0.1137
18401TIP3    H176618   3.304   5.954  12.870  0.6205 -0.0224  1.2332
18401TIP3    H276619   3.248   5.824  12.922  1.0059 -1.0382 -0.7573
18402TIP3   OH276620   5.354   5.110  12.004  0.4085  0.0861 -0.1133
18402TIP3    H176621   5.354   5.173  12.077 -0.5123  0.7988 -0.7162
18402TIP3    H276622   5.262   5.098  11.982  0.5095 -2.0188  0.4216
18403TIP3   OH276623   0.350   0.861  12.822 -0.3096 -0.4791  0.1377
18403TIP3    H176624   0.319   0.870  12.732  0.8502  1.8438 -0.0974
18403TIP3    H276625   0.303   0.784  12.856 -1.8657 -0.5436 -1.9639
18404TIP3   OH276626   2.549   5.420   3.059  0.1906 -0.1412  0.1302
18404TIP3    H176627   2.521   5.506   3.029 -0.4444 -0.8637 -1.4755
18404TIP3    H276628   2.501   5.407   3.141  1.4196  1.6012  1.1867
18405TIP3   OH276629   2.567   3.735   1.267 -0.7781  0.1105 -0.1242
18405TIP3    H176630   2.488   3.681   1.261 -0.7942  0.1312 -0.1009
18405TIP3    H276631   2.636   3.674   1.293 -1.1504  0.4137  1.7209
18406TIP3   OH276632   1.181   5.741   4.838 -0.1856 -0.5016  0.5311
18406TIP3    H176633   1.137   5.692   4.769 -1.9833  0.6402  0.8111
18406TIP3    H276634   1.224   5.813   4.792 -0.1085 -0.5948  0.4554
18407TIP3   OH276635   2.554   0.752  13.636  0.1741  0.3732 -0.0019
18407TIP3    H176636   2.572   0.686  13.703  0.2834 -0.8843 -1.2257
18407TIP3    H276637   2.560   0.705  13.553 -0.2890  1.8121 -0.8986
18408TIP3   OH276638   6.658   3.748   3.241  0.2181 -0.3829 -0.3711
18408TIP3    H176639   6.661   3.814   3.310  1.1038 -0.0858 -0.6764
18408TIP3    H276640   6.706   3.674   3.277 -2.3806 -1.6585  0.7266
18409TIP3   OH276641   1.544   1.368   1.358  0.0372  0.0909  0.1250
18409TIP3    H176642   1.559   1.425   1.433 -0.1848  0.3023  0.0061
18409TIP3    H276643   1.602   1.402   1.290  0.7933 -0.5492  0.4317
18410TIP3   OH276644   4.595   6.271   2.099 -0.4871 -0.1106  0.2879
18410TIP3    H176645   4.690   6.284   2.102 -0.4479 -0.2140 -0.3384
18410TIP3    H276646   4.566   6.285   2.189  0.0603  0.3804  0.3945
18411TIP3   OH276647   2.377   2.928   0.543  0.9238  0.1858  0.3329
18411TIP3    H176648   2.327   2.848   0.528  0.5688  0.1388  1.6784
18411TIP3    H276649   2.318   2.998   0.513  0.8195  0.0114  0.1253
18412TIP3   OH276650   1.243   4.503  16.206  0.5630 -0.2919  0.3090
18412TIP3    H176651   1.333   4.473  16.190  0.5345 -0.6616  0.8165
18412TIP3    H276652   1.215   4.455  16.284  0.3560  0.7451  0.8886
18413TIP3   OH276653   1.782   5.790  15.239 -0.7926  0.5749 -0.2225
18413TIP3    H176654   1.770   5.695  15.250  0.3889  0.4798  0.3047
18413TIP3    H276655   1.693   5.823  15.225 -1.4378 -0.3727  1.3802
18414TIP3   OH276656   2.794   6.494  13.741  0.1692 -0.4185  0.0174
18414TIP3    H176657   2.880   6.460  13.766 -0.0152  1.3977  3.9144
18414TIP3    H276658   2.812   6.580  13.702  0.1633 -0.2220  0.4420
18415TIP3   OH276659   0.993   0.596  15.424 -0.2723  0.0451 -0.1496
18415TIP3    H176660   1.031   0.534  15.486 -0.6988  0.3609  0.4361
18415TIP3    H276661   0.983   0.545  15.343  2.0343  0.1502 -0.5593
18416TIP3   OH276662   3.655   4.215   3.917  0.0913  1.2052  0.0978
18416TIP3    H176663   3.679   4.251   3.831  3.0434 -1.8948 -0.6301
18416TIP3    H276664   3.735   4.224   3.969 -0.7683  0.5396  1.5822
18417TIP3   OH276665   1.109   1.918  11.152 -0.0335 -0.3077  0.3767
18417TIP3    H176666   1.134   1.840  11.201 -1.8416 -0.5488  1.0093
18417TIP3    H276667   1.134   1.899  11.062 -0.2437 -1.5386  0.5537
18418TIP3   OH276668   6.197   3.808  16.301  0.4437 -0.4622 -0.3528
18418TIP3    H176669   6.212   3.749  16.375 -0.0708  0.7896  0.7671
18418TIP3    H276670   6.159   3.752  16.233  1.4759 -1.7491  0.0897
18419TIP3   OH276671   0.098   3.863  13.892 -0.1873 -0.6471 -0.0619
18419TIP3    H176672   0.149   3.803  13.839 -2.1118 -1.0930 -1.5160
18419TIP3    H276673   0.042   3.806  13.946  0.7727 -0.1761  1.5086
18420TIP3   OH276674   2.269   5.936   4.477  0.1259 -0.0436  0.2055
18420TIP3    H176675   2.211   5.947   4.553 -0.2311 -2.0341  0.2788
18420TIP3    H276676   2.213   5.953   4.401  0.0141  0.2029  0.3440
18421TIP3   OH276677   5.606   2.230   1.116  0.9558  0.1532  0.6929
18421TIP3    H176678   5.646   2.296   1.173 -0.2014  0.4947  1.1375
18421TIP3    H276679   5.519   2.265   1.096  1.2613 -0.0446 -1.1618
18422TIP3   OH276680   4.930   2.781  12.139 -0.4214  0.1150 -0.2926
18422TIP3    H176681   4.853   2.725  12.129  0.1682 -0.9539  0.9717
18422TIP3    H276682   4.946   2.783  12.233  0.1290  1.6837 -0.4003
18423TIP3   OH276683   3.591   2.823   3.054 -0.0939  0.0068  0.0132
18423TIP3    H176684   3.565   2.899   3.106  0.0094 -0.0900  0.2051
18423TIP3    H276685   3.520   2.812   2.990 -0.1761  0.1789  0.0739
18424TIP3   OH276686   3.774   6.534   1.667 -0.0292 -0.8507  0.1465
18424TIP3    H176687   3.716   6.584   1.610 -1.1590 -1.3711  0.8013
18424TIP3    H276688   3.800   6.459   1.615  0.1123 -0.5792 -0.1775
18425TIP3   OH276689   0.633   0.331  15.291 -0.1210  0.0146 -0.8434
18425TIP3    H176690   0.684   0.380  15.356 -1.6659  0.6780 -0.0890
18425TIP3    H276691   0.663   0.240  15.301 -0.8786 -0.0641  1.4294
18426TIP3   OH276692   6.048   0.739   4.328 -0.3423 -0.3225  0.4933
18426TIP3    H176693   5.991   0.669   4.295  1.7726 -1.2056 -1.6008
18426TIP3    H276694   6.117   0.746   4.262  2.0289  0.6434  2.9343
18427TIP3   OH276695   1.546   1.689  12.949 -0.6789  0.5447 -0.3693
18427TIP3    H176696   1.592   1.701  12.866  0.6580  0.0270  0.2676
18427TIP3    H276697   1.521   1.778  12.974 -0.2482  0.8174 -0.8650
18428TIP3   OH276698   0.572   6.781  11.368 -0.2517 -0.1612  0.2972
18428TIP3    H176699   0.544   6.774  11.277 -1.0887  0.6843  0.4710
18428TIP3    H276700   0.566   6.692  11.402  0.4351 -0.5543 -0.5682
18429TIP3   OH276701   2.574   6.700  13.147 -0.3026 -0.5583 -0.4695
18429TIP3    H176702   2.497   6.711  13.092 -0.0359 -0.5903 -0.8502
18429TIP3    H276703   2.635   6.767  13.118 -0.1494 -0.5907 -0.2300
18430TIP3   OH276704   1.488   3.649  16.350 -0.8163 -0.5424  0.2751
18430TIP3    H176705   1.420   3.715  16.344 -1.7930 -1.6153 -1.6781
18430TIP3    H276706   1.442   3.570  16.379 -0.3746 -1.1839 -0.7038
18431TIP3   OH276707   2.562   6.672  15.089 -0.1230 -0.4741  0.3423
18431TIP3    H176708   2.508   6.593  15.095 -2.7488  1.1623 -0.3199
18431TIP3    H276709   2.505   6.742  15.121  1.4456  1.4602 -0.9036
18432TIP3   OH276710   4.977   3.549  15.899  0.0434  0.4239 -0.2509
18432TIP3    H176711   4.977   3.592  15.813  1.4724 -2.6643 -1.9765
18432TIP3    H276712   5.032   3.604  15.954  1.6640  0.9512 -2.2861
18433TIP3   OH276713   4.954   0.124  12.003 -0.0950 -0.2215  0.2437
18433TIP3    H176714   5.002   0.157  12.079 -0.6274 -0.2932  0.6184
18433TIP3    H276715   4.900   0.198  11.975  0.4252 -0.0590 -0.3374
18434TIP3   OH276716   4.098   5.989   0.653  0.7715 -0.3995  0.5717
18434TIP3    H176717   4.157   6.042   0.599 -0.0942  1.8251  1.6979
18434TIP3    H276718   4.146   5.977   0.735  0.9002 -1.2814  0.3757
18435TIP3   OH276719   6.402   5.688   1.720 -0.1029 -0.0853  0.4513
18435TIP3    H176720   6.337   5.758   1.717  0.3502  0.3081 -0.8664
18435TIP3    H276721   6.428   5.675   1.628 -0.1660 -1.9745  0.6570
18436TIP3   OH276722   3.135   1.691  12.583 -0.2874 -0.1204 -0.0256
18436TIP3    H176723   3.181   1.607  12.591  0.5080  0.2187 -0.8391
18436TIP3    H276724   3.044   1.671  12.605  0.0771 -0.9875  0.7725
18437TIP3   OH276725   4.302   0.936   1.188  0.1131 -0.0304  0.0933
18437TIP3    H176726   4.215   0.959   1.156 -0.0164  0.7914  1.0103
18437TIP3    H276727   4.317   0.994   1.262  1.2143 -0.5549  0.3034
18438TIP3   OH276728   1.903   6.123  11.671 -0.0569 -0.5356 -0.7496
18438TIP3    H176729   1.844   6.053  11.641  1.6417 -1.8929 -1.0968
18438TIP3    H276730   1.966   6.078  11.727  3.1049 -0.0242 -3.5669
18439TIP3   OH276731   6.700   2.161  16.229  0.1422  1.0326  0.4397
18439TIP3    H176732   6.621   2.212  16.251 -0.4595  1.2943 -2.0723
18439TIP3    H276733   6.674   2.109  16.153  2.0258  0.0874  0.4004
18440TIP3   OH276734   4.918   6.093  13.687  0.1216  0.4187 -0.1842
18440TIP3    H176735   4.841   6.133  13.646 -0.0227  0.6510  0.3111
18440TIP3    H276736   4.881   6.036  13.755  0.2101 -1.7686 -1.8238
18441TIP3   OH276737   5.732   0.258   2.080 -0.3593  0.3424  0.0145
18441TIP3    H176738   5.671   0.301   2.020 -2.0893 -0.7885  0.8648
18441TIP3    H276739   5.744   0.321   2.151 -0.7295  0.4921 -0.0521
18442TIP3   OH276740   5.554   2.928   0.767  0.3322 -0.0603 -0.5042
18442TIP3    H176741   5.579   2.927   0.859 -1.1039 -0.3082 -0.0833
18442TIP3    H276742   5.587   2.845   0.732  1.8150  0.5032 -0.5061
18443TIP3   OH276743   3.416   0.670   0.973  0.3994 -0.3889  0.2707
18443TIP3    H176744   3.388   0.687   0.882 -0.1407  0.6158  0.6043
18443TIP3    H276745   3.344   0.704   1.026  1.9025  1.6213  1.1600
18444TIP3   OH276746   4.252   6.189   6.341 -0.7683  0.1259  0.0399
18444TIP3    H176747   4.309   6.220   6.411  1.6026 -0.3950 -1.5619
18444TIP3    H276748   4.222   6.103   6.371 -0.6735  0.3724  0.8710
18445TIP3   OH276749   4.203   1.072  12.079 -0.5047  0.1666 -0.5142
18445TIP3    H176750   4.241   1.014  12.012 -0.3212  1.6136 -1.7212
18445TIP3    H276751   4.276   1.126  12.108 -0.7659  0.1019  0.2964
18446TIP3   OH276752   5.700   4.704   2.529 -0.9044 -0.0601 -0.0245
18446TIP3    H176753   5.661   4.755   2.458 -0.0698  0.5371 -0.0707
18446TIP3    H276754   5.794   4.704   2.509 -0.7642 -0.6144  0.6224
18447TIP3   OH276755   2.440   4.310  15.824 -0.5831 -0.5392 -0.0851
18447TIP3    H176756   2.467   4.401  15.821  1.8263 -1.2235 -0.7872
18447TIP3    H276757   2.403   4.293  15.738 -0.7140 -0.3473 -0.0690
18448TIP3   OH276758   6.575   2.877   0.346  0.3330 -0.1357  0.3280
18448TIP3    H176759   6.517   2.873   0.270  0.4889  1.1758  0.1137
18448TIP3    H276760   6.519   2.855   0.420  0.0940 -1.0800 -0.1177
18449TIP3   OH276761   1.393   0.726   4.716 -0.2454  0.0814 -0.1884
18449TIP3    H176762   1.382   0.775   4.797 -1.2776  1.1529 -0.9480
18449TIP3    H276763   1.395   0.792   4.647  1.5497 -0.7391 -0.9870
18450TIP3   OH276764   0.605   3.456  15.952  0.6393 -0.1323 -0.4366
18450TIP3    H176765   0.676   3.469  15.890  0.9639 -2.0559 -0.5129
18450TIP3    H276766   0.631   3.380  16.004 -1.1225 -0.5997 -0.1415
18451TIP3   OH276767   2.230   0.716   1.733  0.2173 -0.0795 -0.2452
18451TIP3    H176768   2.298   0.776   1.701 -0.3412  1.4024  1.2251
18451TIP3    H276769   2.151   0.770   1.738 -0.5866 -1.2473  0.0171
18452TIP3   OH276770   4.576   0.700  12.407  0.0227 -0.3174  0.2038
18452TIP3    H176771   4.564   0.768  12.474  1.3608 -0.6051  0.7529
18452TIP3    H276772   4.669   0.703  12.385 -0.3077 -0.4954 -1.3837
18453TIP3   OH276773   0.990   2.872  14.578 -0.4261 -0.1661  0.2253
18453TIP3    H176774   1.024   2.936  14.516  0.7596 -0.5800  0.4014
18453TIP3    H276775   0.906   2.907  14.607  0.6555  1.8252  1.1085
18454TIP3   OH276776   2.952   4.119   4.892 -0.2916  0.0127  0.4498
18454TIP3    H176777   2.912   4.094   4.975  1.1456 -1.3730  0.7848
18454TIP3    H276778   3.030   4.063   4.886  1.3162  2.2297 -0.3849
18455TIP3   OH276779   6.584   3.445  14.001  0.0622 -0.2174  0.0073
18455TIP3    H176780   6.631   3.362  13.989  2.2742  1.1638 -1.7048
18455TIP3    H276781   6.521   3.448  13.929  0.8061  0.0628 -0.6535
18456TIP3   OH276782   1.952   1.123  11.222  0.1524  0.0034  0.1456
18456TIP3    H176783   1.906   1.039  11.220  1.3238 -0.7042  0.7928
18456TIP3    H276784   1.972   1.142  11.131 -0.1092 -0.4456 -0.0093
18457TIP3   OH276785   6.316   0.205  14.894 -0.0924  0.5786  0.2167
18457TIP3    H176786   6.315   0.167  14.806 -1.9034  0.3639  0.3007
18457TIP3    H276787   6.241   0.264  14.895 -0.7543 -0.2512  1.9620
18458TIP3   OH276788   0.794   3.859   1.130 -0.8080 -0.3353 -0.1757
18458TIP3    H176789   0.853   3.798   1.175 -0.0418  0.1163 -0.5414
18458TIP3    H276790   0.849   3.900   1.063 -1.6881 -0.3076 -0.8991
18459TIP3   OH276791   3.058   0.768  13.157 -0.1611  0.4911  0.0697
18459TIP3    H176792   2.963   0.770  13.172  0.2687  0.8372  3.2882
18459TIP3    H276793   3.090   0.849  13.196  1.5641  0.0424 -0.3407
18460TIP3   OH276794   6.190   3.181  16.417 -0.1122 -0.0293  0.0326
18460TIP3    H176795   6.242   3.105  16.442  0.6443 -0.4303 -2.4083
18460TIP3    H276796   6.253   3.254  16.418 -0.0347 -0.0766 -0.7226
18461TIP3   OH276797   2.618   1.698   1.695 -0.0653  0.3160 -0.1680
18461TIP3    H176798   2.653   1.766   1.752 -1.7351  1.1124 -0.0211
18461TIP3    H276799   2.600   1.743   1.613  1.6853 -0.6755 -1.1544
18462TIP3   OH276800   4.563   5.863   2.923 -0.4523  0.7887  0.1935
18462TIP3    H176801   4.651   5.830   2.943 -0.6370 -0.5920 -1.1349
18462TIP3    H276802   4.505   5.790   2.945 -1.1862  1.3400  0.1144
18463TIP3   OH276803   3.494   0.124  14.825  0.3371 -0.3368 -0.6044
18463TIP3    H176804   3.559   0.194  14.840 -0.9393  0.6321  0.7206
18463TIP3    H276805   3.543   0.043  14.836  1.6668  0.3453 -1.2580
18464TIP3   OH276806   5.574   0.564   2.170  0.2184 -0.3061  0.3279
18464TIP3    H176807   5.588   0.636   2.108  0.2822 -0.8165 -0.2591
18464TIP3    H276808   5.487   0.530   2.147  0.4485 -0.8103  0.1981
18465TIP3   OH276809   0.477   6.133  16.575  0.3874  0.2951  0.1229
18465TIP3    H176810   0.395   6.181  16.588  0.1603 -0.0207 -0.1249
18465TIP3    H276811   0.543   6.187  16.619 -0.4279 -1.1047  3.3372
18466TIP3   OH276812   6.179   3.040   4.035  0.4304 -0.1176 -0.3307
18466TIP3    H176813   6.228   3.079   3.963  0.6292  1.0372  0.4111
18466TIP3    H276814   6.107   2.994   3.993 -0.8945  2.5537 -1.1908
18467TIP3   OH276815   3.459   1.420   5.551  0.1523 -0.0393  0.1386
18467TIP3    H176816   3.485   1.498   5.600  2.1624 -0.9237  0.5783
18467TIP3    H276817   3.364   1.415   5.562 -0.0840  2.5374 -0.2379
18468TIP3   OH276818   2.515   0.340   0.281  0.4725 -0.3401  0.0794
18468TIP3    H176819   2.448   0.369   0.219  1.4942  0.2868 -0.7674
18468TIP3    H276820   2.469   0.281   0.340 -0.7427 -0.2150 -0.7047
18469TIP3   OH276821   2.155   1.225   0.147 -0.1492 -0.4196 -0.2311
18469TIP3    H176822   2.113   1.203   0.064 -1.1392  1.5112 -0.2884
18469TIP3    H276823   2.086   1.212   0.212 -0.4475  1.2927 -0.1500
18470TIP3   OH276824   3.952   2.281   2.614  0.3386  0.1054 -0.0009
18470TIP3    H176825   3.857   2.270   2.609  0.3825 -0.4109  0.2028
18470TIP3    H276826   3.964   2.372   2.640 -0.1374 -0.2312  1.4817
18471TIP3   OH276827   0.920   1.428  11.454 -0.5861 -0.1076  0.0418
18471TIP3    H176828   1.015   1.419  11.450 -0.3932  1.7175 -0.4015
18471TIP3    H276829   0.904   1.476  11.535 -0.9352  1.2664 -0.8009
18472TIP3   OH276830   6.201   3.162  11.320 -0.1280 -0.5344  0.2737
18472TIP3    H176831   6.135   3.178  11.253  0.3255 -1.4735 -0.4100
18472TIP3    H276832   6.247   3.246  11.330 -0.5432 -0.2506 -0.2091
18473TIP3   OH276833   2.160   1.008  15.208  0.9199  0.0770  0.2857
18473TIP3    H176834   2.102   0.939  15.176 -0.4188  0.7746  1.1006
18473TIP3    H276835   2.242   0.964  15.227 -0.1356 -1.4655  1.5673
18474TIP3   OH276836   1.666   0.877  16.844 -0.1427 -0.3923 -0.1721
18474TIP3    H176837   1.600   0.873  16.775  0.5625  1.5963 -1.0426
18474TIP3    H276838   1.615   0.887  16.924 -0.9311 -0.5816 -0.6360
18475TIP3   OH276839   2.900   1.229  10.621  0.1363 -0.1837  0.0637
18475TIP3    H176840   2.921   1.312  10.665  0.1368  0.4854 -1.1776
18475TIP3    H276841   2.841   1.253  10.551 -1.1495 -1.4619  0.6591
18476TIP3   OH276842   4.689   4.579   4.367  0.1775  0.5587  0.4675
18476TIP3    H176843   4.596   4.600   4.364 -0.1061 -0.7360 -0.4809
18476TIP3    H276844   4.726   4.618   4.288  0.1295 -0.2632  0.0286
18477TIP3   OH276845   5.445   1.962   4.530 -0.4601 -0.2822  0.1717
18477TIP3    H176846   5.464   2.036   4.589 -0.9655  0.3497 -0.4408
18477TIP3    H276847   5.356   1.978   4.499 -0.7217 -1.3746  0.3398
18478TIP3   OH276848   3.249   4.362   2.990  0.2220 -0.4067  0.4192
18478TIP3    H176849   3.292   4.446   3.000 -3.2484  1.9335 -2.0899
18478TIP3    H276850   3.309   4.311   2.935  0.9713  1.7601 -0.9125
18479TIP3   OH276851   0.638   0.184   1.086  0.1877  0.6864 -0.1748
18479TIP3    H176852   0.558   0.236   1.096  0.7540  1.9111 -1.5748
18479TIP3    H276853   0.690   0.205   1.164 -1.2600 -0.9631  1.2972
18480TIP3   OH276854   4.484   3.388   0.118  0.2824  0.0717 -0.5032
18480TIP3    H176855   4.533   3.363   0.040  1.5498 -1.3690  0.7021
18480TIP3    H276856   4.544   3.372   0.191 -1.6756 -1.0124  0.9803
18481TIP3   OH276857   1.812   6.265   2.799  0.2521 -0.0204 -0.0264
18481TIP3    H176858   1.833   6.172   2.808  0.0921 -0.0410  0.1294
18481TIP3    H276859   1.721   6.272   2.826 -0.1809 -0.0551 -1.3950
18482TIP3   OH276860   3.393   0.115  17.030 -0.2674  0.3946 -0.3545
18482TIP3    H176861   3.372   0.021  17.032 -0.3722  0.3563 -2.0266
18482TIP3    H276862   3.475   0.120  16.982 -1.8690  1.3716 -3.1812
18483TIP3   OH276863   5.309   1.947   4.862  1.0778 -0.5332  0.1422
18483TIP3    H176864   5.387   1.905   4.899  2.4335  2.9479  1.5886
18483TIP3    H276865   5.336   1.973   4.774  1.0897 -0.5356  0.1449
18484TIP3   OH276866   0.312   2.456   1.996 -0.2192 -0.5977 -0.3372
18484TIP3    H176867   0.369   2.384   2.022 -0.5092 -0.4495  0.7344
18484TIP3    H276868   0.288   2.499   2.078  1.3865  1.8212 -1.0272
18485TIP3   OH276869   1.324   5.300   1.870  0.1804 -0.1213 -0.0546
18485TIP3    H176870   1.283   5.265   1.949  0.3095  1.0841  0.5714
18485TIP3    H276871   1.413   5.322   1.897  0.4188 -0.2617 -0.7040
18486TIP3   OH276872   2.247   1.004   0.979  0.5792  0.0544  0.5082
18486TIP3    H176873   2.184   1.002   1.051 -1.0957  1.8151 -0.7868
18486TIP3    H276874   2.211   0.943   0.914 -0.4849  1.8943 -0.7056
18487TIP3   OH276875   0.228   0.185   4.151  0.3906 -0.1214  0.0782
18487TIP3    H176876   0.309   0.191   4.100 -0.3579 -2.2781 -1.5037
18487TIP3    H276877   0.254   0.142   4.233  0.9411 -0.2623 -0.1686
18488TIP3   OH276878   5.929   2.865   4.226  0.2740 -0.0536 -0.1388
18488TIP3    H176879   5.982   2.925   4.278 -0.0264 -0.3603  0.5218
18488TIP3    H276880   5.912   2.913   4.145 -1.1658  1.3503  0.9296
18489TIP3   OH276881   4.221   3.009  12.799 -0.1328 -0.4659  0.1583
18489TIP3    H176882   4.190   2.920  12.788  1.8149 -1.3654  1.4205
18489TIP3    H276883   4.313   3.006  12.773  0.8242  0.4159  3.1202
18490TIP3   OH276884   4.558   5.980   1.528 -0.1466  0.1942 -0.0566
18490TIP3    H176885   4.649   5.988   1.501  0.9251 -0.9442  2.9016
18490TIP3    H276886   4.513   5.949   1.449  2.2906 -0.7774 -1.1594
18491TIP3   OH276887   4.362   1.123  14.897  0.1692  0.1245 -0.0396
18491TIP3    H176888   4.331   1.133  14.807  0.9479 -1.2665 -0.4837
18491TIP3    H276889   4.292   1.162  14.950 -0.3428  0.8944 -1.2243
18492TIP3   OH276890   6.421   0.146  11.275 -0.2074 -0.0993  0.0324
18492TIP3    H176891   6.346   0.166  11.331 -0.3425  0.4475 -0.3359
18492TIP3    H276892   6.465   0.231  11.263 -1.2147  0.1586 -2.1913
18493TIP3   OH276893   0.537   4.912  13.292 -0.2835 -0.4226  0.3479
18493TIP3    H176894   0.536   5.003  13.261 -0.6305 -0.2048  1.0057
18493TIP3    H276895   0.626   4.900  13.327  0.4292 -0.9431 -1.4915
18494TIP3   OH276896   3.096   5.383  14.436 -0.1172 -0.0437  0.3381
18494TIP3    H176897   3.066   5.293  14.439  1.9721 -0.8197 -0.3327
18494TIP3    H276898   3.189   5.378  14.458 -0.4346  2.2382  2.6209
18495TIP3   OH276899   0.878   4.394   3.433  0.1184  0.4508 -0.1502
18495TIP3    H176900   0.917   4.476   3.463 -0.5520  0.3422  1.0796
18495TIP3    H276901   0.784   4.409   3.438 -0.0468 -0.8633  1.5612
18496TIP3   OH276902   3.110   1.765  14.026 -0.4199 -0.6246 -0.3444
18496TIP3    H176903   3.188   1.817  14.009  0.7484 -2.2221 -0.1213
18496TIP3    H276904   3.038   1.817  13.991  0.6558  1.1971  0.0518
18497TIP3   OH276905   2.175   3.429   4.113 -0.5432  0.3343 -0.2325
18497TIP3    H176906   2.089   3.471   4.115 -0.9564 -0.4829 -0.6280
18497TIP3    H276907   2.164   3.353   4.056 -0.2533 -1.3113  1.7935
18498TIP3   OH276908   4.040   4.038  17.052 -0.2811  0.2788 -0.5053
18498TIP3    H176909   4.018   3.977  17.123  0.4032  1.3606  0.6721
18498TIP3    H276910   4.045   4.124  17.095  0.9961  0.8348 -1.6942
18499TIP3   OH276911   0.888   4.955  10.711  0.1355 -0.6500 -0.4150
18499TIP3    H176912   0.828   5.003  10.653 -0.1391 -0.6690 -0.1521
18499TIP3    H276913   0.932   4.892  10.653 -0.8004 -1.3004 -0.4562
18500TIP3   OH276914   5.733   5.797  15.444 -0.0320 -0.4322  0.7504
18500TIP3    H176915   5.750   5.729  15.509  0.3112 -0.5385  0.5558
18500TIP3    H276916   5.638   5.810  15.446 -0.1697 -1.2926  0.4233
18501TIP3   OH276917   5.954   2.423   0.302 -0.0493  0.3800  0.0893
18501TIP3    H176918   5.988   2.404   0.389  0.3258  0.2364 -0.0849
18501TIP3    H276919   5.982   2.513   0.284 -1.9763  1.2148  0.9857
18502TIP3   OH276920   6.288   3.459  15.299 -0.0748 -0.3990  0.3615
18502TIP3    H176921   6.242   3.504  15.228  0.7328  0.0881  0.1362
18502TIP3    H276922   6.314   3.375  15.262 -1.0929 -0.8430  0.6084
18503TIP3   OH276923   5.182   5.138  14.971  0.1314 -0.5210  0.6542
18503TIP3    H176924   5.242   5.063  14.970 -1.2882 -1.7047  0.8299
18503TIP3    H276925   5.096   5.099  14.959 -0.5424  1.2196 -0.4076
18504TIP3   OH276926   0.913   5.278  13.182 -0.4048  0.1580 -0.1818
18504TIP3    H176927   0.961   5.343  13.130  0.6492 -1.0094 -0.7432
18504TIP3    H276928   0.852   5.239  13.120 -1.1186  0.6716  0.1838
18505TIP3   OH276929   1.343   6.659   5.341  0.3086  0.3823  0.0878
18505TIP3    H176930   1.248   6.654   5.333  0.2332  1.0548  0.4367
18505TIP3    H276931   1.377   6.611   5.265 -0.3164  0.7685 -0.4473
18506TIP3   OH276932   4.872   1.956  15.989 -0.4305  0.1411 -0.6043
18506TIP3    H176933   4.829   2.039  16.008  0.2134  0.2483  0.4714
18506TIP3    H276934   4.801   1.892  15.985 -0.7925  0.4990  0.0086
18507TIP3   OH276935   1.687   0.353  13.438  0.0059 -0.6006  0.1014
18507TIP3    H176936   1.606   0.324  13.478 -0.8121  2.8392  1.3221
18507TIP3    H276937   1.755   0.333  13.503  0.0561 -2.5466 -0.4883
18508TIP3   OH276938   4.523   2.380   1.960 -0.0115 -0.3941 -1.0372
18508TIP3    H176939   4.571   2.387   2.042 -0.2745  0.5070 -0.9469
18508TIP3    H276940   4.490   2.290   1.958 -2.0689  0.2229  1.0269
18509TIP3   OH276941   6.457   5.811   4.520 -0.1380 -0.4495 -0.3248
18509TIP3    H176942   6.376   5.858   4.503 -0.1717 -0.3084  0.2132
18509TIP3    H276943   6.430   5.728   4.559 -0.0927 -1.0587 -1.5302
18510TIP3   OH276944   1.915   2.682  14.374 -0.7116 -0.0941  0.6393
18510TIP3    H176945   1.963   2.652  14.297  0.1469  0.7272  0.8335
18510TIP3    H276946   1.920   2.778  14.370  0.0433 -0.0334  2.1051
18511TIP3   OH276947   5.330   1.947   0.797 -0.1406  0.3408 -0.1030
18511TIP3    H176948   5.409   1.927   0.846 -0.3484 -0.8711 -0.2486
18511TIP3    H276949   5.307   1.866   0.752 -1.8850  0.4271  0.5335
18512TIP3   OH276950   2.247   2.955  11.556  0.4829 -0.0702 -0.1003
18512TIP3    H176951   2.237   2.958  11.651  1.6503 -0.9305  0.0646
18512TIP3    H276952   2.185   3.020  11.523 -0.2781 -0.1064  1.2192
18513TIP3   OH276953   4.610   1.440  13.587  0.3298 -0.4576  0.5580
18513TIP3    H176954   4.565   1.390  13.519 -0.2227 -1.3598  1.5576
18513TIP3    H276955   4.599   1.531  13.560  1.1270 -0.8265 -1.1565
18514TIP3   OH276956   1.348   0.707  11.350 -0.1109 -0.1248  0.1665
18514TIP3    H176957   1.336   0.801  11.366  0.2219 -0.1657  0.6970
18514TIP3    H276958   1.269   0.666  11.384 -0.5834  0.0288 -0.7431
18515TIP3   OH276959   2.051   4.434   3.194 -0.5018  0.3804  0.0783
18515TIP3    H176960   2.077   4.506   3.137  1.1341 -1.6633 -1.9506
18515TIP3    H276961   2.106   4.443   3.271 -0.0016  1.0300 -0.3460
18516TIP3   OH276962   5.969   1.229  15.511  0.0342  0.3788 -0.3964
18516TIP3    H176963   5.972   1.205  15.604 -3.7814  1.1863  0.1153
18516TIP3    H276964   5.941   1.149  15.467  0.9130  0.2564 -0.7551
18517TIP3   OH276965   3.634   6.184   5.452 -0.5132  0.0517  0.3749
18517TIP3    H176966   3.718   6.138   5.452 -1.1201 -1.2316 -2.1032
18517TIP3    H276967   3.641   6.245   5.378 -1.0759  1.3399  1.3629
18518TIP3   OH276968   5.388   2.635   1.758  0.2225  0.4078  0.4773
18518TIP3    H176969   5.335   2.706   1.793  1.2551  1.0712  0.7401
18518TIP3    H276970   5.328   2.561   1.753 -0.5523  0.9467  1.4057
18519TIP3   OH276971   6.564   0.301  12.696 -0.6442 -0.2908  0.1965
18519TIP3    H176972   6.610   0.218  12.684 -0.3278  0.0123 -0.7899
18519TIP3    H276973   6.507   0.286  12.771 -2.6304 -2.3195 -1.5709
18520TIP3   OH276974   2.735   1.120  16.247 -0.3959  0.2327  0.7708
18520TIP3    H176975   2.800   1.083  16.187 -2.0435 -1.4864 -0.0486
18520TIP3    H276976   2.786   1.147  16.323  1.3938 -0.1894 -0.2111
18521TIP3   OH276977   2.735   0.538  14.886 -0.1334 -0.2027 -0.2173
18521TIP3    H176978   2.748   0.507  14.797  1.1767  2.0303 -0.8865
18521TIP3    H276979   2.698   0.625  14.876  1.0690  0.5353  1.3687
18522TIP3   OH276980   0.213   4.159  11.999  0.3646 -0.2610 -0.1680
18522TIP3    H176981   0.254   4.225  12.054 -2.3875  0.4698  1.2039
18522TIP3    H276982   0.190   4.205  11.918 -0.6650  0.2517  0.3965
18523TIP3   OH276983   3.082   0.451  15.842  0.3166 -0.0091  0.2294
18523TIP3    H176984   3.113   0.479  15.756  0.1981 -0.3254  0.0817
18523TIP3    H276985   3.075   0.532  15.892  1.5727  0.0534  0.3400
18524TIP3   OH276986   5.514   4.245   2.107 -0.0881  0.0990 -0.2651
18524TIP3    H176987   5.608   4.244   2.092  0.5667  2.1391  2.9125
18524TIP3    H276988   5.477   4.278   2.025  1.8860 -0.6928 -1.5554
18525TIP3   OH276989   4.709   0.695  15.257  0.2226  0.4916  0.6693
18525TIP3    H176990   4.671   0.734  15.179  0.1075  0.9134  0.9334
18525TIP3    H276991   4.749   0.769  15.304 -0.1037  0.3169  1.2325
18526TIP3   OH276992   1.192   1.858  12.095 -0.3304  0.4754  0.6340
18526TIP3    H176993   1.190   1.862  12.000  0.6909  0.6673  0.6079
18526TIP3    H276994   1.112   1.903  12.123 -0.6345  0.4119 -0.1265
18527TIP3   OH276995   2.885   3.160  14.736  0.0958 -0.2735  0.5608
18527TIP3    H176996   2.809   3.119  14.695  0.6684 -0.1676 -0.6180
18527TIP3    H276997   2.961   3.121  14.692  0.6794  1.3265  0.0771
18528TIP3   OH276998   2.912   1.717  11.581  0.2567 -0.2405  0.0527
18528TIP3    H176999   2.934   1.743  11.491 -0.1360 -0.5066 -0.1238
18528TIP3    H277000   2.960   1.779  11.636  1.5175 -0.8743 -0.3099
18529TIP3   OH277001   5.783   3.381  11.398 -0.4337 -0.1418 -0.6163
18529TIP3    H177002   5.839   3.458  11.381 -0.7809  0.1371 -0.5027
18529TIP3    H277003   5.745   3.360  11.313  0.6238 -0.9582 -0.9133
18530TIP3   OH277004   0.403   6.256   4.396 -0.6564  0.1469  0.1847
18530TIP3    H177005   0.463   6.313   4.349 -1.7874  0.7813 -0.5518
18530TIP3    H277006   0.435   6.255   4.486  0.1985  0.7921 -0.1008
18531TIP3   OH277007   3.799   4.871   4.224  0.0562 -0.1770  0.2938
18531TIP3    H177008   3.817   4.962   4.202 -1.8832 -0.1203 -1.3943
18531TIP3    H277009   3.772   4.873   4.316 -2.6020  1.4606 -0.3908
18532TIP3   OH277010   6.212   5.159  13.567 -0.0132 -0.2215  0.1722
18532TIP3    H177011   6.271   5.177  13.494  1.3544  0.2242  1.3282
18532TIP3    H277012   6.192   5.245  13.604 -1.0406 -0.4071  0.0856
18533TIP3   OH277013   3.871   2.626  14.257  0.4394  0.0951 -0.1035
18533TIP3    H177014   3.807   2.558  14.279  2.6309 -1.4727  1.9241
18533TIP3    H277015   3.819   2.706  14.248 -2.0927 -1.5441 -1.3458
18534TIP3   OH277016   6.571   3.459   1.609 -0.2371  0.0678  1.1228
18534TIP3    H177017   6.536   3.544   1.581  1.6563  1.1636  1.8660
18534TIP3    H277018   6.619   3.426   1.533 -0.6066 -0.1251  0.9737
18535TIP3   OH277019   5.468   2.105   1.832  0.1541  0.1263 -0.0316
18535TIP3    H177020   5.558   2.076   1.844 -0.4244 -1.4496  0.8039
18535TIP3    H277021   5.435   2.054   1.758  0.5960  2.3954 -1.9145
18536TIP3   OH277022   6.046   6.569   3.846 -1.3006  0.3771 -0.6706
18536TIP3    H177023   6.005   6.642   3.891  0.0746  0.9359 -0.2741
18536TIP3    H277024   6.049   6.499   3.912 -3.4487 -0.4021 -1.3214
18537TIP3   OH277025   2.440   0.208   3.591 -0.0950 -0.0649 -0.2444
18537TIP3    H177026   2.378   0.228   3.660 -1.3584 -0.1143 -1.3227
18537TIP3    H277027   2.506   0.153   3.633 -0.3888  0.5620  1.0867
18538TIP3   OH277028   1.356   6.598  14.751 -0.0426  0.1157  0.3365
18538TIP3    H177029   1.348   6.509  14.786 -0.2055 -0.5023 -1.1698
18538TIP3    H277030   1.438   6.597  14.702 -1.1194  0.0604 -1.5841
18539TIP3   OH277031   5.756   3.226  12.873  0.2434 -0.1160 -0.3005
18539TIP3    H177032   5.669   3.206  12.905 -0.2089  1.5735 -0.3961
18539TIP3    H277033   5.814   3.169  12.924 -0.7654 -0.1074  0.8924
18540TIP3   OH277034   3.460   3.613   2.192 -0.0069 -0.0979  0.5870
18540TIP3    H177035   3.537   3.658   2.228 -0.5745  0.1344  1.5527
18540TIP3    H277036   3.423   3.676   2.130  0.6491 -0.2600  0.0290
18541TIP3   OH277037   0.204   3.177  13.082 -0.0128 -0.0990 -0.6431
18541TIP3    H177038   0.256   3.252  13.111  0.1936 -0.8281  1.0299
18541TIP3    H277039   0.126   3.179  13.138 -0.4737 -0.5711 -1.2515
18542TIP3   OH277040   3.502   2.614   2.071 -0.4623 -0.2901  0.5234
18542TIP3    H177041   3.554   2.681   2.027 -0.4448  0.0777  1.0972
18542TIP3    H277042   3.413   2.648   2.071 -0.4623 -0.2881  0.7688
18543TIP3   OH277043   1.481   5.413   4.797  0.0594 -0.0674 -0.3736
18543TIP3    H177044   1.393   5.402   4.834  0.2329 -2.0976 -0.4032
18543TIP3    H277045   1.466   5.449   4.710 -0.4987  2.5466  0.7002
18544TIP3   OH277046   5.720   0.523  15.500  0.4804  0.6520 -0.6269
18544TIP3    H177047   5.705   0.516  15.405  2.5344  1.9822 -1.1077
18544TIP3    H277048   5.668   0.451  15.537 -0.4975  0.1842 -2.7254
18545TIP3   OH277049   2.188   6.391  12.206  0.2564  0.2131  0.0875
18545TIP3    H177050   2.164   6.484  12.206 -0.6117  0.0881 -2.6623
18545TIP3    H277051   2.226   6.376  12.292 -1.3850  2.6351  1.3652
18546TIP3   OH277052   4.198   2.959  11.875  0.1286 -0.0538  0.1308
18546TIP3    H177053   4.134   2.890  11.891 -1.1916  1.2360  0.5905
18546TIP3    H277054   4.251   2.961  11.955  1.0820 -1.4389 -0.4370
18547TIP3   OH277055   5.973   3.149   3.513 -0.1455 -0.2670 -0.1886
18547TIP3    H177056   6.016   3.064   3.505 -0.6871 -0.5573  0.0142
18547TIP3    H277057   5.880   3.130   3.517 -0.3218  0.3808 -0.8906
18548TIP3   OH277058   0.315   2.145   4.658  0.1763  0.6583  0.0249
18548TIP3    H177059   0.368   2.107   4.587  0.1418 -0.7760  0.7342
18548TIP3    H277060   0.235   2.174   4.615 -0.3175 -1.1952 -0.3855
18549TIP3   OH277061   6.599   3.544   2.106 -0.2197  0.0042  0.1729
18549TIP3    H177062   6.684   3.544   2.150 -0.0607 -0.7035 -0.1234
18549TIP3    H277063   6.621   3.539   2.013 -0.5974 -2.1261  0.1539
18550TIP3   OH277064   3.141   6.213  15.655  0.2218  0.1771 -0.3239
18550TIP3    H177065   3.164   6.147  15.590  0.3492 -0.5153  0.3988
18550TIP3    H277066   3.206   6.283  15.644  0.2195  0.0771 -0.9528
18551TIP3   OH277067   3.994   5.151  15.964 -0.5240  0.2010  0.0188
18551TIP3    H177068   3.930   5.083  15.984  0.7408 -1.3212 -0.8418
18551TIP3    H277069   3.950   5.208  15.900 -0.8917 -1.0687 -0.8984
18552TIP3   OH277070   2.691   5.905   5.938  0.1472  0.0845  0.0056
18552TIP3    H177071   2.638   5.843   5.888  0.3398 -0.4976  0.5044
18552TIP3    H277072   2.779   5.866   5.937  0.0862 -0.1138  1.0716
18553TIP3   OH277073   5.677   2.628  12.126 -0.5454 -0.5664 -0.4388
18553TIP3    H177074   5.742   2.628  12.196 -1.8154  1.1431  0.8325
18553TIP3    H277075   5.662   2.720  12.106 -0.2407 -1.0070 -3.0121
18554TIP3   OH277076   3.676   6.273  11.463  0.1237 -0.0352  0.4219
18554TIP3    H177077   3.679   6.359  11.505 -2.1593  2.5387 -3.8551
18554TIP3    H277078   3.616   6.221  11.516 -2.2882  2.7986  0.7111
18555TIP3   OH277079   3.354   0.201  13.073  0.1728 -0.1549 -0.0964
18555TIP3    H177080   3.385   0.112  13.058  0.8461  0.3490 -2.0896
18555TIP3    H277081   3.260   0.198  13.054  0.0414 -0.5752  0.5877
18556TIP3   OH277082   5.238   2.129   2.020 -0.8588 -0.0746 -0.1080
18556TIP3    H177083   5.301   2.122   1.949 -2.5523 -1.9430 -1.5463
18556TIP3    H277084   5.203   2.218   2.013  0.9386  0.6936  0.1874
18557TIP3   OH277085   4.399   5.370  15.551 -0.1421 -1.2704 -0.4869
18557TIP3    H177086   4.387   5.276  15.564 -0.9349 -0.9031  1.8177
18557TIP3    H277087   4.476   5.391  15.603  0.3749 -0.7226 -1.4599
18558TIP3   OH277088   5.225   4.850  12.587 -0.0581  0.0782  0.4479
18558TIP3    H177089   5.199   4.940  12.568 -1.2577 -0.1922  0.6661
18558TIP3    H277090   5.250   4.813  12.503  0.8430  0.7368  0.4270
18559TIP3   OH277091   6.198   2.912   2.892  0.2472  0.3651 -0.6012
18559TIP3    H177092   6.194   2.989   2.949  0.5720  0.7860 -1.1267
18559TIP3    H277093   6.225   2.841   2.949  1.4877  0.9638 -0.4006
18560TIP3   OH277094   5.083   4.913  15.688 -0.1571 -0.2175  0.8061
18560TIP3    H177095   5.151   4.952  15.633  1.0609  0.2204  2.5245
18560TIP3    H277096   5.124   4.834  15.724 -0.4423  0.2151  2.1077
18561TIP3   OH277097   1.869   1.353  11.348  0.0936  0.1777 -0.3942
18561TIP3    H177098   1.911   1.279  11.304 -0.4239 -0.0970 -0.4336
18561TIP3    H277099   1.939   1.394  11.397  0.0550 -1.4305  1.1083
18562TIP3   OH277100   0.284   6.213   6.222  0.8770  0.0648  0.2147
18562TIP3    H177101   0.231   6.190   6.299  0.1820  0.1357 -0.2292
18562TIP3    H277102   0.294   6.308   6.228  1.3127 -0.0000  0.5238
18563TIP3   OH277103   5.098   2.910  14.130  0.1785  0.8657  0.6069
18563TIP3    H177104   5.094   2.829  14.080  0.1511  0.8305  0.6652
18563TIP3    H277105   5.187   2.913  14.166  0.8287  1.8350 -1.0058
18564TIP3   OH277106   6.423   1.656  11.937 -0.4954  0.4783 -0.4855
18564TIP3    H177107   6.415   1.726  12.002 -0.0720  0.4038 -0.3481
18564TIP3    H277108   6.335   1.619  11.930 -0.3764 -0.0544  0.6637
18565TIP3   OH277109   6.530   6.204  13.309  0.2121  0.4514  0.4061
18565TIP3    H177110   6.502   6.214  13.218 -0.5890  0.1679  0.6189
18565TIP3    H277111   6.487   6.125  13.339  0.9515  0.2107  0.8609
18566TIP3   OH277112   3.028   1.414  12.390 -0.4817  0.1096  0.3161
18566TIP3    H177113   2.961   1.478  12.413 -0.8676 -0.5088  0.9716
18566TIP3    H277114   2.978   1.333  12.374 -0.0838  0.1216 -1.1967
18567TIP3   OH277115   6.102   2.570   2.043 -0.3665  0.1268  0.1856
18567TIP3    H177116   6.069   2.627   2.112 -0.1779  0.7140 -0.2025
18567TIP3    H277117   6.052   2.489   2.052  0.5738 -0.3082  1.8560
18568TIP3   OH277118   4.740   3.519   0.518  0.0131  0.3756 -0.4006
18568TIP3    H177119   4.747   3.614   0.525 -1.1767  0.5579 -1.3024
18568TIP3    H277120   4.654   3.504   0.480  1.0824 -0.9439 -2.5116
18569TIP3   OH277121   2.802   0.900   3.774 -0.2462 -0.4653  0.0653
18569TIP3    H177122   2.796   0.806   3.762  1.8934 -0.4695 -1.5426
18569TIP3    H277123   2.880   0.913   3.827  0.9053  0.4304 -1.7272
18570TIP3   OH277124   4.831   6.308  13.905 -0.4131  0.0905  0.4511
18570TIP3    H177125   4.758   6.370  13.898 -0.1655  0.4819  1.2517
18570TIP3    H277126   4.866   6.301  13.816 -1.2562  0.0998  0.1087
18571TIP3   OH277127   0.127   3.460   2.798 -0.3452 -0.4763  0.0682
18571TIP3    H177128   0.080   3.487   2.719 -2.1141 -2.2615  0.4104
18571TIP3    H277129   0.122   3.536   2.856  0.9301  0.8385 -1.4633
18572TIP3   OH277130   0.064   4.620   3.568  0.4616  0.0126 -0.6095
18572TIP3    H177131   0.046   4.693   3.627  0.0532 -1.9217  1.7888
18572TIP3    H277132  -0.002   4.627   3.500  0.0143  1.4623 -0.0674
18573TIP3   OH277133   2.415   3.307   6.124  0.3480  0.6113  0.8415
18573TIP3    H177134   2.480   3.371   6.095  0.7376  0.3598  1.1463
18573TIP3    H277135   2.457   3.222   6.111  0.4908  0.4814  1.9716
18574TIP3   OH277136   2.516   1.758  15.240  0.4530 -0.7523 -0.0652
18574TIP3    H177137   2.544   1.695  15.307  0.0213 -1.5690 -0.6304
18574TIP3    H277138   2.544   1.717  15.157 -0.9018 -0.7797 -0.5254
18575TIP3   OH277139   5.304   6.375  16.957 -0.1857  0.1686 -0.0629
18575TIP3    H177140   5.371   6.437  16.986 -0.5272  0.1909  0.7034
18575TIP3    H277141   5.351   6.292  16.949  0.3482  0.5579 -1.4059
18576TIP3   OH277142   5.503   5.112   2.668 -0.1122  0.0274  0.5875
18576TIP3    H177143   5.417   5.150   2.651  0.0319  0.3668  0.6104
18576TIP3    H277144   5.565   5.180   2.642  0.1530 -0.2750  0.4182
18577TIP3   OH277145   5.333   4.088   3.817  0.2710 -0.1052 -0.0120
18577TIP3    H177146   5.276   4.023   3.860 -0.4568  0.7714  0.3851
18577TIP3    H277147   5.317   4.169   3.865  1.4002  0.3100 -0.3066
18578TIP3   OH277148   0.518   5.385   5.208 -0.3099  0.6358 -0.6731
18578TIP3    H177149   0.495   5.458   5.265 -0.0260  0.4430 -0.3043
18578TIP3    H277150   0.613   5.376   5.218 -0.2913  0.4615 -1.0079
18579TIP3   OH277151   4.797   3.020  10.671 -0.0511 -0.0995  0.4107
18579TIP3    H177152   4.842   3.104  10.664  1.2344 -0.8284 -0.9627
18579TIP3    H277153   4.742   3.027  10.749  2.0389  1.0884  1.8831
18580TIP3   OH277154   3.544   3.556  12.329  0.3827  0.0864  0.0939
18580TIP3    H177155   3.624   3.544  12.380 -0.5171 -0.5447  1.4485
18580TIP3    H277156   3.572   3.597  12.248  2.0260  0.1835  0.6768
18581TIP3   OH277157   5.912   4.973   6.191  0.7772 -0.3806  0.0434
18581TIP3    H177158   5.852   5.006   6.258 -0.0700  0.4586 -1.0900
18581TIP3    H277159   5.980   5.041   6.185 -0.0882  0.4172 -1.1413
18582TIP3   OH277160   6.696   5.736  13.226 -0.1241 -0.6630 -0.2836
18582TIP3    H177161   6.663   5.719  13.138  1.1428 -0.7079 -0.7626
18582TIP3    H277162   6.789   5.718  13.221  0.5764  2.2161  0.2609
18583TIP3   OH277163   6.196   4.894  14.986 -0.2697  0.6579 -0.1191
18583TIP3    H177164   6.210   4.808  15.025 -0.0620  1.4272  1.5928
18583TIP3    H277165   6.283   4.923  14.958 -0.3551  0.2890 -0.7925
18584TIP3   OH277166   2.305   5.294  12.562  0.6078  0.1782  0.4093
18584TIP3    H177167   2.346   5.377  12.587 -2.7019  2.1843 -0.2986
18584TIP3    H277168   2.213   5.305  12.584 -0.1886 -2.8780 -0.8962
18585TIP3   OH277169   1.136   6.232   0.613 -0.0593  0.8452 -0.0709
18585TIP3    H177170   1.212   6.230   0.670 -0.1301  1.2429  0.0402
18585TIP3    H277171   1.124   6.141   0.585  0.8112  0.8718 -0.5598
18586TIP3   OH277172   6.404   0.161  15.900 -0.0172  0.3431  0.0881
18586TIP3    H177173   6.383   0.231  15.962  0.6278 -0.3276  1.0884
18586TIP3    H277174   6.356   0.085  15.932  2.1323 -0.6403  1.1694
18587TIP3   OH277175   1.492   6.339  12.182 -0.1642  0.1112  0.3030
18587TIP3    H177176   1.538   6.271  12.232 -0.8052 -1.0384 -0.6083
18587TIP3    H277177   1.485   6.303  12.094  0.7664  2.0062 -0.6084
18588TIP3   OH277178   0.577   3.378  15.023  0.8089 -0.1689  0.0436
18588TIP3    H177179   0.639   3.428  14.970 -0.1794 -0.7779 -1.8161
18588TIP3    H277180   0.506   3.356  14.961  0.0272 -1.7197  1.4115
18589TIP3   OH277181   2.383   1.448  12.158 -0.3153 -0.1437 -0.4304
18589TIP3    H177182   2.303   1.484  12.119  0.0311 -0.3947 -1.4145
18589TIP3    H277183   2.367   1.449  12.252 -0.6796  1.7309 -0.4655
18590TIP3   OH277184   3.195   1.378   5.386  0.2683 -0.2854 -0.4310
18590TIP3    H177185   3.263   1.312   5.388  0.1908 -0.4448 -1.8676
18590TIP3    H277186   3.214   1.430   5.307  0.7731  1.9034  1.0499
18591TIP3   OH277187   4.988   6.216   3.072  0.2365 -0.1558 -0.1443
18591TIP3    H177188   5.073   6.253   3.097  0.3071  0.4494 -1.2089
18591TIP3    H277189   4.925   6.287   3.089 -0.2328 -0.9496  1.6218
18592TIP3   OH277190   6.553   3.572   4.154  0.4687 -0.7213 -0.5262
18592TIP3    H177191   6.583   3.617   4.233 -0.4664 -0.3941 -0.3361
18592TIP3    H277192   6.482   3.514   4.185  1.0962 -1.7104 -0.9012
18593TIP3   OH277193   5.312   1.777   2.937  0.2143 -0.0543  0.1689
18593TIP3    H177194   5.233   1.830   2.940 -0.3354 -0.8678  0.3476
18593TIP3    H277195   5.367   1.812   3.007  0.4482  1.1513 -0.5819
18594TIP3   OH277196   4.966   3.825  16.632  0.4667  0.9288  0.0983
18594TIP3    H177197   4.885   3.868  16.605  0.8721  1.7011  0.1182
18594TIP3    H277198   4.936   3.756  16.693 -0.3744 -0.3364 -1.6527
18595TIP3   OH277199   0.615   6.120  12.702 -0.1790  0.0942 -0.1219
18595TIP3    H177200   0.601   6.206  12.662  2.5701  0.4614 -0.5123
18595TIP3    H277201   0.698   6.130  12.750 -1.0617 -1.6585  1.8923
18596TIP3   OH277202   1.159   5.180   5.290 -0.2914 -0.7892  0.1317
18596TIP3    H177203   1.114   5.159   5.372  0.2854  0.9251  0.9345
18596TIP3    H277204   1.094   5.163   5.222 -1.9821  0.9408  1.1994
18597TIP3   OH277205   1.858   1.582  11.981  0.0692  0.0359  0.1525
18597TIP3    H177206   1.786   1.635  12.015  0.1029 -1.3709  2.6652
18597TIP3    H277207   1.823   1.543  11.901 -0.7453  1.9871 -0.4982
18598TIP3   OH277208   2.026   2.347  14.295 -0.2843 -0.0882 -0.1889
18598TIP3    H177209   2.013   2.437  14.323 -2.4258 -0.3925 -0.0039
18598TIP3    H277210   2.012   2.295  14.375  1.6814 -0.5677 -0.1228
18599TIP3   OH277211   5.080   1.485  15.757 -0.1291  0.8534  0.3036
18599TIP3    H177212   5.085   1.424  15.831  0.9861  1.8263  1.0619
18599TIP3    H277213   5.141   1.449  15.692 -1.2094 -0.0750 -0.2412
18600TIP3   OH277214   2.746   0.122   3.067  0.2248 -0.4743  0.0963
18600TIP3    H177215   2.764   0.124   3.161  0.7213  0.0913 -0.0066
18600TIP3    H277216   2.817   0.069   3.030 -1.9111 -3.8715  0.4270
18601TIP3   OH277217   5.162   6.394  10.828  0.8901  0.0084 -0.7757
18601TIP3    H177218   5.189   6.445  10.751  6.0785 -0.8324  0.0630
18601TIP3    H277219   5.162   6.459  10.899  2.5223 -0.1882 -0.5466
18602TIP3   OH277220   6.377   1.340   4.568  0.7182  0.0819  0.2503
18602TIP3    H177221   6.377   1.326   4.663  0.7294 -1.0345  0.1034
18602TIP3    H277222   6.442   1.408   4.554 -0.5808  1.6027  1.2026
18603TIP3   OH277223   5.848   1.137   0.014 -0.1261 -0.1036  0.5977
18603TIP3    H177224   5.918   1.188  -0.025 -1.0661  0.5626 -0.2656
18603TIP3    H277225   5.768   1.172  -0.025 -0.8419 -1.9017  0.3555
18604TIP3   OH277226   5.124   1.471  16.925  0.1871 -0.0156 -0.8934
18604TIP3    H177227   5.113   1.391  16.873  0.1257 -2.2075  2.2254
18604TIP3    H277228   5.078   1.453  17.007  1.4132  2.6665  0.5115
18605TIP3   OH277229   5.198   1.226   5.587 -0.0709 -0.0962  0.6104
18605TIP3    H177230   5.239   1.157   5.640 -0.9309  0.2803  1.7996
18605TIP3    H277231   5.210   1.306   5.637 -1.6476  0.1339  0.6878
18606TIP3   OH277232   4.519   5.249  16.995 -0.1104  0.5845 -0.0198
18606TIP3    H177233   4.589   5.203  17.040 -0.8272 -0.8069 -0.2697
18606TIP3    H277234   4.456   5.272  17.064 -0.5182 -0.2634 -0.0973
18607TIP3   OH277235   2.292   4.549  16.451 -0.6942 -0.4928 -0.1830
18607TIP3    H177236   2.270   4.467  16.496  0.0949  0.8457  2.9466
18607TIP3    H277237   2.261   4.618  16.511  2.6480  1.4642 -0.4380
18608TIP3   OH277238   4.167   5.893   1.875  0.3470 -0.2742 -0.0572
18608TIP3    H177239   4.081   5.851   1.866 -0.8111  2.0846 -0.8587
18608TIP3    H277240   4.153   5.965   1.937  1.7092  0.2297 -0.2908
18609TIP3   OH277241   2.892   0.715  13.532 -0.2789 -0.4165 -0.0673
18609TIP3    H177242   2.973   0.726  13.581  1.9841  0.0819 -3.5320
18609TIP3    H277243   2.852   0.802  13.532  0.8109  0.1059 -0.7869
18610TIP3   OH277244   4.324   1.231  10.308  0.1264 -0.2863 -0.3896
18610TIP3    H177245   4.270   1.239  10.229  0.8523  0.8817 -0.8120
18610TIP3    H277246   4.262   1.225  10.380 -0.5551 -0.3955 -0.9759
18611TIP3   OH277247   5.981   3.182   0.252  0.5226  0.5664  0.0464
18611TIP3    H177248   6.019   3.222   0.174 -0.2381  0.2633 -0.4856
18611TIP3    H277249   6.046   3.117   0.280 -0.9435 -2.3718 -2.8014
18612TIP3   OH277250   1.552   1.946  13.938 -0.3696 -0.2782  0.2454
18612TIP3    H177251   1.482   1.980  13.884 -0.1319 -0.2117 -0.0219
18612TIP3    H277252   1.632   1.964  13.889  0.0364  1.5069  1.4620
18613TIP3   OH277253   6.443   2.066  15.062 -0.1218  0.6675 -0.7298
18613TIP3    H177254   6.384   1.997  15.092  0.3494  0.0601 -1.2015
18613TIP3    H277255   6.530   2.029  15.070  0.2668  1.7454  0.4789
18614TIP3   OH277256   4.491   6.418  14.311  0.2689  0.0108 -0.0418
18614TIP3    H177257   4.416   6.470  14.339 -0.3694 -0.8906 -0.0663
18614TIP3    H277258   4.478   6.332  14.352  0.2189 -0.8038 -1.6816
18615TIP3   OH277259   1.757   6.117  14.739 -0.0122  0.0002  0.3854
18615TIP3    H177260   1.794   6.194  14.783 -1.5751  1.7082 -1.1214
18615TIP3    H277261   1.787   6.043  14.791  1.9602  1.5789  1.6306
18616TIP3   OH277262   4.758   2.586  16.991  0.8191 -0.2957 -0.1133
18616TIP3    H177263   4.833   2.616  16.940  0.6570 -0.3373 -0.3787
18616TIP3    H277264   4.738   2.499  16.956 -1.2797  0.9419 -2.1918
18617TIP3   OH277265   1.314   0.282   5.053  0.5287  0.5552  0.3084
18617TIP3    H177266   1.351   0.194   5.060  1.0832  0.6262 -1.3118
18617TIP3    H277267   1.374   0.329   4.995 -1.7948  0.7674 -2.1617
18618TIP3   OH277268   5.269   2.581  12.963  0.2906 -0.0762 -0.3492
18618TIP3    H177269   5.339   2.572  13.028  1.0366 -2.0097 -1.3381
18618TIP3    H277270   5.285   2.510  12.900 -2.5277 -0.5862 -0.6346
18619TIP3   OH277271   2.959   4.495  16.500  0.8642 -0.5544  0.0243
18619TIP3    H177272   3.052   4.476  16.513  1.1575  0.5153 -0.4845
18619TIP3    H277273   2.944   4.484  16.406  0.9720  1.3429 -0.2457
18620TIP3   OH277274   5.991   4.518  16.710 -0.0691 -0.2123 -0.2800
18620TIP3    H177275   5.902   4.525  16.675 -1.3443  0.2777  2.7577
18620TIP3    H277276   6.008   4.603  16.751  0.7361 -1.1432  1.4412
18621TIP3   OH277277   3.874   5.663  10.904  0.1305 -0.0932 -0.3502
18621TIP3    H177278   3.855   5.703  10.819  0.3502 -0.0118 -0.3632
18621TIP3    H277279   3.814   5.589  10.910 -2.3393  1.8571  0.9235
18622TIP3   OH277280   3.681   0.178   4.446  0.0042  0.0597 -0.5852
18622TIP3    H177281   3.694   0.273   4.442 -0.7173  0.1617 -0.5245
18622TIP3    H277282   3.738   0.144   4.377  2.2144  0.3228  0.9868
18623TIP3   OH277283   3.888   6.807   3.000 -0.0271 -0.1121 -0.8355
18623TIP3    H177284   3.974   6.794   3.041 -1.2608 -2.6661  1.1943
18623TIP3    H277285   3.858   6.891   3.036  1.6572  0.9598 -1.7888
18624TIP3   OH277286   4.030   6.658  15.998 -0.1507 -0.1478  0.2002
18624TIP3    H177287   4.022   6.563  15.993  0.1697 -0.1660  0.0118
18624TIP3    H277288   4.088   6.681  15.925  2.1791 -0.0957  1.9526
18625TIP3   OH277289   4.030   4.152  12.106 -0.0323 -0.0505 -0.1182
18625TIP3    H177290   4.117   4.145  12.145  1.2328 -0.0337 -2.7783
18625TIP3    H277291   3.991   4.228  12.150  3.1998  3.1009 -2.0835
18626TIP3   OH277292   6.221   2.312  15.161 -0.3845 -0.1288 -0.2423
18626TIP3    H177293   6.181   2.387  15.117 -3.1767  0.4137  2.8021
18626TIP3    H277294   6.283   2.350  15.223  1.2645 -0.6965 -1.4619
18627TIP3   OH277295   6.291   4.690  12.089  0.1472 -0.2427 -0.6225
18627TIP3    H177296   6.211   4.640  12.107  0.2374 -0.6001 -1.1901
18627TIP3    H277297   6.288   4.763  12.151  0.9908 -1.9779  1.6082
18628TIP3   OH277298   5.734   0.321  12.923  0.4698 -0.0670 -0.4559
18628TIP3    H177299   5.678   0.391  12.956  0.8231  0.9027 -1.8476
18628TIP3    H277300   5.678   0.274  12.860  0.6273 -0.2812 -0.4366
18629TIP3   OH277301   2.623   5.248   2.838 -0.1079  1.0422  0.5191
18629TIP3    H177302   2.593   5.311   2.904 -2.3801 -0.6926  1.2712
18629TIP3    H277303   2.624   5.164   2.884  2.1263  0.3335 -0.6449
18630TIP3   OH277304   6.341   5.695  14.564 -0.1396 -0.0517 -0.2679
18630TIP3    H177305   6.351   5.790  14.558  3.1338 -0.1261  1.7996
18630TIP3    H277306   6.294   5.681  14.646 -0.8927 -0.2429 -0.7236
18631TIP3   OH277307   5.362   2.534   5.661 -0.0255 -0.2023 -0.0544
18631TIP3    H177308   5.445   2.501   5.696 -0.2965 -0.0105  0.7980
18631TIP3    H277309   5.376   2.539   5.566  1.2579  0.7280  0.1619
18632TIP3   OH277310   2.787   2.078   4.563 -0.2787 -0.1136 -0.1485
18632TIP3    H177311   2.852   2.031   4.512 -0.2705 -1.1450  0.7942
18632TIP3    H277312   2.720   2.013   4.583  0.5996 -0.2836  2.7281
18633TIP3   OH277313   1.830   3.245   5.934  0.4516 -1.0727 -0.1830
18633TIP3    H177314   1.752   3.192   5.919 -1.2682  1.0355  0.8237
18633TIP3    H277315   1.862   3.216   6.020  0.7552 -1.8520 -0.5413
18634TIP3   OH277316   2.297   4.092  15.894  0.7205  0.7465  0.0701
18634TIP3    H177317   2.357   4.165  15.878  1.7081  0.7236  3.1067
18634TIP3    H277318   2.236   4.125  15.959 -0.6631 -0.2620 -0.6639
18635TIP3   OH277319   6.141   3.413   4.412 -0.0429 -0.1424 -0.2461
18635TIP3    H177320   6.104   3.327   4.435 -0.8043  0.6088  1.5267
18635TIP3    H277321   6.065   3.466   4.389 -0.3853  1.5867  3.9633
18636TIP3   OH277322   4.621   4.035   1.958 -0.1463 -0.1930 -0.4418
18636TIP3    H177323   4.707   4.012   1.994  0.2240  1.1693 -0.3725
18636TIP3    H277324   4.575   4.077   2.031 -0.5754 -0.2171 -0.6952
18637TIP3   OH277325   1.488   0.680   5.767  0.1739  0.2805 -0.1327
18637TIP3    H177326   1.494   0.735   5.689  0.1883 -1.5678 -1.5195
18637TIP3    H277327   1.398   0.693   5.799 -0.0662  0.5395 -0.8868
18638TIP3   OH277328   2.682   5.476   0.068  0.3833 -0.3433 -0.2362
18638TIP3    H177329   2.617   5.411   0.042  1.5498 -0.9029 -1.9927
18638TIP3    H277330   2.637   5.560   0.063 -0.2398 -0.7305 -1.3199
18639TIP3   OH277331   1.441   3.938   5.472  0.4093 -0.0970 -0.1341
18639TIP3    H177332   1.443   3.847   5.441  0.8154  0.2451 -1.1649
18639TIP3    H277333   1.445   3.991   5.392  1.8417  0.8324  0.5000
18640TIP3   OH277334   4.298   5.630   0.107 -0.1173  0.0446  0.4930
18640TIP3    H177335   4.373   5.616   0.049 -1.3296  0.6154 -1.3006
18640TIP3    H277336   4.225   5.587   0.062 -1.0352  0.1628  1.8154
18641TIP3   OH277337   0.663   3.619   1.676 -0.2026 -0.3554  0.1582
18641TIP3    H177338   0.677   3.697   1.623  0.4914 -1.4470 -1.3403
18641TIP3    H277339   0.593   3.643   1.736  0.0778  1.4459 -0.1716
18642TIP3   OH277340   4.767   2.205   2.787 -0.0333 -0.5769  0.0073
18642TIP3    H177341   4.811   2.288   2.772  0.4695 -1.0116 -1.0541
18642TIP3    H277342   4.837   2.140   2.793 -0.4781 -1.2953 -1.8296
18643TIP3   OH277343   3.838   6.570   2.744  0.5387 -0.2944 -0.7399
18643TIP3    H177344   3.914   6.517   2.719 -0.0957 -1.0286 -1.1669
18643TIP3    H277345   3.874   6.655   2.768  1.5910 -0.9245 -0.0341
18644TIP3   OH277346   0.950   5.004   2.450 -0.3466  0.2109  0.1702
18644TIP3    H177347   1.020   5.057   2.490 -0.3420  1.1713 -1.0472
18644TIP3    H277348   0.880   5.005   2.515 -0.0289  1.0320  0.5151
18645TIP3   OH277349   5.903   1.038   5.268 -0.6194  0.0381  0.1890
18645TIP3    H177350   5.810   1.041   5.291 -1.1914 -2.8004 -1.3367
18645TIP3    H277351   5.909   1.086   5.186 -1.2053 -1.5813 -0.8436
18646TIP3   OH277352   2.793   2.190  15.092  0.1073  0.4398  0.0101
18646TIP3    H177353   2.773   2.098  15.113  0.3471  0.8185  2.1861
18646TIP3    H277354   2.710   2.236  15.107 -0.2255  0.4956 -1.8643
18647TIP3   OH277355   1.401   3.103   6.129  0.3779  0.5627 -0.1951
18647TIP3    H177356   1.320   3.069   6.091  0.6936 -0.9096  0.3671
18647TIP3    H277357   1.400   3.197   6.109 -0.9032  0.3638 -1.1788
18648TIP3   OH277358   4.994   2.318   2.243  0.2716 -0.4724  0.1779
18648TIP3    H177359   4.924   2.298   2.304 -1.1086 -1.2984 -1.6112
18648TIP3    H277360   5.074   2.295   2.290 -0.8311 -2.6339  1.1002
18649TIP3   OH277361   4.484   6.215  12.200 -0.1186  0.7054  0.3809
18649TIP3    H177362   4.559   6.224  12.259  0.6649 -0.2421 -0.4274
18649TIP3    H277363   4.523   6.196  12.115 -1.1931  2.7532 -0.6259
18650TIP3   OH277364   5.549   4.195  15.909  0.0387  0.7830 -0.0080
18650TIP3    H177365   5.545   4.153  15.823 -0.8506  1.1344 -0.1511
18650TIP3    H277366   5.490   4.270  15.902 -0.3182  0.6129  1.0170
18651TIP3   OH277367   2.366   5.985  16.606  0.1788  0.0480  0.4034
18651TIP3    H177368   2.290   5.939  16.641  0.5942 -1.3821 -0.4976
18651TIP3    H277369   2.392   6.045  16.676 -1.7856  0.6270  0.7037
18652TIP3   OH277370   3.068   1.303   1.875  0.2400  0.5390 -0.5196
18652TIP3    H177371   3.095   1.250   1.950 -0.2726 -0.4701 -1.0190
18652TIP3    H277372   2.972   1.297   1.875 -0.0469  3.4817  0.8103
18653TIP3   OH277373   2.586   4.566  14.931 -0.1295 -0.4496 -0.1902
18653TIP3    H177374   2.591   4.661  14.936  1.3395 -0.5321  0.7399
18653TIP3    H277375   2.594   4.537  15.022 -0.9026 -1.4565 -0.4256
18654TIP3   OH277376   0.429   5.799  12.168 -0.8944 -0.4726 -0.2820
18654TIP3    H177377   0.401   5.891  12.164 -0.2609 -0.2438  0.2706
18654TIP3    H277378   0.501   5.793  12.105 -0.1470 -0.2871  0.5370
18655TIP3   OH277379   0.775   3.408   4.898 -0.3727 -0.2214 -0.2176
18655TIP3    H177380   0.732   3.324   4.880  0.2229 -1.0037  1.7176
18655TIP3    H277381   0.837   3.388   4.968  0.7793  1.5684 -0.6621
18656TIP3   OH277382   3.458   2.583  15.348  0.1753  0.4192  0.3827
18656TIP3    H177383   3.499   2.504  15.314 -1.4050  0.4268 -1.7981
18656TIP3    H277384   3.530   2.637  15.380  1.7638 -0.0700 -2.1383
18657TIP3   OH277385   2.496   6.415  16.772  0.5556 -0.5042  0.5455
18657TIP3    H177386   2.568   6.383  16.827 -0.6662 -1.4565  1.6566
18657TIP3    H277387   2.496   6.510  16.785  0.0916 -0.7279  2.5157
18658TIP3   OH277388   3.490   4.908  17.019  0.2567 -0.1218  0.3254
18658TIP3    H177389   3.413   4.864  16.983 -0.5108  1.1591  0.3331
18658TIP3    H277390   3.549   4.918  16.944 -0.2036  0.1666 -0.0030
18659TIP3   OH277391   0.456   6.398   1.118  0.2980 -0.5893  0.3105
18659TIP3    H177392   0.421   6.310   1.101 -0.0548  0.0341 -2.8406
18659TIP3    H277393   0.544   6.396   1.081 -0.0699  0.6262 -0.6870
18660TIP3   OH277394   5.633   0.228  11.677  0.4642  0.0442 -0.0015
18660TIP3    H177395   5.541   0.204  11.683  0.5778 -0.6159 -0.6858
18660TIP3    H277396   5.680   0.145  11.683  1.1297  0.5171  2.1741
18661TIP3   OH277397   2.930   6.121   1.569  0.0866  0.5184  0.3537
18661TIP3    H177398   2.857   6.151   1.515 -0.2881  0.9347  1.0679
18661TIP3    H277399   2.950   6.034   1.537 -0.5067  0.5378 -0.0735
18662TIP3   OH277400   3.155   5.371  14.102 -0.1372 -0.1442 -0.0570
18662TIP3    H177401   3.159   5.466  14.093  2.2064 -0.0505  1.1446
18662TIP3    H277402   3.103   5.342  14.027 -0.6813  2.0513 -0.6065
18663TIP3   OH277403   4.084   4.912  13.403 -0.5961  0.1695  0.5677
18663TIP3    H177404   4.122   4.973  13.339 -1.7758  0.0773 -0.2502
18663TIP3    H277405   4.151   4.844  13.412 -0.2133  0.4207 -0.2324
18664TIP3   OH277406   5.892   2.652  15.814  0.2329  0.2204 -0.1546
18664TIP3    H177407   5.900   2.680  15.723  2.2159 -0.2760 -0.1610
18664TIP3    H277408   5.922   2.727  15.865 -1.4408  0.7243  0.1619
18665TIP3   OH277409   5.361   2.318   2.726 -0.2347 -0.1972  0.0129
18665TIP3    H177410   5.383   2.403   2.689 -1.3628  0.2598  0.3416
18665TIP3    H277411   5.444   2.287   2.764 -0.2933  1.9226  2.1469
18666TIP3   OH277412   2.969   1.151  12.957 -0.1372  0.1466 -0.2595
18666TIP3    H177413   2.969   1.166  12.862  0.4970  1.7553 -0.0501
18666TIP3    H277414   3.050   1.103  12.974 -0.3290 -0.2823 -0.5431
18667TIP3   OH277415   4.854   6.424   6.078 -0.0469 -0.1281 -0.0471
18667TIP3    H177416   4.948   6.429   6.096 -0.2901 -0.9610  1.6590
18667TIP3    H277417   4.827   6.338   6.109 -1.3911  0.1219 -0.4270
18668TIP3   OH277418   4.429   0.421   3.759  0.0956 -0.0881  0.0500
18668TIP3    H177419   4.406   0.349   3.817  2.6719  0.5440  2.0121
18668TIP3    H277420   4.381   0.496   3.794 -0.5422 -0.2746 -0.4012
18669TIP3   OH277421   5.264   5.802  13.355 -0.1111  0.0587  0.3561
18669TIP3    H177422   5.247   5.707  13.353 -0.2913  0.0737  1.0799
18669TIP3    H277423   5.203   5.836  13.420  0.9374  0.4766  1.1562
18670TIP3   OH277424   0.394   0.521  11.280  0.1275 -0.7215 -0.1640
18670TIP3    H177425   0.302   0.494  11.289  0.6702 -2.5711  0.2064
18670TIP3    H277426   0.389   0.614  11.256 -1.7987 -0.1944  1.9272
18671TIP3   OH277427   1.853   1.093  14.342  0.6926  0.8503  0.1383
18671TIP3    H177428   1.764   1.056  14.344 -0.0744  2.6231  1.5937
18671TIP3    H277429   1.840   1.187  14.356  2.8136  1.1342  0.4435
18672TIP3   OH277430   5.240   5.998   4.410 -0.3490 -0.0212  0.5335
18672TIP3    H177431   5.252   5.993   4.505  0.1148  0.7497  0.5254
18672TIP3    H277432   5.328   5.993   4.374 -0.5585 -0.8874  0.0973
18673TIP3   OH277433   3.814   6.149   3.960 -0.6728 -0.4275 -0.1148
18673TIP3    H177434   3.892   6.110   3.919 -1.0809  0.6024 -1.9598
18673TIP3    H277435   3.765   6.074   3.993  1.7404 -1.0691  2.4775
18674TIP3   OH277436   2.498   6.120   1.410 -0.3622  0.8410  0.0070
18674TIP3    H177437   2.489   6.167   1.493 -2.4153  1.5007 -0.5047
18674TIP3    H277438   2.553   6.176   1.356 -1.6627  2.0691 -0.1208
18675TIP3   OH277439   4.782   0.232  16.769  0.3251  0.4583 -0.3856
18675TIP3    H177440   4.738   0.147  16.767 -0.0875  0.6442  0.4879
18675TIP3    H277441   4.770   0.264  16.858  1.3846  0.9645 -0.4019
18676TIP3   OH277442   5.860   6.362  11.790 -0.2837  0.1255  0.6301
18676TIP3    H177443   5.865   6.312  11.708 -0.8032  0.3893  0.4339
18676TIP3    H277444   5.845   6.452  11.762  1.4573  0.5589  0.9450
18677TIP3   OH277445   3.784   5.839  15.554 -0.7862 -0.3979 -0.5176
18677TIP3    H177446   3.769   5.877  15.467 -1.8382 -1.2247 -0.7279
18677TIP3    H277447   3.814   5.750  15.536 -2.4916 -1.1080 -0.0738
18678TIP3   OH277448   2.997   0.361  10.974 -0.2261  0.4608  0.5070
18678TIP3    H177449   3.029   0.383  10.887 -1.3796 -1.2594 -0.4265
18678TIP3    H277450   2.932   0.428  10.994 -1.2485 -0.1157 -0.7682
18679TIP3   OH277451   4.888   3.416  16.378 -0.2446 -0.0530 -0.4789
18679TIP3    H177452   4.885   3.327  16.414 -2.8385 -0.8357 -2.3663
18679TIP3    H277453   4.820   3.417  16.310 -0.3369  3.4043 -0.4991
18680TIP3   OH277454   6.409   0.098  14.615  0.2488 -0.1731  1.1246
18680TIP3    H177455   6.331   0.070  14.567 -0.6143  0.8074  1.9229
18680TIP3    H277456   6.449   0.017  14.645  0.6439 -0.8175 -0.9247
18681TIP3   OH277457   3.408   0.046  11.731  0.1575 -0.2162 -0.4447
18681TIP3    H177458   3.435   0.045  11.639  1.2357 -1.6842 -0.1607
18681TIP3    H277459   3.465   0.111  11.772 -0.8015  0.9508 -0.9180
18682TIP3   OH277460   1.925   6.400   5.182  0.5711  0.2794 -0.0651
18682TIP3    H177461   1.870   6.477   5.171  2.3390  1.7824  0.9352
18682TIP3    H277462   1.976   6.418   5.261  1.9775 -1.3344 -0.5285
18683TIP3   OH277463   4.298   5.484   4.144 -0.1669 -0.0201  0.0829
18683TIP3    H177464   4.247   5.425   4.199 -0.0694 -0.7236 -0.5559
18683TIP3    H277465   4.236   5.550   4.115 -0.5171 -0.3752  0.0175
18684TIP3   OH277466   4.192   5.422   5.811 -0.4111  0.2636  0.4443
18684TIP3    H177467   4.132   5.471   5.868 -1.0691  0.4647 -0.3936
18684TIP3    H277468   4.157   5.333   5.811  0.4767 -0.1030  1.5459
18685TIP3   OH277469   4.296   3.627   5.479 -0.4775 -0.1651 -0.0618
18685TIP3    H177470   4.224   3.638   5.542  0.1397  1.7104  0.3954
18685TIP3    H277471   4.365   3.685   5.512  0.5214 -0.4541 -1.5513
18686TIP3   OH277472   5.470   5.841   1.453 -0.3072  0.7036 -0.0999
18686TIP3    H177473   5.515   5.785   1.516 -0.1321  0.6475 -0.2751
18686TIP3    H277474   5.511   5.821   1.369 -0.4596  0.8645 -0.2135
18687TIP3   OH277475   3.723   3.227  12.551 -0.1547  0.1591  0.1499
18687TIP3    H177476   3.732   3.314  12.514 -0.1838  0.2385  0.3261
18687TIP3    H277477   3.734   3.167  12.477 -0.7099  0.3303 -0.0771
18688TIP3   OH277478   5.197   2.357  13.172  0.0934 -0.6962 -0.3509
18688TIP3    H177479   5.138   2.387  13.241  1.2212 -0.3756  0.4997
18688TIP3    H277480   5.164   2.399  13.092 -0.0167  0.5900  0.3407
18689TIP3   OH277481   1.181   5.369  14.818 -0.1050 -0.7517  0.4135
18689TIP3    H177482   1.191   5.461  14.793  1.7385 -1.6181 -2.4239
18689TIP3    H277483   1.103   5.340  14.773  1.0173 -1.2932 -1.2740
18690TIP3   OH277484   3.019   3.524  12.593 -0.2580 -0.5104  0.8737
18690TIP3    H177485   3.087   3.460  12.572 -1.8035 -2.3954  1.3559
18690TIP3    H277486   2.989   3.556  12.508  3.2140  2.7758  0.5862
18691TIP3   OH277487   2.360   3.693  12.996 -0.5360  0.3441 -0.5805
18691TIP3    H177488   2.304   3.769  12.981 -3.1480 -1.3329  0.0198
18691TIP3    H277489   2.351   3.639  12.918  0.9441  0.3881 -0.8214
18692TIP3   OH277490   6.379   0.937   5.205 -0.0397 -0.0566  0.7115
18692TIP3    H177491   6.338   0.850   5.207  1.4268 -0.7832  2.9004
18692TIP3    H277492   6.313   0.995   5.242 -0.3289 -0.5987  1.0676
18693TIP3   OH277493   4.871   0.935  15.008  0.0660 -0.1977 -0.5208
18693TIP3    H177494   4.925   0.987  14.949 -0.7851 -0.2122 -1.3226
18693TIP3    H277495   4.924   0.858  15.027  0.4286 -0.0900 -1.0806
18694TIP3   OH277496   4.407   3.642   4.687 -0.6450 -0.1124 -0.1758
18694TIP3    H177497   4.353   3.574   4.729 -0.5039  0.0529  0.2748
18694TIP3    H277498   4.491   3.637   4.732 -0.1243 -0.6700 -1.1779
18695TIP3   OH277499   2.815   3.591   3.550 -0.3435 -0.2183  0.0402
18695TIP3    H177500   2.885   3.596   3.486 -1.9172 -0.3623 -1.7803
18695TIP3    H277501   2.856   3.557   3.629  1.9423  1.2386 -0.4273
18696TIP3   OH277502   5.770   0.291   0.358 -0.0591 -0.2964  0.1734
18696TIP3    H177503   5.855   0.333   0.353  0.4260 -1.1358  1.0695
18696TIP3    H277504   5.713   0.344   0.301  0.8287  0.7839  0.2729
18697TIP3   OH277505   1.879   3.254  14.180  0.5307 -0.0790  0.0521
18697TIP3    H177506   1.858   3.314  14.252 -1.1722 -1.3347  0.6821
18697TIP3    H277507   1.857   3.302  14.101 -1.3379  0.0198  0.5655
18698TIP3   OH277508   2.001   6.154  12.214  0.3350  0.8121  0.0047
18698TIP3    H177509   2.069   6.214  12.184  1.5834 -1.3123 -1.7905
18698TIP3    H277510   2.048   6.088  12.264 -0.8707  0.8394  1.2237
18699TIP3   OH277511   3.629   4.763   5.481 -0.0560 -0.0141  0.0627
18699TIP3    H177512   3.674   4.757   5.397 -0.1068 -1.2107  0.1000
18699TIP3    H277513   3.698   4.758   5.546 -0.1545 -0.9864  0.1071
18700TIP3   OH277514   5.153   3.855   5.131 -0.4163  0.2085 -0.4081
18700TIP3    H177515   5.138   3.886   5.042 -1.0220  0.8380 -0.1021
18700TIP3    H277516   5.175   3.763   5.121  2.5994  0.9210 -1.4517
18701TIP3   OH277517   0.334   4.301  14.243 -0.0204 -0.2139 -0.0701
18701TIP3    H177518   0.317   4.394  14.233 -1.3467 -0.4369 -0.0889
18701TIP3    H277519   0.420   4.287  14.204  1.6672  1.5174  2.7101
18702TIP3   OH277520   3.128   2.470  13.042  0.6333  0.2022 -0.5966
18702TIP3    H177521   3.041   2.508  13.038  1.0751  1.1601 -1.6769
18702TIP3    H277522   3.162   2.497  13.127  0.1388  0.3808 -0.4527
18703TIP3   OH277523   4.382   1.027  11.807 -0.2296  0.0100  0.0057
18703TIP3    H177524   4.326   1.048  11.733  0.4231 -0.7602 -0.7240
18703TIP3    H277525   4.465   0.998  11.768 -0.5569 -2.4749  0.9217
18704TIP3   OH277526   1.209   6.229   2.799  0.1324 -0.0928 -0.4513
18704TIP3    H177527   1.182   6.284   2.872  0.4008 -0.9316  0.3002
18704TIP3    H277528   1.137   6.168   2.786  0.0920  0.0429 -0.8833
18705TIP3   OH277529   1.488   0.934   3.949 -0.2743  0.4988  0.0707
18705TIP3    H177530   1.569   0.884   3.948  0.9295  2.3804 -1.2800
18705TIP3    H277531   1.419   0.868   3.939  1.2337 -0.9268 -1.4226
18706TIP3   OH277532   3.071   2.730  12.753  0.1257  0.2254  0.5911
18706TIP3    H177533   3.160   2.695  12.746 -0.4410 -1.0506 -1.1575
18706TIP3    H277534   3.023   2.662  12.801 -0.1011  0.4592  0.6936
18707TIP3   OH277535   5.647   1.090  12.192 -0.1649 -0.3899 -0.2118
18707TIP3    H177536   5.577   1.055  12.247  0.9598 -2.8727 -0.2267
18707TIP3    H277537   5.617   1.177  12.167 -1.9988 -0.3152  1.9771
18708TIP3   OH277538   0.339   1.224   2.317 -0.4927 -0.2135  0.2702
18708TIP3    H177539   0.338   1.144   2.368 -1.2324 -0.6057 -0.3310
18708TIP3    H277540   0.422   1.265   2.338  0.0164 -1.2706  0.3795
18709TIP3   OH277541   4.512   0.701   4.723 -0.2387 -0.3053 -0.1244
18709TIP3    H177542   4.544   0.787   4.695  1.6686 -1.4986 -1.9135
18709TIP3    H277543   4.483   0.660   4.642 -0.7685 -1.4986  0.6535
18710TIP3   OH277544   3.052   6.210  15.298 -0.4049 -0.2856  0.0741
18710TIP3    H177545   3.039   6.296  15.259  0.1350 -0.1486  0.1951
18710TIP3    H277546   3.143   6.209  15.326 -0.5852 -0.6434  0.6841
18711TIP3   OH277547   3.382   6.792   1.435  0.3400 -0.1028  0.1491
18711TIP3    H177548   3.305   6.810   1.382 -0.9637 -0.8583  1.7202
18711TIP3    H277549   3.431   6.727   1.384 -0.8666 -0.7966 -0.1690
18712TIP3   OH277550   5.986   4.386  14.266 -0.1173 -0.3319  0.0067
18712TIP3    H177551   6.079   4.400  14.282  0.0629  1.9954 -2.4995
18712TIP3    H277552   5.980   4.363  14.174 -2.0955  0.5484 -0.1332
18713TIP3   OH277553   4.179   5.099  16.222 -0.7116  0.4597 -0.2453
18713TIP3    H177554   4.175   5.193  16.240 -0.2260  0.3098  0.7390
18713TIP3    H277555   4.143   5.090  16.134  2.3512  1.9655 -1.8108
18714TIP3   OH277556   2.828   5.691  15.261 -0.0568  0.4262 -0.3754
18714TIP3    H177557   2.913   5.647  15.256 -1.3390 -2.3111  0.1167
18714TIP3    H277558   2.788   5.657  15.341 -1.9566  1.0044 -1.0288
18715TIP3   OH277559   4.733   3.942  16.543 -0.5666  0.7302 -0.2574
18715TIP3    H177560   4.756   3.917  16.453  0.3181 -1.1531  0.4318
18715TIP3    H277561   4.644   3.908  16.555 -0.9930  1.6744 -0.6426
18716TIP3   OH277562   0.029   4.729  15.286  0.8776 -0.1762  0.0429
18716TIP3    H177563  -0.061   4.716  15.317  1.0490 -1.6670 -0.0333
18716TIP3    H277564   0.084   4.708  15.361  1.1989 -0.6731 -0.3218
18717TIP3   OH277565   2.290   4.576   4.154  0.8404 -0.2348 -0.0183
18717TIP3    H177566   2.245   4.544   4.232  1.0847 -0.6010 -0.0266
18717TIP3    H277567   2.230   4.642   4.117  0.8099  0.0775  0.5773
18718TIP3   OH277568   1.966   3.340  12.146  0.1687  0.0666  0.2600
18718TIP3    H177569   2.040   3.395  12.118  1.5127 -1.5840  0.4194
18718TIP3    H277570   1.991   3.306  12.231 -0.6520 -0.7364  0.2057
18719TIP3   OH277571   3.805   3.719  16.159  0.2967  0.3771 -0.0254
18719TIP3    H177572   3.754   3.759  16.230  0.6652  1.2841 -0.2507
18719TIP3    H277573   3.756   3.739  16.080 -0.2496 -0.8639 -0.0118
18720TIP3   OH277574   3.546   3.302  13.374 -0.6980  0.3445  0.0982
18720TIP3    H177575   3.509   3.221  13.410  0.5132 -1.3957 -2.3043
18720TIP3    H277576   3.493   3.319  13.295 -1.5095  2.4714  1.0177
18721TIP3   OH277577   5.905   5.272   2.964 -0.1412  1.0814  0.1825
18721TIP3    H177578   5.864   5.205   2.909  0.8555  1.0651 -0.5653
18721TIP3    H277579   5.962   5.223   3.023 -1.1500  1.1058  1.2113
18722TIP3   OH277580   5.273   0.221  13.582 -0.0830  0.0063  0.1998
18722TIP3    H177581   5.345   0.281  13.604  0.0071 -0.8546  2.6194
18722TIP3    H277582   5.194   0.268  13.609 -0.2657  0.1145 -0.5035
18723TIP3   OH277583   2.519   2.370  15.321  0.2494  0.5765  0.8538
18723TIP3    H177584   2.569   2.450  15.335 -0.5616  1.0785  0.8846
18723TIP3    H277585   2.565   2.304  15.374  2.3352  0.4194 -1.0270
18724TIP3   OH277586   2.552   3.572  12.251 -0.0638  0.5516  0.4560
18724TIP3    H177587   2.539   3.655  12.205 -1.2848  0.7249  1.0831
18724TIP3    H277588   2.644   3.551  12.236 -0.1457  1.1754 -1.0874
18725TIP3   OH277589   4.954   5.150   2.662 -0.5083 -0.4168 -0.1694
18725TIP3    H177590   4.948   5.156   2.567 -1.4087  1.2796 -0.0554
18725TIP3    H277591   4.930   5.060   2.683  2.7682 -1.7952 -1.6867
18726TIP3   OH277592   6.350   2.832   0.183 -0.2724  0.0748  0.4213
18726TIP3    H177593   6.322   2.923   0.195  1.1803  0.3969  1.6141
18726TIP3    H277594   6.269   2.782   0.184 -1.3950  1.5190 -2.6814
18727TIP3   OH277595   1.391   3.411  16.475  0.9368 -0.0761 -0.0063
18727TIP3    H177596   1.389   3.456  16.560 -2.3384 -0.0341  0.0540
18727TIP3    H277597   1.397   3.318  16.497 -0.7072 -0.1245  0.3982
18728TIP3   OH277598   5.249   4.631  10.845 -0.5918 -0.5915 -0.3286
18728TIP3    H177599   5.329   4.581  10.862 -0.2504 -0.8473 -2.5028
18728TIP3    H277600   5.280   4.719  10.821 -0.9581 -0.6319 -0.9660
18729TIP3   OH277601   5.173   3.284  16.615  0.4220  0.1650 -1.0814
18729TIP3    H177602   5.172   3.312  16.524 -0.3296 -1.2563 -1.5242
18729TIP3    H277603   5.147   3.192  16.613 -0.4912  0.3446  0.6473
18730TIP3   OH277604   5.342   1.148  13.967  0.6479 -0.0415  0.3422
18730TIP3    H177605   5.270   1.105  13.921 -0.7012  0.1091  2.1673
18730TIP3    H277606   5.369   1.085  14.034  0.9534  0.6020  0.8436
18731TIP3   OH277607   5.032   6.465  13.716 -0.0531 -0.4220 -0.1324
18731TIP3    H177608   5.073   6.493  13.797  0.1430  1.6662 -0.8953
18731TIP3    H277609   5.086   6.393  13.685  0.4569 -0.5724  1.0639
18732TIP3   OH277610   2.882   5.262  15.013 -0.3376  0.4483  0.0795
18732TIP3    H177611   2.913   5.304  14.933  0.4305  1.0201  0.6640
18732TIP3    H277612   2.947   5.194  15.031 -0.7389  0.0309  0.0000
18733TIP3   OH277613   1.163   6.195   1.159  0.1211  0.6160 -0.0702
18733TIP3    H177614   1.080   6.241   1.147  0.1047  0.4366 -0.6981
18733TIP3    H277615   1.229   6.253   1.121  0.2856  0.7535  0.4176
18734TIP3   OH277616   1.834   5.891  12.638  0.3178 -0.2691 -0.4092
18734TIP3    H177617   1.865   5.815  12.588  0.6948 -0.9774  0.8430
18734TIP3    H277618   1.775   5.853  12.704  2.0155  0.2213  1.5033
18735TIP3   OH277619   5.873   2.607   4.216  0.0653  0.0091  0.1122
18735TIP3    H177620   5.907   2.590   4.128  0.4445 -1.4562  0.5267
18735TIP3    H277621   5.896   2.699   4.232 -2.5092  1.2699 -2.3882
18736TIP3   OH277622   5.189   3.429  11.652  0.1249 -0.1493  0.2268
18736TIP3    H177623   5.231   3.343  11.658  0.1956 -0.2143 -1.0769
18736TIP3    H277624   5.176   3.444  11.559 -1.6792  0.3975  0.5110
18737TIP3   OH277625   0.708   6.173   2.338  0.5415  0.1931  0.2450
18737TIP3    H177626   0.628   6.143   2.295 -0.4525  2.9591 -0.0182
18737TIP3    H277627   0.771   6.181   2.267  0.6526 -0.6157  0.2357
18738TIP3   OH277628   4.724   4.876   2.320 -0.5030  0.0466 -0.2424
18738TIP3    H177629   4.819   4.874   2.317 -0.4378  1.2068  0.3475
18738TIP3    H277630   4.696   4.792   2.282  0.7556 -0.6385  0.2961
18739TIP3   OH277631   5.675   5.522  11.748 -0.0575 -0.0787  0.4685
18739TIP3    H177632   5.733   5.597  11.759  0.5222 -0.3320 -0.6977
18739TIP3    H277633   5.647   5.527  11.656 -1.0765 -0.5350  0.7491
18740TIP3   OH277634   2.151   1.158   5.537 -0.4297  0.2691  0.0811
18740TIP3    H177635   2.158   1.158   5.633 -1.6219  1.4436  0.1989
18740TIP3    H277636   2.058   1.172   5.520 -0.6335 -2.2419 -1.2771
18741TIP3   OH277637   5.407   1.002  12.289  0.0166 -0.0998 -0.5199
18741TIP3    H177638   5.390   0.930  12.349  0.9842  0.2452  0.1940
18741TIP3    H277639   5.378   1.081  12.335  3.8522  0.6138  1.0763
18742TIP3   OH277640   2.176   3.161  15.463 -0.5110 -0.3147 -0.1005
18742TIP3    H177641   2.263   3.169  15.503  0.4285  1.3312 -2.2488
18742TIP3    H277642   2.194   3.129  15.374 -2.0792  0.1634 -0.6176
18743TIP3   OH277643   6.183   2.137  11.207 -0.1602  0.0399  0.2162
18743TIP3    H177644   6.137   2.208  11.252  0.9028  0.8222  0.1066
18743TIP3    H277645   6.205   2.173  11.121  0.1824 -0.5105  0.0671
18744TIP3   OH277646   1.901   2.568  14.061  0.3512  0.1254 -0.5542
18744TIP3    H177647   1.868   2.532  13.979 -0.9890 -0.3266  0.1487
18744TIP3    H277648   1.879   2.661  14.058  1.0905  0.2909 -1.0670
18745TIP3   OH277649   5.166   6.318  14.845  0.0251 -0.3076 -0.4939
18745TIP3    H177650   5.126   6.282  14.924 -0.9135 -0.0218 -0.8260
18745TIP3    H277651   5.178   6.243  14.787 -0.1826 -0.3683 -0.4575
18746TIP3   OH277652   5.836   1.155   4.493  0.1567 -0.8449 -0.1104
18746TIP3    H177653   5.884   1.097   4.435  0.7092 -0.1869 -0.3261
18746TIP3    H277654   5.860   1.243   4.465  0.3062 -0.5139  0.9981
18747TIP3   OH277655   0.074   5.717   6.175  1.1307  0.1114 -0.2190
18747TIP3    H177656   0.054   5.726   6.268 -2.6184  0.3588 -0.8961
18747TIP3    H277657   0.065   5.806   6.140 -1.9683 -0.5340 -1.4066
18748TIP3   OH277658   2.488   0.600  11.353  0.3784  0.0743 -0.6458
18748TIP3    H177659   2.482   0.645  11.437 -0.9415 -0.4744 -0.4227
18748TIP3    H277660   2.417   0.535  11.355  0.8450 -0.5101 -1.8464
18749TIP3   OH277661   5.406   5.017   4.275  0.2493  0.2144 -0.1591
18749TIP3    H177662   5.443   4.934   4.306  0.4620  0.6264  0.7074
18749TIP3    H277663   5.317   5.019   4.310  0.2710  0.3928 -0.1125
18750TIP3   OH277664   1.336   2.402  10.967 -0.3652  0.2227 -0.3827
18750TIP3    H177665   1.281   2.344  11.020 -2.5216  2.1222 -0.3739
18750TIP3    H277666   1.408   2.426  11.024 -2.7170  2.3855  1.9754
18751TIP3   OH277667   4.701   2.284  12.321  0.1026 -0.3825 -0.1324
18751TIP3    H177668   4.731   2.198  12.350 -0.5297 -1.2969 -2.0156
18751TIP3    H277669   4.660   2.323  12.398 -0.1085 -2.0082  0.6155
18752TIP3   OH277670   2.345   0.954  10.926 -0.0221 -0.2563 -0.8842
18752TIP3    H177671   2.263   1.002  10.926  0.9557  1.5117 -1.2240
18752TIP3    H277672   2.341   0.899  11.005 -1.4723 -0.1541 -0.8624
18753TIP3   OH277673   3.625   6.707  15.154  0.6044  0.6643  0.3235
18753TIP3    H177674   3.609   6.796  15.185  0.8400  0.6383  0.5311
18753TIP3    H277675   3.597   6.708  15.062 -0.6210  0.5914  0.6818
18754TIP3   OH277676   5.537   4.516   5.961 -0.0493 -0.0268  0.8082
18754TIP3    H177677   5.521   4.578   6.032 -0.1703 -0.2056  0.9366
18754TIP3    H277678   5.549   4.432   6.005 -0.9091 -0.2868  0.5671
18755TIP3   OH277679   2.692   6.541  16.149 -0.0246 -0.0825 -0.9097
18755TIP3    H177680   2.734   6.627  16.147  2.0826 -1.0125 -0.2555
18755TIP3    H277681   2.728   6.496  16.072  0.9990 -1.2174  0.1693
18756TIP3   OH277682   4.622   0.991   3.650 -0.0422 -0.6131  0.5311
18756TIP3    H177683   4.601   1.024   3.738  0.0495 -0.7270  0.5951
18756TIP3    H277684   4.639   0.897   3.663  0.6799 -0.4903  0.5035
18757TIP3   OH277685   2.641   1.836   0.060 -0.2194  0.0174  1.1234
18757TIP3    H177686   2.687   1.781   0.123  0.6950  0.0082  0.4639
18757TIP3    H277687   2.667   1.926   0.082  0.6809 -0.0310  0.3319
18758TIP3   OH277688   0.996   3.125  15.720 -0.1355  0.1030  0.7312
18758TIP3    H177689   0.997   3.170  15.805  3.4990  0.4469  0.6603
18758TIP3    H277690   0.927   3.059  15.729 -1.7384  1.9064  2.9084
18759TIP3   OH277691   0.185   2.004  16.893  0.3127  0.0555 -0.0824
18759TIP3    H177692   0.162   1.971  16.806 -2.4421 -0.7896  0.8584
18759TIP3    H277693   0.273   1.969  16.909  0.6550 -0.2403 -2.2705
18760TIP3   OH277694   5.881   5.205  12.922 -0.0149 -0.1373  0.2167
18760TIP3    H177695   5.829   5.178  12.998 -1.2050  0.2143 -0.4538
18760TIP3    H277696   5.876   5.300  12.921  0.2533 -0.1237 -0.1246
18761TIP3   OH277697   0.391   0.212   0.775 -0.1131  0.5774 -0.9889
18761TIP3    H177698   0.456   0.157   0.732 -0.1902 -0.0084 -0.3731
18761TIP3    H277699   0.441   0.282   0.816  0.0027  0.8677 -1.6223
18762TIP3   OH277700   5.348   0.618  15.598  0.1959  0.4040 -0.4938
18762TIP3    H177701   5.431   0.665  15.595 -0.7715  2.2807  0.3970
18762TIP3    H277702   5.302   0.646  15.519 -0.3355  0.8676 -0.0273
18763TIP3   OH277703   6.278   3.431  13.975 -0.0895 -0.5200 -0.4853
18763TIP3    H177704   6.186   3.408  13.988 -0.4785  1.5772  0.9352
18763TIP3    H277705   6.312   3.446  14.063  0.8955  1.2428 -1.1144
18764TIP3   OH277706   4.382   1.493   0.363  0.3597 -0.0567  0.2473
18764TIP3    H177707   4.378   1.531   0.450 -0.5926  1.1777 -0.3002
18764TIP3    H277708   4.473   1.505   0.336  0.3366  0.8403  0.5358
18765TIP3   OH277709   6.021   0.599  15.543  0.0446  0.2262  0.3947
18765TIP3    H177710   5.944   0.638  15.502  0.8474  1.4853  0.0331
18765TIP3    H277711   6.055   0.667  15.600  1.2785 -0.0455  0.0137
18766TIP3   OH277712   3.624   5.755  11.934 -0.2910 -0.0479 -0.1223
18766TIP3    H177713   3.591   5.666  11.931  0.8582 -0.4679 -1.1319
18766TIP3    H277714   3.621   5.785  11.844 -0.7344  0.9772  0.2138
18767TIP3   OH277715   5.807   2.648  12.361 -0.0455 -0.0027 -0.3772
18767TIP3    H177716   5.894   2.649  12.403 -0.3392 -2.1291  0.4185
18767TIP3    H277717   5.757   2.714  12.409  0.3577 -0.6851  1.0631
18768TIP3   OH277718   2.134   5.284  14.315  0.4869 -0.4353  0.0780
18768TIP3    H177719   2.185   5.275  14.235 -0.3631 -0.5793 -0.4634
18768TIP3    H277720   2.091   5.369  14.306  1.4829  0.2075  1.0481
18769TIP3   OH277721   0.726   6.538   4.702  0.3246  0.4581  0.0988
18769TIP3    H177722   0.720   6.546   4.797 -0.7234 -2.9589  0.4390
18769TIP3    H277723   0.734   6.444   4.686  2.2237  1.0134 -3.1516
18770TIP3   OH277724   5.543   3.575  11.685 -0.2130 -0.2012  0.0779
18770TIP3    H177725   5.615   3.594  11.745  0.8225 -0.1868 -1.1270
18770TIP3    H277726   5.521   3.660  11.646 -0.2907 -0.3546 -0.2146
18771TIP3   OH277727   2.670   1.938   5.317 -0.0546 -0.1497  0.0289
18771TIP3    H177728   2.712   1.852   5.313 -1.5188 -0.9533  1.0813
18771TIP3    H277729   2.693   1.971   5.404  0.0195  0.2662 -0.1483
18772TIP3   OH277730   3.393   0.114   4.015  0.6519  0.0788  0.2710
18772TIP3    H177731   3.454   0.183   4.042  1.1850 -0.4290  0.3647
18772TIP3    H277732   3.309   0.160   4.005  0.7746  0.5694  1.2980
18773TIP3   OH277733   3.651   1.710   3.605 -0.0457 -0.5415 -0.2404
18773TIP3    H177734   3.642   1.680   3.696  1.9598 -1.1703 -0.1863
18773TIP3    H277735   3.674   1.803   3.613 -0.7984 -0.3578 -0.1573
18774TIP3   OH277736   3.889   0.758  12.410  0.2587 -0.4543 -0.5332
18774TIP3    H177737   3.813   0.719  12.452  0.3156 -1.1587 -1.0694
18774TIP3    H277738   3.862   0.772  12.319  0.9510 -1.2223 -0.8601
18775TIP3   OH277739   0.277   0.896  14.073 -0.2828 -0.8906  0.3768
18775TIP3    H177740   0.341   0.903  14.001 -1.2993  0.3523 -0.4463
18775TIP3    H277741   0.261   0.802  14.081  0.3918 -1.1030 -0.5273
18776TIP3   OH277742   2.471   6.222  10.988 -0.3208  0.4225 -0.1427
18776TIP3    H177743   2.499   6.216  10.897  0.4903  2.8051 -0.1252
18776TIP3    H277744   2.378   6.201  10.987  0.0561 -1.3036 -1.2279
18777TIP3   OH277745   2.329   1.261   5.361  0.0230 -0.4248  0.5170
18777TIP3    H177746   2.399   1.200   5.385  1.6068  1.4228  0.7501
18777TIP3    H277747   2.251   1.223   5.402  0.9281 -2.2990  0.6403
18778TIP3   OH277748   2.235   5.810   0.522 -0.2557 -0.0555 -0.3839
18778TIP3    H177749   2.187   5.747   0.468 -0.2535 -2.3586  2.0975
18778TIP3    H277750   2.327   5.787   0.509 -0.1927  0.0716 -0.1643
18779TIP3   OH277751   1.493   2.409   2.774 -0.0674  0.0446  0.3033
18779TIP3    H177752   1.453   2.349   2.837 -0.4916  0.2747  0.2589
18779TIP3    H277753   1.440   2.489   2.781 -1.8811 -0.8168 -2.2724
18780TIP3   OH277754   1.124   2.345   3.954 -0.1082  0.8174  0.1327
18780TIP3    H177755   1.074   2.335   4.035 -0.7219  2.0931 -0.0588
18780TIP3    H277756   1.203   2.392   3.981  1.7905 -2.3969  0.6861
18781TIP3   OH277757   0.688   2.809   6.200 -0.0349  0.3731  0.2210
18781TIP3    H177758   0.672   2.890   6.248 -0.9890 -0.8506  2.0901
18781TIP3    H277759   0.763   2.769   6.244  0.2724  0.1034 -0.5251
18782TIP3   OH277760   6.287   4.069  15.748 -0.0672 -0.4255  0.7230
18782TIP3    H177761   6.346   4.127  15.700  0.5510 -0.3970  1.5002
18782TIP3    H277762   6.209   4.122  15.762 -0.8210 -0.8668 -1.4036
18783TIP3   OH277763   5.725   2.042  16.233 -0.1747 -0.2696 -0.2479
18783TIP3    H177764   5.707   2.075  16.145  1.9345 -1.5829 -1.2575
18783TIP3    H277765   5.787   2.105  16.270  0.1546 -0.5458 -0.3236
18784TIP3   OH277766   3.178   2.342  16.942  0.0278  0.3571  0.3528
18784TIP3    H177767   3.117   2.411  16.970  0.1365  0.4055  0.4706
18784TIP3    H277768   3.253   2.389  16.907  0.1798  0.3020  0.5983
18785TIP3   OH277769   1.071   4.021  16.417 -0.6727  0.1413 -0.1699
18785TIP3    H177770   1.141   3.977  16.466 -1.1157 -0.4932 -0.0904
18785TIP3    H277771   1.010   4.052  16.485  0.0306  1.6152 -0.1705
18786TIP3   OH277772   3.566   1.176  12.798  0.6778 -0.6231 -0.5001
18786TIP3    H177773   3.530   1.246  12.744  1.5272 -1.0803 -1.6983
18786TIP3    H277774   3.581   1.104  12.736  0.6775 -1.5421  0.5410
18787TIP3   OH277775   6.371   3.998   1.010 -0.1718 -0.3814 -0.1683
18787TIP3    H177776   6.326   4.081   0.997  1.8167  1.0612  1.4604
18787TIP3    H277777   6.328   3.959   1.087 -0.5224 -0.4264 -0.3881
18788TIP3   OH277778   0.319   0.358   4.965 -0.1943 -0.0983 -0.4926
18788TIP3    H177779   0.364   0.313   5.036 -0.4339 -0.5990 -0.6564
18788TIP3    H277780   0.365   0.442   4.957 -0.4879  0.1812  0.5898
18789TIP3   OH277781   2.246   5.199  13.947  0.2328 -0.0123 -0.3161
18789TIP3    H177782   2.174   5.263  13.951  0.9100  0.7188  0.8091
18789TIP3    H277783   2.285   5.202  14.034  2.3293  0.4517 -1.2076
18790TIP3   OH277784   5.962   4.649   4.380 -0.2130  0.3327 -0.0358
18790TIP3    H177785   6.027   4.644   4.450  1.5841 -0.3698 -1.6471
18790TIP3    H277786   6.006   4.698   4.310  0.3966 -3.6669 -2.8256
18791TIP3   OH277787   1.654   4.500   1.211 -0.0693 -0.0775 -0.2167
18791TIP3    H177788   1.703   4.567   1.164  0.3130  0.0245  0.3241
18791TIP3    H277789   1.709   4.422   1.208 -0.2721 -0.2194 -0.3681
18792TIP3   OH277790   5.424   2.285   0.471 -0.3840  0.2792  0.1556
18792TIP3    H177791   5.346   2.235   0.492  0.3190 -0.2727  1.6061
18792TIP3    H277792   5.402   2.375   0.496 -1.5292  0.7162 -2.1486
18793TIP3   OH277793   6.486   5.654  15.543 -0.4839  0.2713  0.6030
18793TIP3    H177794   6.392   5.675  15.540 -0.6378 -0.4333  0.3674
18793TIP3    H277795   6.521   5.713  15.610 -1.0832  0.5796  0.6581
18794TIP3   OH277796   4.418   3.738  15.013  0.2656 -0.3246  0.7444
18794TIP3    H177797   4.484   3.710  14.950 -0.5984 -1.0437  0.1412
18794TIP3    H277798   4.464   3.743  15.096  1.1648 -0.4389  0.2583
18795TIP3   OH277799   3.930   4.883   4.989  0.3401 -0.2535  0.1441
18795TIP3    H177800   4.012   4.849   5.026  2.0198  1.3105 -1.8203
18795TIP3    H277801   3.939   4.870   4.895 -1.3975  0.5608 -0.1801
18796TIP3   OH277802   6.624   6.157  12.233  0.6096 -0.0276  0.0900
18796TIP3    H177803   6.661   6.181  12.318 -1.6176 -1.0652  1.4357
18796TIP3    H277804   6.568   6.230  12.209 -0.6496 -0.7556  0.7336
18797TIP3   OH277805   3.769   3.703  12.854 -0.3502  0.0470  0.0819
18797TIP3    H177806   3.697   3.766  12.846 -0.9601 -0.9055 -2.8045
18797TIP3    H277807   3.792   3.680  12.764  2.2578 -1.2077  0.9625
18798TIP3   OH277808   3.272   3.227   6.381  0.1279  0.1400  0.1174
18798TIP3    H177809   3.270   3.319   6.405  0.1163  0.5197 -1.2524
18798TIP3    H277810   3.339   3.221   6.313 -0.2019 -0.7749 -0.1536
18799TIP3   OH277811   0.536   5.564   3.764  0.0427 -0.1654 -0.6550
18799TIP3    H177812   0.599   5.509   3.811 -0.8094 -0.3987  0.2706
18799TIP3    H277813   0.526   5.642   3.819 -1.5714 -0.7954  0.0340
18800TIP3   OH277814   6.756   2.687  13.866  0.5272 -0.6122  0.6975
18800TIP3    H177815   6.705   2.608  13.847  0.7566 -0.8980  1.2500
18800TIP3    H277816   6.808   2.701  13.787 -0.0191 -0.6183  0.3303
18801TIP3   OH277817   6.575   3.496  12.437 -0.0976  0.4246  0.0675
18801TIP3    H177818   6.670   3.500  12.451  0.2123  0.0065 -1.6603
18801TIP3    H277819   6.539   3.562  12.496  1.6250  3.4439 -2.0488
18802TIP3   OH277820   0.051   5.741  10.475  0.3315 -0.3677 -0.5183
18802TIP3    H177821   0.142   5.719  10.492  0.7099 -0.7180 -2.7721
18802TIP3    H277822   0.011   5.658  10.447 -0.2555  0.1301 -1.1810
18803TIP3   OH277823   0.150   0.263   0.523  0.3495 -0.1216 -0.0700
18803TIP3    H177824   0.065   0.301   0.502  0.0929 -0.3748  0.5188
18803TIP3    H277825   0.134   0.206   0.598  0.8959 -0.7378 -0.4058
18804TIP3   OH277826   6.227   3.028   0.351 -0.0802 -0.0764 -0.3426
18804TIP3    H177827   6.294   3.094   0.367  0.1798 -0.2305 -0.7842
18804TIP3    H277828   6.218   2.982   0.434  0.5357 -0.2182 -0.3566
18805TIP3   OH277829   4.208   2.740   5.706 -0.2577 -0.1896  0.2905
18805TIP3    H177830   4.156   2.739   5.786 -1.7085  2.4626 -0.5031
18805TIP3    H277831   4.153   2.694   5.642  0.0193 -0.5821  0.3338
18806TIP3   OH277832   5.058   4.516   3.328 -0.7422  0.1474 -0.0569
18806TIP3    H177833   5.075   4.576   3.255  0.7526 -1.0111 -0.7259
18806TIP3    H277834   4.967   4.489   3.316 -1.0064  1.1915 -0.5400
18807TIP3   OH277835   3.231   1.768  13.687 -0.1355  0.0573 -0.4378
18807TIP3    H177836   3.140   1.775  13.658 -0.5516  0.2338  0.8661
18807TIP3    H277837   3.283   1.787  13.608 -1.2242  2.0898 -0.7265
18808TIP3   OH277838   5.057   5.443  15.571 -0.0853  0.3390  0.7385
18808TIP3    H177839   5.144   5.473  15.599 -0.1244  1.8917 -0.6165
18808TIP3    H277840   5.060   5.449  15.476 -2.0715  1.7096  0.7013
18809TIP3   OH277841   6.431   2.844  16.613 -0.2630 -0.1248 -0.4029
18809TIP3    H177842   6.441   2.787  16.536 -3.1659 -0.4509 -0.6355
18809TIP3    H277843   6.435   2.784  16.688 -0.9359 -0.2947 -0.5054
18810TIP3   OH277844   5.116   3.370   6.815  0.3430 -0.0924  0.3788
18810TIP3    H177845   5.156   3.287   6.786 -1.3408 -1.3107  1.3685
18810TIP3    H277846   5.178   3.405   6.879  0.6683 -1.0422  0.6043
18811TIP3   OH277847   0.112   5.795   4.591  0.3582  0.6406  0.0960
18811TIP3    H177848   0.202   5.829   4.599  0.0610  1.3393  0.5519
18811TIP3    H277849   0.104   5.771   4.498  1.2529 -0.1225  0.2040
18812TIP3   OH277850   0.509   4.843   0.369 -0.1559 -0.0122 -0.4030
18812TIP3    H177851   0.585   4.834   0.427 -0.6442 -1.3723  0.0687
18812TIP3    H277852   0.501   4.937   0.354  0.8001  0.2537  0.6484
18813TIP3   OH277853   4.170   5.077  13.197 -0.2887 -0.1340  0.9458
18813TIP3    H177854   4.189   5.003  13.139  0.0751  1.2035 -0.7343
18813TIP3    H277855   4.256   5.106  13.227 -0.3071  0.4970  0.4103
18814TIP3   OH277856   2.113   2.760   2.340 -0.8741  0.1922  0.2236
18814TIP3    H177857   2.048   2.824   2.369 -2.1031 -1.0463  0.2906
18814TIP3    H277858   2.063   2.692   2.296  0.3361 -0.9363  0.5027
18815TIP3   OH277859   2.200   0.874   3.071  0.3099 -0.0583  0.1238
18815TIP3    H177860   2.198   0.778   3.076 -2.0541 -0.0352  0.9996
18815TIP3    H277861   2.220   0.893   2.980 -2.2264 -1.4848 -0.8360
18816TIP3   OH277862   5.094   1.770  14.952 -0.2663 -0.1353 -0.0795
18816TIP3    H177863   5.032   1.824  14.902  0.1688  0.1546 -0.3138
18816TIP3    H277864   5.140   1.719  14.886  0.3093  0.2464  0.0230
18817TIP3   OH277865   4.869   3.151  16.459 -0.7321 -0.2285  0.0347
18817TIP3    H177866   4.830   3.095  16.525 -0.2331  0.6373  1.0936
18817TIP3    H277867   4.949   3.106  16.432 -1.3166 -0.9441 -0.5529
18818TIP3   OH277868   1.069   4.426   5.624 -0.2891 -0.4772  0.1694
18818TIP3    H177869   1.020   4.482   5.684 -0.0204  1.1063 -1.0166
18818TIP3    H277870   1.152   4.409   5.670 -0.6454 -0.4684  0.8229
18819TIP3   OH277871   6.031   6.421  11.500  0.4041 -0.1292 -0.2725
18819TIP3    H177872   5.985   6.346  11.537  1.0855 -0.2820  0.3016
18819TIP3    H277873   6.083   6.456  11.573  2.6398 -1.0942 -1.2909
18820TIP3   OH277874   6.225   4.502  16.580  0.3507  0.5675 -0.2194
18820TIP3    H177875   6.144   4.517  16.628  1.4323 -0.4299  2.0497
18820TIP3    H277876   6.229   4.407  16.566  0.5128  0.7368 -1.5318
18821TIP3   OH277877   2.918   1.739  14.240  0.4956  0.1400  0.2303
18821TIP3    H177878   2.977   1.665  14.254  0.6626  0.3983  0.9388
18821TIP3    H277879   2.964   1.796  14.178  0.1871 -0.5413 -0.6389
18822TIP3   OH277880   5.715   6.191   0.030 -0.3320  0.0004 -0.5977
18822TIP3    H177881   5.700   6.273   0.077  1.4972 -0.0202  0.0913
18822TIP3    H277882   5.720   6.124   0.099 -1.4862 -0.6700 -1.1323
18823TIP3   OH277883   0.954   2.280   5.451 -0.1180 -0.4712 -0.1067
18823TIP3    H177884   0.950   2.249   5.541  0.5540 -0.0207  0.0828
18823TIP3    H277885   0.903   2.361   5.451 -0.2010 -0.5226 -0.1593
18824TIP3   OH277886   3.076   3.324  14.187 -0.8929  0.3280  0.0293
18824TIP3    H177887   3.061   3.253  14.126  0.2372 -1.5026  1.7592
18824TIP3    H277888   3.137   3.382  14.142  1.6043 -2.0621  0.0643
18825TIP3   OH277889   2.972   1.483  11.707  0.4875 -0.2403  0.5487
18825TIP3    H177890   2.958   1.562  11.655  1.7858 -1.2770 -1.4985
18825TIP3    H277891   2.940   1.412  11.651 -0.2472 -1.2294  2.1596
18826TIP3   OH277892   4.836   6.130   4.098 -0.0560  0.0861  0.7159
18826TIP3    H177893   4.748   6.095   4.084 -0.7352  2.1921 -0.6897
18826TIP3    H277894   4.827   6.185   4.176  0.1023  0.0281  0.7742
18827TIP3   OH277895   0.142   5.069  15.488  0.3896 -0.4342 -0.2636
18827TIP3    H177896   0.178   4.985  15.516 -1.2776 -0.6007  1.6016
18827TIP3    H277897   0.218   5.123  15.468  1.5058 -2.2151 -1.0883
18828TIP3   OH277898   0.460   6.007   5.763  0.3659 -0.5299  0.0310
18828TIP3    H177899   0.472   6.101   5.774 -1.6519 -0.0605 -1.2824
18828TIP3    H277900   0.523   5.967   5.824  1.2480  1.6359  0.6244
18829TIP3   OH277901   0.306   1.557  15.095 -0.3851  0.2929 -0.0951
18829TIP3    H177902   0.328   1.586  15.184  2.4504  1.1773 -1.0021
18829TIP3    H277903   0.304   1.462  15.101  1.2775  0.2701  0.6427
18830TIP3   OH277904   6.534   6.228  16.424 -0.1517  0.8777 -0.1075
18830TIP3    H177905   6.600   6.165  16.452 -2.5290 -0.7695  2.1946
18830TIP3    H277906   6.548   6.236  16.329  1.0661 -2.1905 -0.3135
18831TIP3   OH277907   5.077   5.994   2.605  0.2978 -0.0989  0.6783
18831TIP3    H177908   5.161   5.960   2.572 -0.2403 -1.9349  1.0562
18831TIP3    H277909   5.096   6.084   2.630  1.9234 -0.1779 -0.1169
18832TIP3   OH277910   4.593   4.238   4.765 -0.0299  0.2029 -0.3918
18832TIP3    H177911   4.528   4.254   4.696  0.7270  1.2154 -0.8914
18832TIP3    H277912   4.597   4.320   4.814 -0.5889 -0.5233  0.9110
18833TIP3   OH277913   4.370   4.994   3.388  0.4228 -0.1995  0.0189
18833TIP3    H177914   4.453   5.038   3.369  0.5648  0.0900  1.1935
18833TIP3    H277915   4.358   4.933   3.316  0.8772  0.8463 -0.9828
18834TIP3   OH277916   5.304   3.074  14.477  0.1393 -0.0916  0.0566
18834TIP3    H177917   5.397   3.095  14.469  0.3772 -1.4718 -1.1750
18834TIP3    H277918   5.274   3.059  14.387 -1.1082 -0.3474  0.4848
18835TIP3   OH277919   2.732   4.976  13.516  0.0758  0.3308  0.0353
18835TIP3    H177920   2.688   4.893  13.496  0.4680 -0.4115  2.0101
18835TIP3    H277921   2.662   5.034  13.546 -0.2796  0.9449 -1.8348
18836TIP3   OH277922   1.422   0.485  14.092 -0.1846 -0.2650 -0.3849
18836TIP3    H177923   1.382   0.506  14.007 -0.6786  1.1346  0.1601
18836TIP3    H277924   1.501   0.436  14.070 -0.2839  0.1141 -1.6605
18837TIP3   OH277925   4.363   1.922  12.543  0.1833 -0.0023  0.1466
18837TIP3    H177926   4.417   1.868  12.601 -1.2951 -0.2956  1.2854
18837TIP3    H277927   4.300   1.965  12.601  0.6578  2.2059 -0.8345
18838TIP3   OH277928   6.227   1.372  14.268  0.1229  0.5745  0.2828
18838TIP3    H177929   6.214   1.388  14.175 -2.8167  0.7965  0.6433
18838TIP3    H277930   6.262   1.455  14.302  2.8117 -0.0276 -0.8034
18839TIP3   OH277931   5.704   1.098  14.585  0.2173  0.6632 -0.2219
18839TIP3    H177932   5.741   1.067  14.667  2.2840 -1.2817 -1.7813
18839TIP3    H277933   5.779   1.118  14.530 -0.9887 -0.6655 -2.5406
18840TIP3   OH277934   2.580   3.830  12.866 -0.1527  0.4251 -0.7216
18840TIP3    H177935   2.525   3.774  12.921  1.3070 -0.8484 -0.4939
18840TIP3    H277936   2.637   3.769  12.819  1.3186  1.7055 -0.6616
18841TIP3   OH277937   0.511   4.494   1.868  0.5159  0.1675  0.0720
18841TIP3    H177938   0.522   4.556   1.796 -0.5016  0.6015  0.2811
18841TIP3    H277939   0.576   4.522   1.933  1.3737 -0.1713 -0.6253
18842TIP3   OH277940   5.274   1.229  12.364  0.0798  0.5195 -0.1750
18842TIP3    H177941   5.315   1.281  12.433  0.6288  0.1298 -0.1958
18842TIP3    H277942   5.314   1.261  12.283  0.7216 -0.1898 -0.1544
18843TIP3   OH277943   4.445   3.472   1.961  0.4467  0.5955 -1.4013
18843TIP3    H177944   4.500   3.498   2.034  0.2283  1.2693 -1.4756
18843TIP3    H277945   4.417   3.554   1.921 -0.6371  0.2681 -1.3504
18844TIP3   OH277946   3.663   2.377  16.545  0.3930  0.7005 -0.3439
18844TIP3    H177947   3.742   2.380  16.491 -0.8353  1.2962 -2.1965
18844TIP3    H277948   3.629   2.467  16.544  0.5941  0.8536  1.8971
18845TIP3   OH277949   0.297   2.796  15.807  0.6724 -0.4167 -0.3701
18845TIP3    H177950   0.257   2.806  15.720  0.3103  0.3669 -0.1245
18845TIP3    H277951   0.315   2.702  15.814 -1.1868 -0.8157 -0.4789
18846TIP3   OH277952   0.131   2.083  16.161 -0.1999  0.1256  0.1674
18846TIP3    H177953   0.195   2.146  16.194  0.3434 -0.5765  0.4882
18846TIP3    H277954   0.047   2.114  16.195  0.0190  0.8627  0.0379
18847TIP3   OH277955   3.964   5.053   3.996  0.4922  0.2410 -0.7664
18847TIP3    H177956   3.937   5.051   3.904 -0.5059 -0.4895 -0.4675
18847TIP3    H277957   3.888   5.086   4.043 -0.5018 -3.1029  0.2483
18848TIP3   OH277958   2.067   2.938  13.831 -0.1884  0.2921 -0.0392
18848TIP3    H177959   2.148   2.909  13.872  0.4238  1.4080 -0.3970
18848TIP3    H277960   2.094   2.971  13.745 -1.5584 -2.9595 -1.8781
18849TIP3   OH277961   6.423   0.725  15.424  0.7006  0.0666  0.1769
18849TIP3    H177962   6.354   0.675  15.381  0.0632  0.7955  0.3196
18849TIP3    H277963   6.398   0.817  15.410  2.2379  0.3942 -0.7629
18850TIP3   OH277964   6.184   3.804   5.884  0.0620 -0.3965  0.0801
18850TIP3    H177965   6.221   3.865   5.949  0.3596  0.0123 -0.4567
18850TIP3    H277966   6.097   3.839   5.865  0.6495  0.5570 -1.0646
18851TIP3   OH277967   4.552   4.833   0.663  0.2198  0.0898 -0.0029
18851TIP3    H177968   4.585   4.830   0.753  1.7237  0.5947 -0.5051
18851TIP3    H277969   4.574   4.921   0.632  1.4174 -0.6743 -1.4579
18852TIP3   OH277970   5.442   0.236   5.325  0.3316  0.0844  0.0094
18852TIP3    H177971   5.536   0.237   5.341  0.1417 -1.0305  1.3895
18852TIP3    H277972   5.410   0.319   5.361  0.4353 -0.7533  2.1627
18853TIP3   OH277973   2.929   6.081  15.893  0.1575 -0.0266  0.6208
18853TIP3    H177974   2.995   6.027  15.850  0.6095 -0.6829  2.0687
18853TIP3    H277975   2.952   6.171  15.870 -0.4224 -0.3649 -1.5785
18854TIP3   OH277976   2.538   3.059  16.310 -0.2605  0.4298 -0.0048
18854TIP3    H177977   2.524   2.995  16.241 -0.3552  0.8706 -0.3965
18854TIP3    H277978   2.631   3.051  16.332 -0.3389 -0.0571  0.1701
18855TIP3   OH277979   3.869   6.367  14.103 -0.1828  0.1912 -0.0715
18855TIP3    H177980   3.883   6.441  14.162  0.2126  0.5240 -0.5654
18855TIP3    H277981   3.855   6.292  14.160  1.1297  0.3272  0.4613
18856TIP3   OH277982   6.694   3.886  14.642 -0.1241  0.1904  0.5427
18856TIP3    H177983   6.729   3.853  14.559 -0.5509  1.3124 -0.0977
18856TIP3    H277984   6.757   3.952  14.670  0.8129 -1.2064  1.9052
18857TIP3   OH277985   0.494   2.241   4.197 -0.1572  0.3983  0.3044
18857TIP3    H177986   0.488   2.146   4.210  1.3519  0.4363  1.6372
18857TIP3    H277987   0.405   2.273   4.211 -0.7153 -0.8222 -0.2739
18858TIP3   OH277988   1.788   4.739   2.128  0.0254 -0.2566  0.4803
18858TIP3    H177989   1.858   4.788   2.085  0.6589 -0.1923  1.5510
18858TIP3    H277990   1.708   4.765   2.083  0.7544 -0.8634 -1.2405
18859TIP3   OH277991   6.495   3.845  16.296  0.2502 -0.3011  0.1676
18859TIP3    H177992   6.415   3.805  16.263  0.5684 -1.0013  0.2279
18859TIP3    H277993   6.552   3.771  16.318  0.5721  0.1684  0.9732
18860TIP3   OH277994   5.059   1.454  12.624 -0.4445 -0.3891  0.0574
18860TIP3    H177995   5.025   1.397  12.555  2.3710 -2.0370 -0.0989
18860TIP3    H277996   5.130   1.503  12.583 -0.4077  0.5340  1.1626
18861TIP3   OH277997   0.345   2.269   3.529  0.3336  0.2626  0.5791
18861TIP3    H177998   0.356   2.175   3.515  2.1494  0.4555  0.5604
18861TIP3    H277999   0.433   2.302   3.541 -0.3461  1.8442  1.4925
18862TIP3   OH278000   0.992   0.764  13.296 -0.5485 -0.2688 -0.3509
18862TIP3    H178001   0.913   0.749  13.347 -0.2533  0.0304  0.1947
18862TIP3    H278002   0.973   0.725  13.211 -0.0239 -3.2719  0.8050
18863TIP3   OH278003   4.991   4.781  11.127  0.0088  0.2668 -0.0337
18863TIP3    H178004   4.955   4.708  11.077 -0.7359  0.8842 -0.4284
18863TIP3    H278005   5.020   4.844  11.060  2.3570 -0.4280  0.2537
18864TIP3   OH278006   5.748   5.064  16.801 -0.4318 -0.2078  0.3902
18864TIP3    H178007   5.780   5.105  16.881  0.8376  1.8417 -1.0645
18864TIP3    H278008   5.756   4.970  16.817  0.4223  0.1528  2.3820
18865TIP3   OH278009   3.596   4.650   0.957 -0.3614  0.1359  0.2091
18865TIP3    H178010   3.518   4.628   0.907 -0.8869  0.3914  0.8926
18865TIP3    H278011   3.610   4.574   1.014  0.0066  0.0096 -0.0440
18866TIP3   OH278012   4.476   5.838  15.187  0.2522 -0.1162 -0.0176
18866TIP3    H178013   4.538   5.902  15.153  0.3935  0.9976  2.1405
18866TIP3    H278014   4.506   5.754  15.153  2.2966  0.5351  0.0645
18867TIP3   OH278015   0.579   1.112   3.274 -0.2206  0.3856 -0.0486
18867TIP3    H178016   0.637   1.077   3.206  0.3287  0.4291  0.3904
18867TIP3    H278017   0.634   1.115   3.353 -0.5936  1.1689  0.1844
18868TIP3   OH278018   5.760   0.102   3.174 -0.5806 -0.1731 -0.2221
18868TIP3    H178019   5.682   0.046   3.180 -0.5949 -0.2259 -0.8122
18868TIP3    H278020   5.725   0.191   3.171 -0.7438 -0.2605 -2.2600
18869TIP3   OH278021   5.520   1.027  14.388  0.5808  0.1856  0.1366
18869TIP3    H178022   5.519   0.932  14.392 -0.5260  0.2126  1.0735
18869TIP3    H278023   5.597   1.052  14.439  1.0739 -0.2038 -0.4060
18870TIP3   OH278024   3.051   2.488  11.598  0.2084  0.5560 -0.0450
18870TIP3    H178025   3.040   2.447  11.512 -0.6877 -0.7565  0.6627
18870TIP3    H278026   3.145   2.505  11.605  0.3887  0.0250 -0.9899
18871TIP3   OH278027   0.924   0.662  16.051 -0.4431 -0.3923 -0.1903
18871TIP3    H178028   0.933   0.739  15.995 -0.2403 -0.7386 -0.6440
18871TIP3    H278029   0.830   0.646  16.057 -0.4552 -0.5144 -0.6610
18872TIP3   OH278030   5.970   2.344  12.529  0.2230 -0.1612 -0.0217
18872TIP3    H178031   6.011   2.427  12.553  0.7493 -0.9588  2.0295
18872TIP3    H278032   5.878   2.355  12.553  0.1672  0.0247 -0.3127
18873TIP3   OH278033   1.161   1.827   5.216  0.1554  0.1165 -0.7156
18873TIP3    H178034   1.149   1.821   5.121 -0.6621  0.5526 -0.6465
18873TIP3    H278035   1.073   1.844   5.250 -0.2311 -3.4163  0.4299
18874TIP3   OH278036   2.415   3.299  12.713  0.1995  0.5783 -0.5624
18874TIP3    H178037   2.381   3.379  12.753  0.3496  0.3514  0.0248
18874TIP3    H278038   2.419   3.319  12.619 -0.1336  1.1208 -0.4662
18875TIP3   OH278039   5.791   3.107  15.243  0.7029  0.2105 -0.4425
18875TIP3    H178040   5.721   3.169  15.221  0.7125  0.2074 -0.4817
18875TIP3    H278041   5.780   3.036  15.180  0.9151  0.3421 -0.6304
18876TIP3   OH278042   2.669   2.586  12.572  0.1327  0.1186  0.2069
18876TIP3    H178043   2.592   2.582  12.516  0.5892 -2.4566 -0.3767
18876TIP3    H278044   2.724   2.653  12.532 -0.7650  0.2943 -0.7817
18877TIP3   OH278045   6.331   4.394  12.181 -0.4541  0.5484 -0.1078
18877TIP3    H178046   6.290   4.480  12.181 -1.9365 -0.1396 -0.7487
18877TIP3    H278047   6.314   4.358  12.094  0.7161 -0.1518 -0.0810
18878TIP3   OH278048   3.979   3.190   5.678  0.0511  0.4078 -0.0880
18878TIP3    H178049   4.045   3.123   5.659  0.8103  0.8874  0.7639
18878TIP3    H278050   4.001   3.221   5.766 -1.7999  0.0294  0.5386
18879TIP3   OH278051   0.507   4.865   4.506 -0.3718  0.0034 -0.4849
18879TIP3    H178052   0.526   4.906   4.591  0.5938 -0.2743 -0.5540
18879TIP3    H278053   0.411   4.866   4.500 -0.3934  1.6736 -0.2136
18880TIP3   OH278054   5.650   1.463  11.316 -0.3662  0.1538  0.1691
18880TIP3    H178055   5.649   1.457  11.220 -0.3865  0.0938  0.1734
18880TIP3    H278056   5.663   1.556  11.333  0.0118  0.1151  0.1071
18881TIP3   OH278057   3.797   2.982   3.631 -0.7833 -0.0526  0.1796
18881TIP3    H178058   3.739   3.056   3.646  1.1061  0.9748  3.1773
18881TIP3    H278059   3.749   2.906   3.664 -1.5626  0.2849 -0.1607
18882TIP3   OH278060   1.207   1.523   1.647  0.2337  0.5144 -0.5527
18882TIP3    H178061   1.132   1.486   1.599 -0.1823  0.6077  0.0201
18882TIP3    H278062   1.190   1.500   1.738 -0.3611  2.6259 -0.0810
18883TIP3   OH278063   6.144   1.550  16.695 -0.2636 -0.1040  0.9654
18883TIP3    H178064   6.146   1.597  16.778  0.2471 -0.5434  1.2057
18883TIP3    H278065   6.055   1.514  16.690 -0.5855  0.6890  0.8827
18884TIP3   OH278066   5.066   1.226   2.808 -0.2126  0.0572  0.2311
18884TIP3    H178067   5.066   1.158   2.741  1.4780 -0.8807  1.1279
18884TIP3    H278068   4.973   1.237   2.830 -0.5067 -2.5127  0.6033
18885TIP3   OH278069   6.007   6.562   3.106  0.1009  0.0470 -0.3496
18885TIP3    H178070   6.039   6.652   3.109  1.0073 -0.1582 -2.1765
18885TIP3    H278071   5.974   6.545   3.194 -0.8334  2.4160 -0.1690
18886TIP3   OH278072   4.717   4.067  13.125  0.2463  0.2765 -0.0634
18886TIP3    H178073   4.809   4.054  13.149 -0.0639 -1.2560  0.3770
18886TIP3    H278074   4.710   4.162  13.112  1.6452  0.5522  0.8805
18887TIP3   OH278075   5.238   2.414   6.577  0.0163 -0.0547 -0.0177
18887TIP3    H178076   5.181   2.459   6.514 -0.0024  1.8128  1.2638
18887TIP3    H278077   5.177   2.364   6.632  0.1640 -3.5972 -2.7421
18888TIP3   OH278078   4.341   4.049   3.516 -0.3772  0.9762  0.1237
18888TIP3    H178079   4.298   4.126   3.554 -0.7135  0.7311  0.2408
18888TIP3    H278080   4.310   3.976   3.569  0.1197  0.7871  0.1560
18889TIP3   OH278081   2.450   5.704   0.683 -0.0302  0.4480 -0.2529
18889TIP3    H178082   2.519   5.768   0.703 -0.2411  0.4707  0.4499
18889TIP3    H278083   2.398   5.700   0.763  0.9459 -1.8604  0.3552
18890TIP3   OH278084   0.270   5.064   1.475 -0.1671 -0.4712  0.1458
18890TIP3    H178085   0.265   5.010   1.554 -0.9327 -0.9592 -0.2348
18890TIP3    H278086   0.364   5.072   1.458  0.1059  0.8363  1.9133
18891TIP3   OH278087   4.564   1.395  15.580  0.1421 -0.6132 -0.3435
18891TIP3    H178088   4.506   1.467  15.556 -0.3223 -1.3076 -1.3719
18891TIP3    H278089   4.643   1.409  15.527  0.3321 -0.4813 -0.0291
18892TIP3   OH278090   6.043   6.611   5.522  0.1158 -1.4377  0.0926
18892TIP3    H178091   6.041   6.583   5.614 -1.9534  0.0449  0.5921
18892TIP3    H278092   5.950   6.614   5.497  0.5969 -0.8840 -1.7471
18893TIP3   OH278093   0.955   0.507   3.810  0.6040 -0.4162 -0.2720
18893TIP3    H178094   1.002   0.424   3.810 -0.0230 -0.7802  0.8688
18893TIP3    H278095   0.993   0.556   3.737 -0.2105 -2.3488 -2.0685
18894TIP3   OH278096   6.055   5.350  14.195 -0.1943  0.0354 -0.7704
18894TIP3    H178097   6.005   5.431  14.207 -1.1510 -0.9445  3.2830
18894TIP3    H278098   6.142   5.371  14.229  0.0148 -0.2072 -1.1531
18895TIP3   OH278099   5.753   1.672  12.911 -0.2358 -0.4483 -0.2966
18895TIP3    H178100   5.681   1.686  12.849 -0.2887  0.3863 -0.0490
18895TIP3    H278101   5.827   1.717  12.872  0.8232 -3.1588 -1.6909
18896TIP3   OH278102   5.068   4.637  15.462  0.0725  0.2331 -0.2338
18896TIP3    H178103   5.097   4.583  15.536 -0.1324  0.5540  0.0851
18896TIP3    H278104   4.988   4.679  15.493 -0.7684 -0.6545 -1.1012
18897TIP3   OH278105   2.352   4.059  12.756 -0.2349  0.2638 -0.3809
18897TIP3    H178106   2.411   4.133  12.769  1.5343 -0.7360 -2.1798
18897TIP3    H278107   2.358   4.039  12.663 -1.1644 -1.7289 -0.0710
18898TIP3   OH278108   0.122   1.467  14.321 -0.4644 -0.2894 -0.4608
18898TIP3    H178109   0.135   1.389  14.374  0.1039 -0.7010 -1.1896
18898TIP3    H278110   0.037   1.501  14.349  0.9237  1.0364  2.6442
18899TIP3   OH278111   4.076   1.982   5.504 -0.1628  0.3001  0.1044
18899TIP3    H178112   4.082   1.903   5.557 -1.0698 -0.3259 -0.6961
18899TIP3    H278113   3.983   2.000   5.496 -0.0153  0.8446 -0.5984
18900TIP3   OH278114   0.736   6.664  13.619 -0.3036 -0.1455 -0.3424
18900TIP3    H178115   0.678   6.615  13.677 -0.6004 -0.9880 -1.3128
18900TIP3    H278116   0.824   6.639  13.646 -0.2300  2.4774  2.3075
18901TIP3   OH278117   1.089   2.771   6.688 -0.1846  0.5211 -0.4357
18901TIP3    H178118   1.030   2.846   6.678  0.6595  1.0751 -1.3251
18901TIP3    H278119   1.139   2.768   6.607  1.0589  0.0876  0.3266
18902TIP3   OH278120   0.057   1.666  12.479  0.0676 -0.4798 -0.0004
18902TIP3    H178121  -0.002   1.645  12.407 -1.9544 -1.3349  1.7943
18902TIP3    H278122   0.120   1.595  12.481 -0.8366 -1.2925  0.0450
18903TIP3   OH278123   3.338   5.290  12.999 -1.0371 -0.0576 -0.0584
18903TIP3    H178124   3.310   5.310  12.910 -1.0687 -1.9939 -0.5350
18903TIP3    H278125   3.393   5.211  12.989 -0.1850  0.3031  1.5129
18904TIP3   OH278126   5.568   5.225  14.392  0.3938 -0.3352 -0.3263
18904TIP3    H178127   5.586   5.135  14.366  0.6209 -0.3898  0.0085
18904TIP3    H278128   5.617   5.278  14.329  0.9633 -0.4662  0.0018
18905TIP3   OH278129   6.709   2.308  12.143 -0.0214  0.2855  0.1792
18905TIP3    H178130   6.775   2.371  12.171  3.4248 -2.2986 -1.4091
18905TIP3    H278131   6.740   2.224  12.176 -2.1261 -1.1696 -1.2875
18906TIP3   OH278132   3.681   3.860  14.220  0.1728  0.1207 -0.1959
18906TIP3    H178133   3.676   3.916  14.142  0.8209  0.3202 -0.1069
18906TIP3    H278134   3.594   3.823  14.229 -0.3592  1.3304 -0.1102
18907TIP3   OH278135   4.480   3.515  12.696  0.0249  0.3476 -0.5982
18907TIP3    H178136   4.473   3.459  12.773 -1.0244  2.4710  0.9363
18907TIP3    H278137   4.573   3.539  12.691 -0.1886  1.7423  1.2296
18908TIP3   OH278138   1.802   1.851   3.257 -0.2295 -0.2382  0.4441
18908TIP3    H178139   1.791   1.851   3.162 -0.0024  1.2533  0.3879
18908TIP3    H278140   1.715   1.832   3.291 -1.1631  2.5907 -0.0698
18909TIP3   OH278141   2.217   3.610  11.050  0.1261  0.2901  0.1124
18909TIP3    H178142   2.129   3.574  11.055  0.1792  0.2237  0.6228
18909TIP3    H278143   2.213   3.674  10.979 -0.7071  1.2978  1.0281
18910TIP3   OH278144   0.041   0.769   1.588 -0.3895 -0.5370 -0.0972
18910TIP3    H178145   0.116   0.820   1.618 -1.2049  0.7828 -0.1874
18910TIP3    H278146  -0.023   0.778   1.658 -1.1122 -0.1430 -0.7935
18911TIP3   OH278147   1.091   4.851  14.801  0.3356  0.2443  0.1561
18911TIP3    H178148   1.013   4.878  14.752 -0.3863 -0.8133  0.6697
18911TIP3    H278149   1.076   4.882  14.890  0.6327  0.2802  0.1960
18912TIP3   OH278150   1.605   2.852  14.208 -0.3982  0.5661 -0.6214
18912TIP3    H178151   1.596   2.757  14.219  0.3394  0.3670 -1.6374
18912TIP3    H278152   1.676   2.876  14.268 -1.2911  0.6651  0.4323
18913TIP3   OH278153   4.175   1.908  11.812  0.0452 -0.2830 -0.1013
18913TIP3    H178154   4.213   1.826  11.846  2.7480  0.6957 -0.4856
18913TIP3    H278155   4.152   1.958  11.890  3.5320  0.7533  0.4644
18914TIP3   OH278156   0.522   1.602  14.317 -0.6514  0.4209  0.3343
18914TIP3    H178157   0.603   1.564  14.283 -1.6506 -0.6656 -0.9498
18914TIP3    H278158   0.550   1.661  14.387  1.2167 -0.1007  0.0674
18915TIP3   OH278159   6.704   5.881   2.282  0.1998 -0.6906  0.4984
18915TIP3    H178160   6.615   5.913   2.270  0.7661  0.1283 -2.2055
18915TIP3    H278161   6.752   5.956   2.318  0.3305 -0.2416 -0.5699
18916TIP3   OH278162   1.223   5.083  16.162 -0.7643 -0.5982  0.3694
18916TIP3    H178163   1.236   5.022  16.089 -1.5844 -0.2032 -0.1254
18916TIP3    H278164   1.162   5.037  16.221 -1.0022 -0.4627  0.2336
18917TIP3   OH278165   2.877   0.982  10.396  0.3262  0.6424  0.3749
18917TIP3    H178166   2.937   0.908  10.405  0.2101  0.5150  0.1189
18917TIP3    H278167   2.803   0.961  10.452  0.4048  0.6797  0.4932
18918TIP3   OH278168   1.836   0.346  14.493  0.1016 -0.6289 -0.1355
18918TIP3    H178169   1.819   0.440  14.480  1.3026 -0.6100 -1.8612
18918TIP3    H278170   1.795   0.304  14.418 -1.7763 -1.7294  1.3858
18919TIP3   OH278171   3.989   4.719   4.082  0.2406 -0.4173 -0.2269
18919TIP3    H178172   3.962   4.691   3.994  0.3598 -1.0753 -0.0561
18919TIP3    H278173   3.914   4.768   4.115 -0.4698 -1.5751 -0.0595
18920TIP3   OH278174   6.618   4.858   1.513 -0.3477  0.1212 -0.4578
18920TIP3    H178175   6.531   4.898   1.513 -0.0049  0.9068  0.3080
18920TIP3    H278176   6.661   4.894   1.591  0.7594 -0.0293 -0.9720
18921TIP3   OH278177   6.211   5.071  10.951 -0.6206  0.0905  0.7436
18921TIP3    H178178   6.169   4.985  10.948 -1.0948  0.3123  0.8413
18921TIP3    H278179   6.195   5.108  10.864  0.4480 -0.3126  0.3614
18922TIP3   OH278180   0.731   5.931   0.074  0.3158  0.3855 -0.4482
18922TIP3    H178181   0.729   5.936   0.170  0.6099 -0.8314 -0.3636
18922TIP3    H278182   0.824   5.938   0.052  0.3226 -0.0642 -0.5825
18923TIP3   OH278183   6.518   3.600  13.259  0.8587 -0.0397  0.1025
18923TIP3    H178184   6.519   3.687  13.299  2.0413 -0.3138  0.7030
18923TIP3    H278185   6.428   3.589  13.228  0.2720  0.7485  1.4575
18924TIP3   OH278186   3.105   3.094   1.837 -0.0963  0.6745 -0.3510
18924TIP3    H178187   3.181   3.144   1.867  0.5684  0.5829 -1.8295
18924TIP3    H278188   3.044   3.160   1.805  0.4767  0.6189 -1.6165
18925TIP3   OH278189   5.709   6.267  12.812 -0.1273 -0.0057 -0.0592
18925TIP3    H178190   5.632   6.323  12.802 -1.6337 -1.9073  0.3214
18925TIP3    H278191   5.674   6.183  12.839  2.1188 -0.9461  0.1241
18926TIP3   OH278192   2.029   2.385   2.413  0.2941  0.1548 -0.5830
18926TIP3    H178193   2.110   2.361   2.458  0.0592  1.5048  0.6556
18926TIP3    H278194   1.987   2.302   2.392  0.3544 -0.5769  1.8862
18927TIP3   OH278195   1.248   0.028  13.352  0.3062 -0.0089  0.2191
18927TIP3    H178196   1.225   0.119  13.335 -0.3896 -0.1983  0.1252
18927TIP3    H278197   1.344   0.027  13.350  0.3152  0.6759  0.0013
18928TIP3   OH278198   2.804   0.995  11.532  0.2602 -0.0252 -0.6568
18928TIP3    H178199   2.836   0.922  11.479  0.1579 -0.8745  0.4067
18928TIP3    H278200   2.713   1.007  11.503 -0.6651 -2.1848  0.9643
18929TIP3   OH278201   6.176   1.455  16.019 -0.2604 -0.3683  0.4975
18929TIP3    H178202   6.184   1.514  16.094  0.2348  0.7821 -0.4196
18929TIP3    H278203   6.087   1.469  15.987 -0.1237 -0.0572  0.2448
18930TIP3   OH278204   1.401   0.052   4.914 -0.1090 -0.4363 -0.1156
18930TIP3    H178205   1.330   0.011   4.864 -0.6903  0.3292  0.0646
18930TIP3    H278206   1.455  -0.022   4.943 -0.6716 -1.0114 -0.4916
18931TIP3   OH278207   0.422   4.390   5.471 -0.3368  0.7457  0.0354
18931TIP3    H178208   0.355   4.435   5.419 -0.3047  1.6320  0.7318
18931TIP3    H278209   0.397   4.408   5.561 -0.6624 -1.1722  0.3728
18932TIP3   OH278210   1.020   1.531   3.359 -0.0847 -0.4930 -0.3224
18932TIP3    H178211   1.088   1.506   3.298  0.0384  0.9142 -0.8032
18932TIP3    H278212   0.978   1.607   3.319 -0.3928  0.1064  1.0465
18933TIP3   OH278213   6.696   5.888   6.838  0.0165 -0.1794  0.1520
18933TIP3    H178214   6.648   5.944   6.899 -1.5651 -1.3030  0.0208
18933TIP3    H278215   6.628   5.834   6.797  1.3918 -1.6630 -0.2775
18934TIP3   OH278216   4.471   4.782  16.814  0.6503  0.1555 -0.2114
18934TIP3    H178217   4.463   4.687  16.827  1.0859  0.2205  0.6198
18934TIP3    H278218   4.529   4.810  16.885 -1.4311  1.4117  1.1163
18935TIP3   OH278219   0.512   2.634   6.457  0.2014  0.1157  0.1138
18935TIP3    H178220   0.573   2.684   6.512  0.5017 -0.3419  0.2042
18935TIP3    H278221   0.566   2.565   6.418 -0.2875 -0.3805  0.2987
18936TIP3   OH278222   6.253   2.321   0.175 -0.2733  0.8704  0.2704
18936TIP3    H178223   6.243   2.415   0.190  1.5179  0.9765  1.1019
18936TIP3    H278224   6.314   2.316   0.102 -1.1411  0.3348 -0.4294
18937TIP3   OH278225   2.810   3.932   2.783 -0.1482 -0.0433 -0.5495
18937TIP3    H178226   2.737   3.973   2.736 -0.6587 -0.0600  0.2075
18937TIP3    H278227   2.776   3.915   2.870  0.7841 -0.0223 -0.1685
18938TIP3   OH278228   0.583   3.372   1.578 -0.0456  0.2722  0.1352
18938TIP3    H178229   0.519   3.401   1.513 -0.8246  0.2230  0.8585
18938TIP3    H278230   0.610   3.452   1.622  2.1181  0.6204 -1.6255
18939TIP3   OH278231   5.451   6.372  15.797  0.2062 -0.1339 -0.6771
18939TIP3    H178232   5.474   6.382  15.889  1.6619  1.2484 -1.1417
18939TIP3    H278233   5.517   6.312  15.762 -0.4247 -0.7657 -0.8097
18940TIP3   OH278234   2.213   3.772   1.983  0.1951 -0.5659 -0.3763
18940TIP3    H178235   2.225   3.791   1.890 -1.3934 -0.7787 -0.6582
18940TIP3    H278236   2.127   3.809   2.004 -0.3384 -2.2103  0.5028
18941TIP3   OH278237   3.298   3.252  12.590 -0.1957 -0.0209 -0.0764
18941TIP3    H178238   3.334   3.334  12.557  1.0238 -0.1365  0.8732
18941TIP3    H278239   3.221   3.235  12.536  0.4810  0.8976 -1.3694
18942TIP3   OH278240   1.688   2.820  13.612 -0.8373  0.2254 -0.2190
18942TIP3    H178241   1.692   2.729  13.582  0.4474  0.2524 -0.2038
18942TIP3    H278242   1.618   2.821  13.677 -0.4449 -0.9153  0.2595
18943TIP3   OH278243   3.708   0.903   4.981 -0.8504 -0.7137  0.3961
18943TIP3    H178244   3.771   0.870   5.045  1.2374  0.4861 -0.9322
18943TIP3    H278245   3.729   0.996   4.972 -1.5145 -0.6985 -1.5252
18944TIP3   OH278246   0.967   4.332   6.108 -0.6469 -0.4567  0.2192
18944TIP3    H178247   0.897   4.309   6.169 -0.5292 -0.4771  0.3493
18944TIP3    H278248   0.969   4.428   6.109 -0.9235 -0.4481 -0.0758
18945TIP3   OH278249   5.341   1.184  11.318 -0.0774 -0.0429  0.2979
18945TIP3    H178250   5.368   1.170  11.409 -0.5546  0.2763  0.4949
18945TIP3    H278251   5.382   1.267  11.293  1.3306 -0.8839 -0.2997
18946TIP3   OH278252   3.454   3.904  12.531 -0.0193  0.3270 -0.3066
18946TIP3    H178253   3.473   3.963  12.458  0.3541 -0.1311 -0.5844
18946TIP3    H278254   3.512   3.933  12.602  1.1841 -0.5604 -0.8921
18947TIP3   OH278255   3.929   6.431  12.450 -0.0491  0.4995 -0.0314
18947TIP3    H178256   3.980   6.356  12.479 -0.0408 -0.1411 -1.5861
18947TIP3    H278257   3.945   6.498  12.516 -1.2462 -1.3033  2.2195
18948TIP3   OH278258   2.204   6.762   2.653  0.3319 -0.0453  0.3558
18948TIP3    H178259   2.150   6.781   2.730  1.7520  0.2799  1.3024
18948TIP3    H278260   2.164   6.683   2.616 -1.4755  0.8192  0.3393
18949TIP3   OH278261   1.767   6.280   1.593  0.6126 -0.2505  0.7407
18949TIP3    H178262   1.797   6.234   1.515  0.3098  1.7807 -0.6545
18949TIP3    H278263   1.834   6.346   1.610  0.0856  0.1158  1.4715
18950TIP3   OH278264   2.999   0.201  16.171  0.0429 -0.4740  0.1236
18950TIP3    H178265   2.981   0.288  16.208 -1.0995 -0.9876  0.8643
18950TIP3    H278266   3.067   0.164  16.227  2.0376  0.6806 -1.4176
18951TIP3   OH278267   2.701   4.428  12.714 -0.2231 -0.2867 -0.2221
18951TIP3    H178268   2.727   4.420  12.806 -1.1373  1.7259  0.2539
18951TIP3    H278269   2.776   4.392  12.665  0.9635  0.0547  1.2599
18952TIP3   OH278270   4.328   5.715   2.078 -0.9448 -0.3739 -0.1294
18952TIP3    H178271   4.355   5.760   2.158 -1.5656 -0.7875  0.3274
18952TIP3    H278272   4.280   5.638   2.109 -1.6941 -0.2301 -0.9005
18953TIP3   OH278273   1.556   3.439   2.993  0.2651 -0.0213  0.3448
18953TIP3    H178274   1.611   3.378   2.946 -1.8626 -0.4671 -1.7616
18953TIP3    H278275   1.617   3.497   3.038  2.3601 -2.4678  0.8683
18954TIP3   OH278276   5.802   5.628  16.251  0.3655  0.1283 -0.2932
18954TIP3    H178277   5.857   5.551  16.266  0.6056  0.5377  1.0648
18954TIP3    H278278   5.862   5.702  16.257 -0.6372  0.9849  5.3504
18955TIP3   OH278279   4.871   0.688   2.933  0.0998  0.6626 -0.2983
18955TIP3    H178280   4.867   0.619   2.866  0.8908  0.4835 -0.1716
18955TIP3    H278281   4.780   0.705   2.955 -0.1843  0.7843 -1.4838
18956TIP3   OH278282   5.230   6.522   5.604  0.4903 -0.0990  0.0594
18956TIP3    H178283   5.187   6.602   5.634  0.7813 -0.1698  0.6676
18956TIP3    H278284   5.286   6.495   5.677  0.8487 -0.5307 -0.3633
18957TIP3   OH278285   2.378   3.078  14.196 -0.5638 -0.5463 -0.1936
18957TIP3    H178286   2.324   3.112  14.125 -0.7606  1.7015  0.9314
18957TIP3    H278287   2.446   3.145  14.207  0.9174 -2.0515  0.1490
18958TIP3   OH278288   6.376   2.882   5.750 -0.1520  0.0193 -0.0050
18958TIP3    H178289   6.297   2.877   5.696 -1.3882 -1.4818  1.8431
18958TIP3    H278290   6.384   2.795   5.790  2.0216  0.3649  0.4699
18959TIP3   OH278291   6.386   4.979   4.330  0.0830 -0.1106  0.1753
18959TIP3    H178292   6.302   4.933   4.332  1.1555 -2.1821  0.1216
18959TIP3    H278293   6.389   5.027   4.413 -1.0646 -0.1652  0.2654
18960TIP3   OH278294   1.830   0.867  11.094  0.5367  0.1632  0.2690
18960TIP3    H178295   1.806   0.938  11.035  1.0693  1.1974  1.2500
18960TIP3    H278296   1.747   0.826  11.118  0.1945  0.6506 -0.0754
18961TIP3   OH278297   5.408   5.229   4.761  0.1589  0.2780 -0.4060
18961TIP3    H178298   5.463   5.193   4.691  0.9023  2.0463 -0.7878
18961TIP3    H278299   5.391   5.319   4.734 -0.1605  0.7777  1.3259
18962TIP3   OH278300   2.237   0.844  14.858  0.3614 -0.4134  0.2103
18962TIP3    H178301   2.307   0.810  14.914 -0.9446 -0.5951  1.8206
18962TIP3    H278302   2.156   0.823  14.906 -0.8096 -0.3279 -1.6399
18963TIP3   OH278303   6.562   6.378  15.071  0.0571 -0.1755  0.2200
18963TIP3    H178304   6.646   6.363  15.115 -0.7692  0.0375  1.9559
18963TIP3    H278305   6.520   6.447  15.121 -0.7815  0.3864 -1.1939
18964TIP3   OH278306   4.261   4.107   5.811 -0.3698  0.2626  0.2424
18964TIP3    H178307   4.192   4.172   5.806  0.9712  1.7646  0.4176
18964TIP3    H278308   4.342   4.157   5.809  0.7281 -1.2242  2.4905
18965TIP3   OH278309   0.590   3.692   0.703  0.4415  0.2803 -0.4114
18965TIP3    H178310   0.639   3.670   0.782 -2.2426  1.5787  1.8222
18965TIP3    H278311   0.618   3.781   0.682 -0.3697  0.7661  0.4596
18966TIP3   OH278312   0.956   2.030   0.296  0.4395 -0.2974 -0.1943
18966TIP3    H178313   0.925   2.089   0.228 -1.5965 -0.4651  0.5433
18966TIP3    H278314   0.889   1.962   0.303  1.3895 -1.1856  0.8823
18967TIP3   OH278315   1.628   4.878  16.159 -0.2391  0.2931  0.2814
18967TIP3    H178316   1.622   4.957  16.213  1.2606  0.7125 -0.1055
18967TIP3    H278317   1.545   4.833  16.172 -0.3736  0.9684  2.0364
18968TIP3   OH278318   0.955   5.767  15.990  0.2956 -0.2285 -0.1117
18968TIP3    H178319   0.946   5.809  15.904  0.8447  0.6301  0.2382
18968TIP3    H278320   0.987   5.680  15.970  2.8872  0.7704 -0.7018
18969TIP3   OH278321   6.464   4.461  16.216 -0.7922  0.5608  0.1889
18969TIP3    H178322   6.463   4.529  16.284 -1.4359 -0.2349  1.0048
18969TIP3    H278323   6.451   4.379  16.264 -1.5449  0.0021 -0.9255
18970TIP3   OH278324   2.617   1.420   5.309  0.1741  0.6709 -0.4161
18970TIP3    H178325   2.664   1.343   5.340  2.3988  2.1140  0.0037
18970TIP3    H278326   2.599   1.402   5.217 -0.4709 -0.8272 -0.0320
18971TIP3   OH278327   5.647   6.046   1.244 -0.0829 -0.6303  0.5380
18971TIP3    H178328   5.604   5.960   1.241 -1.5819  0.1104 -0.8684
18971TIP3    H278329   5.587   6.104   1.197  1.0829  1.1207  1.1186
18972TIP3   OH278330   6.400   4.934   3.794  0.1107 -0.2786 -0.0151
18972TIP3    H178331   6.307   4.957   3.787  0.2999  0.1907 -1.3192
18972TIP3    H278332   6.412   4.864   3.729  0.5710 -0.6831  0.4962
18973TIP3   OH278333   4.956   4.582  12.661  0.1422 -0.8224 -0.2511
18973TIP3    H178334   4.984   4.658  12.711 -0.9322 -1.1653  0.9587
18973TIP3    H278335   5.035   4.530  12.648  0.5780 -0.3621  0.4996
18974TIP3   OH278336   3.857   0.827  15.655  0.2257  0.2198 -0.5597
18974TIP3    H178337   3.772   0.843  15.614 -0.9239 -0.8362  1.2290
18974TIP3    H278338   3.840   0.838  15.749  1.9201 -0.5863 -0.1245
18975TIP3   OH278339   0.605   2.842   4.140  0.6216  0.1655 -0.3154
18975TIP3    H178340   0.692   2.803   4.140  0.2871 -0.6167 -0.9860
18975TIP3    H278341   0.615   2.925   4.186  1.1892 -1.0754  1.9386
18976TIP3   OH278342   1.506   1.669  14.765  0.3500 -0.2886  0.3350
18976TIP3    H178343   1.553   1.590  14.792 -1.7500 -1.9783 -0.6129
18976TIP3    H278344   1.539   1.688  14.677 -0.0218 -0.8953  0.0569
18977TIP3   OH278345   1.346   3.662  15.133 -0.3071 -0.3341 -0.5631
18977TIP3    H178346   1.378   3.588  15.184 -0.6708  0.2473  0.5257
18977TIP3    H278347   1.363   3.738  15.188 -0.2158  0.3748 -1.5427
18978TIP3   OH278348   0.993   1.359   3.851 -0.0854 -0.6021 -0.0788
18978TIP3    H178349   0.967   1.372   3.760  1.6911 -1.4093 -0.7579
18978TIP3    H278350   1.031   1.271   3.853  0.2986 -0.4359  1.3527
18979TIP3   OH278351   6.760   6.676  11.940  0.4813  0.0644  0.2120
18979TIP3    H178352   6.767   6.613  11.868 -0.6540 -0.3139  0.4228
18979TIP3    H278353   6.826   6.743  11.919  3.0890 -2.0759  0.9422
18980TIP3   OH278354   3.497   0.776   3.068  0.0758  0.6933 -0.0577
18980TIP3    H178355   3.472   0.858   3.110 -0.3549  0.1639  0.7434
18980TIP3    H278356   3.500   0.712   3.140  2.4038  0.4205 -0.3169
18981TIP3   OH278357   3.722   5.648   2.870  0.0196 -0.0369 -0.6374
18981TIP3    H178358   3.663   5.601   2.811  1.5943 -0.2119 -2.1475
18981TIP3    H278359   3.769   5.580   2.917  1.0065  0.0193 -1.5060
18982TIP3   OH278360   4.450   2.094  10.633 -0.1462 -0.0696  0.6551
18982TIP3    H178361   4.524   2.117  10.690 -0.8143 -1.0050  1.9429
18982TIP3    H278362   4.460   2.152  10.557  3.3282 -1.8348 -0.4443
18983TIP3   OH278363   3.476   1.814   4.686  0.0185  0.4625 -0.0918
18983TIP3    H178364   3.383   1.824   4.708  0.4448  1.7178  1.3282
18983TIP3    H278365   3.485   1.722   4.661 -1.6408  0.3692 -0.5067
18984TIP3   OH278366   3.669   2.993   0.478 -0.7106 -0.3209  0.0150
18984TIP3    H178367   3.588   3.006   0.428 -0.3029 -0.3586 -0.6666
18984TIP3    H278368   3.735   2.973   0.412 -0.0485  0.1470  0.5192
18985TIP3   OH278369   0.618   4.230   5.357  0.5456 -0.5857 -0.5557
18985TIP3    H178370   0.581   4.142   5.357  1.5803 -1.0725 -2.6630
18985TIP3    H278371   0.555   4.282   5.407  0.0155 -2.5275  0.9410
18986TIP3   OH278372   2.011   1.829   3.594  0.1293 -0.1521  0.3069
18986TIP3    H178373   2.003   1.801   3.502  2.5127  0.3646 -0.1306
18986TIP3    H278374   2.105   1.823   3.612 -0.1443  0.9343  2.3482
18987TIP3   OH278375   4.395   3.313  12.903 -0.5269  0.3572  0.0168
18987TIP3    H178376   4.305   3.325  12.872  0.0745  1.3058 -1.4988
18987TIP3    H278377   4.391   3.238  12.961 -2.1638 -0.1070 -0.6423
18988TIP3   OH278378   2.371   5.663   5.921  1.1451  0.3361  1.0273
18988TIP3    H178379   2.300   5.612   5.883  1.1246 -0.3485  1.9710
18988TIP3    H278380   2.435   5.672   5.850 -0.8136  2.9415 -0.6385
18989TIP3   OH278381   6.761   6.749  16.621  0.3901 -0.1762  0.1792
18989TIP3    H178382   6.765   6.809  16.695 -1.9725  1.9991 -1.3182
18989TIP3    H278383   6.736   6.803  16.547  0.5971 -2.6288 -1.8178
18990TIP3   OH278384   3.175   6.548   3.405 -0.2181  0.0814  0.2035
18990TIP3    H178385   3.111   6.490   3.363 -0.1493 -0.3602  0.6960
18990TIP3    H278386   3.258   6.501   3.398 -0.0015  0.5184 -0.1672
18991TIP3   OH278387   3.800   6.691  16.360  0.1259 -0.6816  0.7410
18991TIP3    H178388   3.736   6.644  16.413  1.1153 -1.6615  1.0928
18991TIP3    H278389   3.760   6.777  16.345 -1.8897 -1.7288 -0.2488
18992TIP3   OH278390   4.286   4.852  13.039 -0.7841 -0.0075 -0.3126
18992TIP3    H178391   4.324   4.816  13.119  1.0430  1.4104 -0.4768
18992TIP3    H278392   4.333   4.810  12.968  0.5474  1.6979 -0.5188
18993TIP3   OH278393   3.515   3.281  14.578 -0.1065  0.4642 -0.3780
18993TIP3    H178394   3.525   3.360  14.631 -1.4123 -0.5767  1.5381
18993TIP3    H278395   3.589   3.226  14.603 -0.0799  0.4374 -0.5177
18994TIP3   OH278396   1.009   2.831   0.624  0.2025  0.2679  0.3904
18994TIP3    H178397   0.945   2.761   0.634  0.8903 -0.5601 -0.7281
18994TIP3    H278398   1.074   2.814   0.691 -0.2278  0.5343  0.8831
18995TIP3   OH278399   2.817   6.298  14.565 -0.3346  0.4033 -0.4394
18995TIP3    H178400   2.858   6.212  14.561 -1.3190 -0.0829 -0.3109
18995TIP3    H278401   2.767   6.305  14.484 -1.3162  0.3057  0.1445
18996TIP3   OH278402   3.034   3.620   0.584 -0.2533  0.1967  0.2364
18996TIP3    H178403   2.998   3.630   0.673 -0.2124  0.9725  0.1743
18996TIP3    H278404   3.107   3.683   0.581 -0.6793  0.6625 -0.5612
18997TIP3   OH278405   2.495   5.125  13.896 -0.0142 -0.5095  0.0776
18997TIP3    H178406   2.400   5.124  13.884 -0.1319  0.5514  0.7831
18997TIP3    H278407   2.510   5.058  13.963 -0.3037 -0.4105  0.2457
18998TIP3   OH278408   4.743   3.138  15.638  0.5636  0.0128 -0.1989
18998TIP3    H178409   4.823   3.186  15.663  0.0516  0.7691  0.0287
18998TIP3    H278410   4.674   3.205  15.638 -0.0431 -0.6019 -0.5501
18999TIP3   OH278411   1.662   5.455   2.555 -0.7133  0.6465 -0.0265
18999TIP3    H178412   1.623   5.499   2.631 -0.3912  0.4537  0.2531
18999TIP3    H278413   1.597   5.465   2.486 -1.0817  0.6790  0.3212
19000TIP3   OH278414   3.477   1.711   2.062 -0.1026  0.0919 -0.2252
19000TIP3    H178415   3.471   1.806   2.056 -0.9352 -0.0001 -1.2292
19000TIP3    H278416   3.474   1.681   1.971 -2.1168 -0.9909  0.1446
19001TIP3   OH278417   5.049   6.027   3.259 -0.2795  0.3293  0.7736
19001TIP3    H178418   5.011   6.098   3.207 -0.2093  0.3532  0.7552
19001TIP3    H278419   4.975   5.970   3.279 -0.3386  0.4146  0.7999
19002TIP3   OH278420   2.007   1.008   1.129 -0.4019  0.8140  0.4172
19002TIP3    H178421   1.938   1.047   1.182 -1.3145  0.4351 -0.4619
19002TIP3    H278422   2.017   0.919   1.164 -0.2090  0.9363  0.6767
19003TIP3   OH278423   6.190   0.443   4.240 -0.3192 -0.1056  0.3100
19003TIP3    H178424   6.106   0.487   4.243 -0.4924 -0.4423  0.4425
19003TIP3    H278425   6.233   0.466   4.322 -0.0157  0.5773 -0.0285
19004TIP3   OH278426   0.499   3.229  12.896  0.1486  0.2368  0.1493
19004TIP3    H178427   0.571   3.257  12.841 -0.8999  1.2050 -0.7946
19004TIP3    H278428   0.517   3.267  12.982  0.0681  1.6573 -0.4435
19005TIP3   OH278429   5.993   1.211   4.126  0.2527  0.0285 -0.3659
19005TIP3    H178430   6.086   1.190   4.116  0.9537  2.1290  1.1516
19005TIP3    H278431   5.958   1.139   4.179  1.7041  0.6323  1.5002
19006TIP3   OH278432   0.961   5.859  15.664  0.5685  0.1150  0.2684
19006TIP3    H178433   0.891   5.876  15.601  0.6737  0.4869  0.2493
19006TIP3    H278434   0.963   5.764  15.673  0.5479  0.0596 -0.2814
19007TIP3   OH278435   4.324   3.316   5.239  0.2729 -0.0092  0.5893
19007TIP3    H178436   4.259   3.377   5.274  2.0814  1.1189  2.1985
19007TIP3    H278437   4.291   3.229   5.262 -1.1519  0.4644  0.4347
19008TIP3   OH278438   1.234   5.955  11.537 -0.1671 -0.5848  0.2819
19008TIP3    H178439   1.309   5.970  11.595  0.2871 -0.4255 -0.3332
19008TIP3    H278440   1.158   5.972  11.592  0.2741  1.7283  0.2940
19009TIP3   OH278441   4.253   1.962  15.825  0.0770  0.0821 -0.5187
19009TIP3    H178442   4.181   1.981  15.885 -0.0075  0.9093 -0.8724
19009TIP3    H278443   4.210   1.946  15.741  0.2616 -0.1254 -0.5745
19010TIP3   OH278444   1.093   1.180  16.443 -0.1986 -0.5605  0.1061
19010TIP3    H178445   1.167   1.241  16.441 -0.6632  0.0368  0.6571
19010TIP3    H278446   1.031   1.215  16.379 -0.2040 -0.8065 -0.0262
19011TIP3   OH278447   2.833   1.626  15.364 -0.1872  0.0569 -0.4877
19011TIP3    H178448   2.881   1.544  15.356  0.6062  0.4061  0.4061
19011TIP3    H278449   2.838   1.665  15.277 -1.5279 -1.3192 -1.2289
19012TIP3   OH278450   0.804   3.592  12.338 -0.1391 -0.1173  0.5161
19012TIP3    H178451   0.804   3.688  12.340  2.6383 -0.0131 -0.2940
19012TIP3    H278452   0.778   3.570  12.249 -1.8443 -0.2014  1.0042
19013TIP3   OH278453   3.623   3.545   3.744  0.5133 -0.4871 -0.0608
19013TIP3    H178454   3.662   3.460   3.724  1.5835  0.6396 -3.4744
19013TIP3    H278455   3.698   3.604   3.752 -0.3023  0.5538 -0.0069
19014TIP3   OH278456   1.580   5.731  11.700  0.3704 -0.7263 -0.3213
19014TIP3    H178457   1.557   5.769  11.785  1.3192  2.6208 -1.3857
19014TIP3    H278458   1.496   5.726  11.653  0.0164 -1.4321  0.3630
19015TIP3   OH278459   3.303   2.566  11.919  0.3421  0.0616  0.1928
19015TIP3    H178460   3.383   2.573  11.970  0.0766 -0.4156  0.6917
19015TIP3    H278461   3.268   2.480  11.942 -1.0290  0.8113  1.0733
19016TIP3   OH278462   3.253   4.927   2.339 -0.5193  0.1716 -0.2239
19016TIP3    H178463   3.269   4.833   2.342 -1.1180  0.0216 -1.2844
19016TIP3    H278464   3.261   4.956   2.431 -1.5823 -1.1290  0.3042
19017TIP3   OH278465   3.678   0.241  12.192 -0.6919  0.0892  0.0142
19017TIP3    H178466   3.692   0.154  12.156  0.1334  0.2292 -0.0313
19017TIP3    H278467   3.590   0.266  12.162 -1.4995 -1.2521  1.1537
19018TIP3   OH278468   6.701   3.190   1.368  0.3959  0.0169  0.2590
19018TIP3    H178469   6.793   3.214   1.353  0.4061 -0.1684  0.0188
19018TIP3    H278470   6.704   3.096   1.387  0.2425 -0.0226  0.0981
19019TIP3   OH278471   3.270   4.304   0.967  0.3129 -0.0741 -0.3270
19019TIP3    H178472   3.283   4.262   1.052  1.5507 -0.9733 -0.9253
19019TIP3    H278473   3.190   4.265   0.932  1.3975 -1.9501 -0.8396
19020TIP3   OH278474   1.980   0.734  15.222  0.4432  0.3034 -0.1049
19020TIP3    H178475   1.925   0.664  15.188 -0.3496  1.5764 -1.5245
19020TIP3    H278476   2.066   0.693  15.232 -0.4610 -1.4178  1.1255
19021TIP3   OH278477   6.342   5.312  11.156 -0.1185 -0.2490  0.1047
19021TIP3    H178478   6.276   5.379  11.141 -0.7134 -0.6182  0.9764
19021TIP3    H278479   6.319   5.240  11.097 -0.6120 -0.4453  0.5266
19022TIP3   OH278480   1.621   4.499   1.584  0.5210 -0.4233  0.5680
19022TIP3    H178481   1.626   4.405   1.570  0.3535 -0.2856 -0.5273
19022TIP3    H278482   1.529   4.521   1.565  1.1394  0.3368 -2.0259
19023TIP3   OH278483   2.069   5.016  10.598  0.7422 -0.0415 -0.6160
19023TIP3    H178484   2.006   4.987  10.664  1.7057 -3.9788 -1.2087
19023TIP3    H278485   2.083   5.109  10.619 -1.1078 -0.3558  2.9114
19024TIP3   OH278486   0.518   1.658  16.791  0.4782 -0.2205  0.0939
19024TIP3    H178487   0.450   1.592  16.777 -0.2447  0.8147 -1.5432
19024TIP3    H278488   0.576   1.650  16.715  0.6679  0.6937  0.1269
19025TIP3   OH278489   3.315   0.862   2.584  0.2009 -0.2528  0.7410
19025TIP3    H178490   3.343   0.872   2.675  3.4150 -0.6158 -0.0997
19025TIP3    H278491   3.362   0.931   2.537 -1.1605 -0.2771 -0.7454
19026TIP3   OH278492   1.707   5.963  13.353 -0.1745 -0.2897 -0.3922
19026TIP3    H178493   1.641   6.007  13.407 -0.1680 -0.9838  0.2048
19026TIP3    H278494   1.789   6.008  13.373 -0.0112 -1.1033  0.8793
19027TIP3   OH278495   4.478   6.063   5.467  0.0948 -0.3537 -0.5077
19027TIP3    H178496   4.410   6.068   5.533 -0.4588  1.1332 -1.1667
19027TIP3    H278497   4.436   6.091   5.386  0.8987 -1.6124 -1.4126
19028TIP3   OH278498   3.631   2.847  15.348 -0.0913  0.1833  0.6030
19028TIP3    H178499   3.563   2.893  15.297 -0.7915 -0.5808  0.8251
19028TIP3    H278500   3.593   2.839  15.436  1.2901  1.8932  1.4049
19029TIP3   OH278501   0.383   1.787   4.941  0.4296  0.0973  0.0153
19029TIP3    H178502   0.311   1.815   4.884  1.3707  0.9455 -0.7953
19029TIP3    H278503   0.361   1.697   4.966 -1.2062  0.5419  0.2919
19030TIP3   OH278504   1.128   4.311   3.654 -0.0402  0.1936  0.3730
19030TIP3    H178505   1.205   4.357   3.687 -0.1523  1.2899 -0.8384
19030TIP3    H278506   1.112   4.242   3.719 -0.2858  2.2476  2.6445
19031TIP3   OH278507   1.352   3.316  14.063  0.3343  0.1117  0.0182
19031TIP3    H178508   1.328   3.392  14.115 -1.2825 -0.3278 -0.0123
19031TIP3    H278509   1.333   3.341  13.973  0.6226 -0.0250 -0.0813
19032TIP3   OH278510   3.610   0.219   5.151 -0.0989 -0.2758  0.4946
19032TIP3    H178511   3.550   0.146   5.137 -1.1421 -0.0185  3.0394
19032TIP3    H278512   3.559   0.283   5.201  1.2493  1.5490 -0.3246
19033TIP3   OH278513   2.935   5.809  12.785 -0.0210 -0.2180  0.0509
19033TIP3    H178514   2.997   5.873  12.749  0.2030 -0.1742  0.5061
19033TIP3    H278515   2.976   5.779  12.866 -0.5769 -0.2145  0.3381
19034TIP3   OH278516   5.025   2.171   1.209 -0.4533 -0.5785 -0.3208
19034TIP3    H178517   4.953   2.131   1.257  1.2579 -2.1293  1.0865
19034TIP3    H278518   5.057   2.101   1.151  1.5288 -0.8368  0.9780
19035TIP3   OH278519   4.594   3.431   1.716  0.5443 -0.4057 -0.1649
19035TIP3    H178520   4.575   3.430   1.809 -0.3374 -1.8965 -0.3195
19035TIP3    H278521   4.569   3.344   1.685  0.2318  0.2425 -1.9003
19036TIP3   OH278522   5.188   4.383   2.374 -0.2439 -0.2887 -0.1509
19036TIP3    H178523   5.274   4.412   2.345 -0.2388 -0.7464 -0.5964
19036TIP3    H278524   5.178   4.422   2.461 -0.3492  1.2772 -0.8200
19037TIP3   OH278525   1.665   0.818  12.873  0.4845  0.2220 -0.3665
19037TIP3    H178526   1.715   0.893  12.906 -2.2368  1.9506  0.1849
19037TIP3    H278527   1.588   0.857  12.831 -0.9658 -2.2604 -0.2294
19038TIP3   OH278528   6.432   6.440   3.945 -0.0497  0.1660 -0.4224
19038TIP3    H178529   6.367   6.396   4.000 -0.3777  1.5168  0.3132
19038TIP3    H278530   6.435   6.529   3.979  1.7271  0.3011 -0.8817
19039TIP3   OH278531   2.703   4.364   0.190 -0.1549 -0.0486  0.5714
19039TIP3    H178532   2.677   4.368   0.098  1.8319  1.2662  0.0100
19039TIP3    H278533   2.759   4.286   0.196 -0.1818 -0.0627  0.6492
19040TIP3   OH278534   1.488   5.519   2.362 -0.4192  0.2319  0.2237
19040TIP3    H178535   1.413   5.520   2.421 -1.1565 -0.2642 -0.6698
19040TIP3    H278536   1.485   5.604   2.317  0.8273  1.0963  1.6944
19041TIP3   OH278537   4.118   5.128  13.991  0.3966  0.3658 -0.6078
19041TIP3    H178538   4.145   5.046  13.950 -0.3175 -1.1712  1.7437
19041TIP3    H278539   4.023   5.119  14.001  0.6736 -0.1091  2.6421
19042TIP3   OH278540   6.752   5.607   1.046  0.8889  0.2969 -0.4888
19042TIP3    H178541   6.763   5.604   0.951 -2.8903 -1.6519 -1.0814
19042TIP3    H278542   6.692   5.680   1.060  0.2436 -0.3477  0.1803
19043TIP3   OH278543   1.949   0.435   4.772 -0.0816 -0.6399  0.8018
19043TIP3    H178544   2.044   0.437   4.759 -0.1648 -0.5118  0.2170
19043TIP3    H278545   1.928   0.519   4.812 -0.0035 -0.5036  0.5558
19044TIP3   OH278546   1.663   3.016   2.488  0.6899 -0.8791  0.4595
19044TIP3    H178547   1.663   3.062   2.404  2.7183 -3.2833 -1.0023
19044TIP3    H278548   1.708   3.076   2.547 -0.9152  0.9341 -0.0760
19045TIP3   OH278549   3.334   5.173  11.438  0.2668 -0.0181 -0.5768
19045TIP3    H178550   3.361   5.240  11.375  1.7213  0.1818  0.2142
19045TIP3    H278551   3.416   5.145  11.480 -0.2374 -2.5252 -1.0877
19046TIP3   OH278552   4.905   5.312  11.021 -0.4618 -0.4781  0.0422
19046TIP3    H178553   4.930   5.222  11.040  1.6037  0.0578  0.1091
19046TIP3    H278554   4.898   5.315  10.925 -1.2584 -0.8650  0.0821
19047TIP3   OH278555   0.951   4.852  12.253 -0.2091  0.0408 -0.2931
19047TIP3    H178556   0.962   4.786  12.184  1.3911 -0.3417  0.2756
19047TIP3    H278557   0.978   4.934  12.213  1.5825 -0.3222  0.0670
19048TIP3   OH278558   0.913   2.790  10.545  0.2775 -0.2594  0.0319
19048TIP3    H178559   0.880   2.870  10.587  1.6962 -1.0374  2.8511
19048TIP3    H278560   0.865   2.719  10.587 -0.1377 -1.0093 -1.6240
19049TIP3   OH278561   1.389   1.216  11.634  0.6285 -0.1633  0.6330
19049TIP3    H178562   1.468   1.164  11.622 -0.1760 -0.8877 -2.6228
19049TIP3    H278563   1.398   1.287  11.570 -1.1213 -0.0199  0.5059
19050TIP3   OH278564   1.041   1.761   2.754  0.2618 -0.0701 -0.2246
19050TIP3    H178565   1.003   1.698   2.816 -1.0982  0.8589 -0.0563
19050TIP3    H278566   1.080   1.828   2.810  3.0002 -1.3948 -0.3782
19051TIP3   OH278567   2.976   4.148   4.596  0.8316  0.3873 -0.1111
19051TIP3    H178568   2.997   4.116   4.684 -3.4477 -0.9552  0.6400
19051TIP3    H278569   2.943   4.237   4.611 -1.7690 -0.5308  0.0590
19052TIP3   OH278570   1.094   4.351  10.867  0.4521  0.5765  0.0241
19052TIP3    H178571   1.147   4.274  10.848  0.5012  0.7279 -0.4476
19052TIP3    H278572   1.157   4.420  10.887  0.4014  0.3640  0.9889
19053TIP3   OH278573   5.829   1.258   1.001 -0.6808 -0.2289 -0.0319
19053TIP3    H178574   5.807   1.202   0.927  1.2977 -1.9749  0.6068
19053TIP3    H278575   5.859   1.198   1.069 -1.7074  1.3791  1.9589
19054TIP3   OH278576   3.314   6.300   3.051  0.4372  0.3255 -0.7387
19054TIP3    H178577   3.262   6.329   3.126  1.0399 -1.7304  0.5270
19054TIP3    H278578   3.405   6.305   3.081  0.6679 -0.8194 -1.2104
19055TIP3   OH278579   0.990   5.248   5.081 -0.2701  0.0501  0.1373
19055TIP3    H178580   0.951   5.284   5.002  1.0750  0.2491 -0.4664
19055TIP3    H278581   1.015   5.159   5.057  0.5124  0.2474  0.1978
19056TIP3   OH278582   2.360   1.837   3.241 -0.2188 -0.3790 -0.3561
19056TIP3    H178583   2.373   1.901   3.170 -1.4676 -0.1542 -0.3915
19056TIP3    H278584   2.323   1.760   3.198 -0.7277 -0.3422  0.0126
19057TIP3   OH278585   3.219   5.977  15.101  0.1611 -0.3677  0.1607
19057TIP3    H178586   3.172   5.969  15.184  0.2474  1.5847  0.4395
19057TIP3    H278587   3.171   5.921  15.040 -0.5183 -1.0170  1.2705
19058TIP3   OH278588   0.734   5.874   2.828  0.3579  0.0707  0.4897
19058TIP3    H178589   0.719   5.876   2.733  0.1628 -0.9229  0.4931
19058TIP3    H278590   0.829   5.877   2.837  0.3540  1.4753  0.3159
19059TIP3   OH278591   2.490   6.487   5.147  0.0450 -0.2415 -0.3188
19059TIP3    H178592   2.504   6.399   5.113 -1.0492  0.4847 -2.9022
19059TIP3    H278593   2.516   6.545   5.075  0.5430  1.5739  1.2325
19060TIP3   OH278594   5.068   1.916   1.892  0.1024 -0.3781 -0.2087
19060TIP3    H178595   5.118   1.834   1.889  0.1781 -0.3730  0.6571
19060TIP3    H278596   5.130   1.981   1.925 -0.2939 -0.2308  0.2479
19061TIP3   OH278597   0.095   1.859  12.030 -0.7992  0.5822  0.3719
19061TIP3    H178598   0.141   1.942  12.043 -2.5548  1.5016  1.0485
19061TIP3    H278599   0.087   1.851  11.935  2.8833 -0.9070  0.0152
19062TIP3   OH278600   3.412   0.496  12.637 -0.4516 -0.2159 -0.6387
19062TIP3    H178601   3.383   0.434  12.570  0.0174 -0.8328 -0.2745
19062TIP3    H278602   3.431   0.442  12.714  0.7130  0.2912 -0.5588
19063TIP3   OH278603   0.346   1.461  14.142 -0.1007 -0.5750 -0.0808
19063TIP3    H178604   0.371   1.535  14.197 -0.6546  0.1707 -0.8090
19063TIP3    H278605   0.254   1.446  14.161  0.3797 -2.1672  1.2766
19064TIP3   OH278606   2.314   4.978   4.803 -0.3760 -0.1280  0.1134
19064TIP3    H178607   2.321   4.901   4.747 -0.4149  0.0265 -0.1051
19064TIP3    H278608   2.222   4.981   4.830 -0.1021 -0.9384  1.2447
19065TIP3   OH278609   1.260   6.703  10.652  0.5265  0.1726  0.2376
19065TIP3    H178610   1.291   6.764  10.585  0.7146 -1.3106 -1.0567
19065TIP3    H278611   1.183   6.746  10.689 -0.3785  0.4410 -1.8430
19066TIP3   OH278612   2.724   3.780   3.918  0.1003  0.5055  0.2189
19066TIP3    H178613   2.660   3.837   3.962  0.5145  0.8586  0.3695
19066TIP3    H278614   2.690   3.771   3.829 -0.1687  0.6800  0.3020
19067TIP3   OH278615   3.958   2.820  14.528 -0.1049 -0.8252  0.3087
19067TIP3    H178616   3.880   2.764  14.533 -0.8542  0.1650  0.0801
19067TIP3    H278617   3.973   2.833  14.434 -2.4208  2.5978  0.2147
19068TIP3   OH278618   5.069   0.822   2.369  0.1859  0.4169  0.8117
19068TIP3    H178619   5.140   0.779   2.417  1.1160  0.3159 -0.5929
19068TIP3    H278620   5.113   0.871   2.300 -1.1492 -0.8881 -1.0883
19069TIP3   OH278621   0.294   0.967   0.848 -0.2684 -0.5963  0.0338
19069TIP3    H178622   0.354   1.011   0.787  0.6953 -1.6772  0.1861
19069TIP3    H278623   0.261   1.038   0.903  1.7562 -0.1008  0.7017
19070TIP3   OH278624   4.195   5.571  10.614 -0.9403  0.4707  0.7062
19070TIP3    H178625   4.107   5.567  10.576 -0.8296 -0.6196  0.5273
19070TIP3    H278626   4.194   5.508  10.685 -0.4288  0.7843  1.0028
19071TIP3   OH278627   2.887   5.039   3.009  0.5570  0.6623  0.2786
19071TIP3    H178628   2.884   4.958   2.959 -1.5463  1.8363 -1.7040
19071TIP3    H278629   2.947   5.021   3.082  0.2100 -2.5847 -0.1175
19072TIP3   OH278630   3.710   1.201  14.359  0.1369 -0.2136  0.4806
19072TIP3    H178631   3.675   1.290  14.371 -1.5994 -0.8016  0.0908
19072TIP3    H278632   3.634   1.144  14.372  1.3898 -1.7212  1.5778
19073TIP3   OH278633   2.661   0.400  11.293 -0.0817  0.1765 -0.2933
19073TIP3    H178634   2.608   0.476  11.315 -1.8926 -1.5759  1.9208
19073TIP3    H278635   2.605   0.348  11.235 -0.7122 -1.4306  1.6266
19074TIP3   OH278636   0.248   1.366   2.078 -0.1676  0.5284 -0.2223
19074TIP3    H178637   0.270   1.302   2.146 -2.4861 -0.3207 -0.1655
19074TIP3    H278638   0.285   1.448   2.109  0.6107 -0.2557  1.0265
19075TIP3   OH278639   1.382   1.864  16.641  0.0717 -0.0612 -0.1156
19075TIP3    H178640   1.422   1.778  16.633  0.2972 -0.0804  1.0845
19075TIP3    H278641   1.316   1.854  16.709 -1.2640  0.2355 -1.3164
19076TIP3   OH278642   0.688   2.272  16.901  0.3051 -0.1884 -0.0709
19076TIP3    H178643   0.593   2.290  16.903  0.4500  1.3940 -2.3223
19076TIP3    H278644   0.709   2.243  16.989 -2.0055  1.0292  0.9889
19077TIP3   OH278645   4.983   1.999  16.488 -0.2263  0.0843 -0.2525
19077TIP3    H178646   4.965   2.086  16.452  0.2687 -0.0135 -0.7445
19077TIP3    H278647   4.997   1.944  16.411 -1.3720 -0.6241  0.0268
19078TIP3   OH278648   0.917   4.069   5.822 -0.1048 -0.0387 -0.0414
19078TIP3    H178649   1.008   4.071   5.850 -0.6634  1.0744  1.8856
19078TIP3    H278650   0.907   4.150   5.771 -0.2618  0.3502  0.6051
19079TIP3   OH278651   4.704   3.252  12.944 -0.0766 -1.0015 -1.0808
19079TIP3    H178652   4.761   3.291  12.878 -0.0059 -0.4372 -0.6889
19079TIP3    H278653   4.621   3.297  12.934  0.6015  0.7858  0.7636
19080TIP3   OH278654   1.522   1.964   5.612  0.5273  0.0356 -0.0922
19080TIP3    H178655   1.554   1.876   5.594 -0.9761 -0.9187  1.6923
19080TIP3    H278656   1.463   1.983   5.539 -0.2267 -1.0184  0.2227
19081TIP3   OH278657   1.952   6.696  13.257 -0.6099 -1.2002 -0.3286
19081TIP3    H178658   1.888   6.745  13.307 -1.6352 -3.3079  0.5243
19081TIP3    H278659   1.902   6.655  13.187 -0.3451 -3.1948  0.5811
19082TIP3   OH278660   5.093   5.385   1.807 -0.0812 -0.1373  0.4765
19082TIP3    H178661   5.167   5.328   1.784 -0.0967  1.0589 -3.0353
19082TIP3    H278662   5.017   5.327   1.802  0.3381 -0.9984  2.5723
19083TIP3   OH278663   3.534   4.758   2.591  0.0246  0.0478  0.4132
19083TIP3    H178664   3.462   4.706   2.555 -1.2589  2.6815 -1.0847
19083TIP3    H278665   3.613   4.717   2.555 -0.9062 -0.9459 -0.5639
19084TIP3   OH278666   6.128   2.669   4.484 -0.1914 -0.5183  0.1547
19084TIP3    H178667   6.121   2.575   4.465  0.9503 -0.4235 -0.8390
19084TIP3    H278668   6.190   2.702   4.420 -0.6059  0.9432  0.4689
19085TIP3   OH278669   4.288   3.962  15.367 -0.2862  0.6750  0.2118
19085TIP3    H178670   4.289   3.873  15.332 -0.1079  0.3192  1.0960
19085TIP3    H278671   4.254   4.016  15.296  0.5881  0.0549 -0.7006
19086TIP3   OH278672   3.570   2.492   3.342  0.1137 -0.5019 -0.4707
19086TIP3    H178673   3.483   2.476   3.306 -0.2574  1.1138 -0.3932
19086TIP3    H278674   3.611   2.406   3.346 -0.3365 -0.9690 -3.4312
19087TIP3   OH278675   4.388   4.667  12.859 -0.1069 -0.1159 -0.4036
19087TIP3    H178676   4.446   4.591  12.850  1.4598  1.0281 -0.5306
19087TIP3    H278677   4.303   4.636  12.830  0.0898 -2.2596  1.0904
19088TIP3   OH278678   0.941   5.869  14.307 -0.3398 -0.2779 -0.3172
19088TIP3    H178679   0.939   5.895  14.399  1.9544  0.2222 -0.3580
19088TIP3    H278680   0.936   5.951  14.258 -1.3657 -0.5295 -0.6684
19089TIP3   OH278681   3.488   3.442  14.147  0.0603 -0.4328  0.8113
19089TIP3    H178682   3.530   3.395  14.074  1.2814 -0.0063  1.2150
19089TIP3    H278683   3.409   3.480  14.108  0.5603 -0.4240 -0.2373
19090TIP3   OH278684   6.599   3.054   3.223 -0.7238  0.0825 -0.0097
19090TIP3    H178685   6.585   3.148   3.226  2.6084  0.7050  2.3965
19090TIP3    H278686   6.565   3.022   3.307  2.3593  0.0918  1.3921
19091TIP3   OH278687   0.281   1.535  13.301 -0.3697  0.1081 -0.3738
19091TIP3    H178688   0.216   1.534  13.371  0.2467  0.7449  0.2226
19091TIP3    H278689   0.280   1.625  13.268  0.3512  0.1845 -0.2104
19092TIP3   OH278690   4.172   0.079  16.422 -1.0591 -0.0277  0.2363
19092TIP3    H178691   4.131   0.015  16.363 -0.8423  0.1638 -0.1267
19092TIP3    H278692   4.252   0.105  16.377  0.1498 -1.3419  1.5164
19093TIP3   OH278693   3.419   4.373  15.446 -0.2410 -0.0582 -0.5548
19093TIP3    H178694   3.402   4.306  15.380 -1.9246 -0.2686  0.0423
19093TIP3    H278695   3.332   4.395  15.480  0.4897  0.8642  0.7807
19094TIP3   OH278696   3.802   1.537   4.962 -0.4601  0.5077  0.1158
19094TIP3    H178697   3.871   1.590   4.921  0.0280 -0.2734 -0.0910
19094TIP3    H278698   3.802   1.456   4.912 -0.4462 -0.1234  1.1135
19095TIP3   OH278699   4.571   4.273  16.338 -0.9144 -0.3758 -0.0996
19095TIP3    H178700   4.551   4.220  16.415 -0.2039 -0.5575 -0.0268
19095TIP3    H278701   4.562   4.363  16.367  0.9491 -0.3825  0.7012
19096TIP3   OH278702   4.085   6.708   5.672 -0.3933  0.0938 -0.0110
19096TIP3    H178703   4.148   6.700   5.744  0.8939 -2.0981 -1.2344
19096TIP3    H278704   4.136   6.685   5.594 -1.6402  2.6926 -1.7146
19097TIP3   OH278705   2.416   1.168   1.240  0.2242 -0.7654 -0.2048
19097TIP3    H178706   2.439   1.238   1.301 -0.6248  1.0413 -1.8697
19097TIP3    H278707   2.424   1.088   1.292 -0.4954  0.6691  2.2669
19098TIP3   OH278708   3.115   0.057   1.294  0.1940  0.4247 -0.1839
19098TIP3    H178709   3.120   0.135   1.350 -0.6687  0.8043 -0.6089
19098TIP3    H278710   3.125  -0.017   1.354  0.3336  0.8464  0.3194
19099TIP3   OH278711   6.684   5.706  12.704  0.4174 -0.1123 -0.0946
19099TIP3    H178712   6.701   5.787  12.655  0.3164  0.4103  0.7218
19099TIP3    H278713   6.713   5.637  12.645  2.6754  0.6024  0.0821
19100TIP3   OH278714   1.382   1.517  16.146 -0.1533  0.5490  0.6820
19100TIP3    H178715   1.418   1.504  16.058 -1.0802 -1.1563  0.5256
19100TIP3    H278716   1.459   1.529  16.201  0.6930 -1.9206  0.1817
19101TIP3   OH278717   3.255   4.306   5.473 -0.1584  0.4695 -0.1496
19101TIP3    H178718   3.302   4.337   5.551 -0.0354 -0.5809  0.1993
19101TIP3    H278719   3.291   4.220   5.456 -0.8500  0.3059 -0.8282
19102TIP3   OH278720   2.696   5.234  10.840  0.6915  0.0171  0.5551
19102TIP3    H178721   2.635   5.283  10.894 -0.3047 -1.3170  0.7045
19102TIP3    H278722   2.640   5.183  10.781  1.7238  0.7341 -1.1188
19103TIP3   OH278723   4.881   1.607  15.934  0.4630 -0.0078  0.3998
19103TIP3    H178724   4.845   1.527  15.895  1.6001 -1.2248  1.7483
19103TIP3    H278725   4.805   1.651  15.972 -0.1379 -0.5664 -0.1357
19104TIP3   OH278726   1.309   1.222  10.820 -0.3802 -0.0371  0.4706
19104TIP3    H178727   1.296   1.311  10.790  1.3388  0.3400  0.7281
19104TIP3    H278728   1.321   1.171  10.740  0.5523  0.3231  0.3650
19105TIP3   OH278729   5.085   5.281  13.928  0.2998  0.2307  0.5179
19105TIP3    H178730   5.019   5.340  13.966  1.3131  1.4094  0.5142
19105TIP3    H278731   5.141   5.257  14.002  0.3052 -0.1583  0.3866
19106TIP3   OH278732   4.073   5.507   4.554 -0.8330 -0.9543 -0.2381
19106TIP3    H178733   4.115   5.460   4.626 -0.1433  2.1203  1.5294
19106TIP3    H278734   3.979   5.502   4.573 -0.6890 -0.6384  0.5564
19107TIP3   OH278735   2.603   2.135  12.237 -0.4174 -0.4947 -0.0795
19107TIP3    H178736   2.523   2.162  12.282 -0.1635  0.9949 -0.4924
19107TIP3    H278737   2.573   2.100  12.153 -0.5330  3.0877 -1.6940
19108TIP3   OH278738   2.826   3.221   1.516  0.1894 -0.2478 -0.6506
19108TIP3    H178739   2.745   3.199   1.563  0.3734  0.5422  0.0500
19108TIP3    H278740   2.843   3.312   1.539  1.1408 -0.3281 -1.0083
19109TIP3   OH278741   1.813   6.738   4.161 -0.0428  0.3000 -0.3361
19109TIP3    H178742   1.837   6.773   4.247 -0.1138 -0.7675  0.1284
19109TIP3    H278743   1.718   6.736   4.162 -0.0378 -1.9504  0.5175
19110TIP3   OH278744   1.077   5.607   0.711 -0.3987  0.3940 -0.1538
19110TIP3    H178745   1.012   5.607   0.641 -1.1294 -2.0550  0.4488
19110TIP3    H278746   1.128   5.527   0.697 -0.0500  0.2499  1.6368
19111TIP3   OH278747   2.026   0.683  16.460  0.1829  0.5019  0.5363
19111TIP3    H178748   2.121   0.690  16.444  0.1309 -0.1575 -0.1482
19111TIP3    H278749   1.986   0.720  16.382 -0.1599  2.0685  1.4166
19112TIP3   OH278750   0.135   2.940   0.527 -0.2840 -0.8764 -0.4184
19112TIP3    H178751   0.169   2.928   0.616  0.8731 -1.4317 -0.9237
19112TIP3    H278752   0.099   3.029   0.527  0.1829 -0.6757  0.4416
19113TIP3   OH278753   2.865   2.261   3.266 -0.6711  0.1048 -0.2581
19113TIP3    H178754   2.791   2.317   3.245 -1.5426 -0.5323  1.0134
19113TIP3    H278755   2.885   2.279   3.358  0.8758  0.3905 -0.6146
19114TIP3   OH278756   6.013   5.783  13.025  0.4424 -0.0417 -0.0751
19114TIP3    H178757   6.010   5.878  13.030  0.0570 -0.0605  0.0670
19114TIP3    H278758   6.062   5.756  13.102 -0.0139  0.0092  0.2380
19115TIP3   OH278759   0.486   6.098   3.621 -0.4335  0.0296  0.2791
19115TIP3    H178760   0.435   6.163   3.573 -0.2652 -0.7657 -1.0305
19115TIP3    H278761   0.521   6.040   3.553  1.7547  0.2151  1.1555
19116TIP3   OH278762   4.621   1.146   4.108  0.4987 -0.5998 -0.0640
19116TIP3    H178763   4.707   1.151   4.151 -0.0084 -1.0882  1.0534
19116TIP3    H278764   4.570   1.216   4.149  0.5640  0.1661 -1.2404
19117TIP3   OH278765   0.140   1.785  10.907  0.1721 -0.4212 -0.2002
19117TIP3    H178766   0.220   1.736  10.891 -0.1481 -2.0035  2.5118
19117TIP3    H278767   0.149   1.817  10.997 -1.8117  0.2294 -0.1911
19118TIP3   OH278768   2.419   2.216   5.813 -0.2891 -0.3411  0.1376
19118TIP3    H178769   2.455   2.265   5.739  2.1124 -1.2971  0.6015
19118TIP3    H278770   2.458   2.256   5.890 -1.2987 -0.5635  0.7904
19119TIP3   OH278771   4.571   1.637  10.579 -0.2773  0.6768 -0.1924
19119TIP3    H178772   4.515   1.569  10.542 -0.6914  0.6967  0.3863
19119TIP3    H278773   4.551   1.715  10.527  1.3168  0.0381 -1.8892
19120TIP3   OH278774   2.486   5.913   0.250 -0.0607 -0.5605 -0.0334
19120TIP3    H178775   2.459   6.004   0.257 -0.8877 -0.7761 -0.2784
19120TIP3    H278776   2.536   5.896   0.330 -2.2228 -0.6491  1.3664
19121TIP3   OH278777   4.282   1.885   2.073 -0.0288 -0.4494 -0.1358
19121TIP3    H178778   4.375   1.870   2.057  0.5986  2.9637 -0.4441
19121TIP3    H278779   4.257   1.817   2.136  2.8799 -0.9328  0.6388
19122TIP3   OH278780   5.648   1.389   6.714  0.7535  0.3098  0.4455
19122TIP3    H178781   5.742   1.400   6.728  1.0276 -0.7060 -0.4824
19122TIP3    H278782   5.621   1.469   6.669  1.4667  0.0193 -0.5445
19123TIP3   OH278783   4.035   5.694  15.853  0.5162  0.3134  0.3314
19123TIP3    H178784   4.069   5.761  15.793  1.4973 -0.8685 -0.4732
19123TIP3    H278785   4.072   5.612  15.821 -1.0474 -0.7023  1.0029
19124TIP3   OH278786   5.258   4.522   1.682 -0.6796 -0.1199  0.2820
19124TIP3    H178787   5.302   4.481   1.608  2.0357  0.2080  1.6002
19124TIP3    H278788   5.262   4.616   1.664  1.3417  0.0675  1.4563
19125TIP3   OH278789   5.188   4.842  12.263  0.2030  0.2941  0.9772
19125TIP3    H178790   5.144   4.927  12.260  0.9425  0.6924  1.1943
19125TIP3    H278791   5.122   4.783  12.300 -0.6922  0.5233 -0.1888
19126TIP3   OH278792   1.119   6.431  12.749 -0.2483 -0.0319 -0.0851
19126TIP3    H178793   1.035   6.438  12.703 -0.0645 -0.7250 -0.5465
19126TIP3    H278794   1.098   6.385  12.830 -0.2563 -0.6258 -0.4104
19127TIP3   OH278795   6.307   4.167   3.728  0.1053  0.1910  0.2734
19127TIP3    H178796   6.236   4.107   3.748 -0.0662  0.8439  1.7639
19127TIP3    H278797   6.387   4.118   3.747 -0.0091  0.1489  0.6501
19128TIP3   OH278798   5.759   6.004   5.144  0.4932 -0.4881 -0.3839
19128TIP3    H178799   5.798   6.085   5.179  0.1144 -0.6795  0.5309
19128TIP3    H278800   5.794   5.935   5.201 -0.3316 -0.7836 -0.2181
19129TIP3   OH278801   1.391   1.539   4.376  0.2085 -0.0169 -0.5623
19129TIP3    H178802   1.391   1.444   4.391 -1.2431 -0.1075 -0.9792
19129TIP3    H278803   1.361   1.548   4.285 -0.3565  0.8597 -0.2983
19130TIP3   OH278804   5.594   2.765  15.637 -0.1677 -0.4364  0.2749
19130TIP3    H178805   5.545   2.845  15.619  0.2001 -0.5689 -1.4356
19130TIP3    H278806   5.536   2.695  15.607  0.4518 -0.6712 -0.4009
19131TIP3   OH278807   1.221   4.672  11.189 -0.1898 -0.2239  0.4317
19131TIP3    H178808   1.160   4.601  11.208 -0.3983  0.0120  0.6436
19131TIP3    H278809   1.173   4.752  11.211  0.0077 -0.0096  0.1020
19132TIP3   OH278810   3.940   5.658  11.549  0.7555  0.4730  0.0030
19132TIP3    H178811   3.936   5.693  11.460  0.2617  1.0678  0.2498
19132TIP3    H278812   3.864   5.599  11.555 -0.2776  1.8095  0.5837
19133TIP3   OH278813   6.790   2.422   4.149  0.4826  0.0105  0.0162
19133TIP3    H178814   6.747   2.393   4.229  0.0599 -0.9232 -0.5272
19133TIP3    H278815   6.810   2.514   4.164 -0.6665  0.1633  0.7241
19134TIP3   OH278816   6.031   5.940  16.983  0.7221  0.5445  0.4036
19134TIP3    H178817   6.074   5.854  16.983 -0.9140 -0.3578 -1.6974
19134TIP3    H278818   6.103   6.002  16.992  2.2133 -0.9805 -0.2737
19135TIP3   OH278819   5.346   4.907  15.018  0.0777  0.3177  0.2020
19135TIP3    H178820   5.433   4.931  15.048 -0.8904  2.4513  1.5412
19135TIP3    H278821   5.296   4.895  15.098 -0.7912 -1.2951 -0.5351
19136TIP3   OH278822   5.148   2.874  12.433  0.3741 -0.1840  0.2738
19136TIP3    H178823   5.124   2.833  12.515  3.1295 -1.6672  0.4382
19136TIP3    H278824   5.208   2.813  12.391 -0.9124  0.4942 -2.9125
19137TIP3   OH278825   0.685   2.618   4.904 -0.1629  0.4597 -0.5379
19137TIP3    H178826   0.776   2.644   4.917  0.1577  0.3317 -2.2544
19137TIP3    H278827   0.638   2.699   4.884  0.0832  0.2723 -2.0418
19138TIP3   OH278828   5.962   3.958   0.538  0.3036 -0.3979 -0.1836
19138TIP3    H178829   5.959   3.981   0.631  0.0809 -0.8240 -0.0820
19138TIP3    H278830   6.053   3.975   0.512  0.5215 -0.8422  0.2638
19139TIP3   OH278831   4.277   0.232  16.925 -0.0641  0.2364  0.1541
19139TIP3    H178832   4.194   0.185  16.921 -0.3630  0.8027 -0.6170
19139TIP3    H278833   4.315   0.221  16.838  1.2353 -0.9951  0.8487
19140TIP3   OH278834   6.469   4.024   6.379 -0.1471 -0.4437 -0.7480
19140TIP3    H178835   6.562   4.033   6.362 -0.2991  0.0242 -1.3853
19140TIP3    H278836   6.450   3.932   6.364  0.3851 -0.7394  0.3179
19141TIP3   OH278837   2.491   2.963   2.551  0.1916 -0.1539  0.0298
19141TIP3    H178838   2.528   2.880   2.581 -0.9592 -0.6261  0.2054
19141TIP3    H278839   2.485   2.953   2.456 -2.0003 -1.2029  0.2190
19142TIP3   OH278840   0.156   0.611   0.566 -0.2081  0.0802  0.4363
19142TIP3    H178841   0.170   0.660   0.648  2.4160 -0.4300  0.3741
19142TIP3    H278842   0.063   0.592   0.566 -0.2924 -0.0283  3.4007
19143TIP3   OH278843   1.485   4.917  12.391  0.0591 -0.0502  0.0928
19143TIP3    H178844   1.442   4.940  12.473 -0.7350  0.4524 -0.4367
19143TIP3    H278845   1.482   4.822  12.387  1.3359 -0.1529  1.2732
19144TIP3   OH278846   4.803   5.215  11.823 -0.2742 -0.4520 -0.2309
19144TIP3    H178847   4.822   5.300  11.863 -0.3473 -1.1684  1.4067
19144TIP3    H278848   4.717   5.191  11.859  0.0307 -1.4923 -0.1894
19145TIP3   OH278849   6.402   2.464   6.250 -0.4453  0.6490 -0.2567
19145TIP3    H178850   6.352   2.521   6.192 -0.3864 -0.4285 -1.3998
19145TIP3    H278851   6.408   2.381   6.203  1.0432  0.2622  0.5486
19146TIP3   OH278852   5.691   5.634  13.209 -0.4291  0.1888  0.3158
19146TIP3    H178853   5.752   5.706  13.228  0.1092 -0.3432  0.6381
19146TIP3    H278854   5.604   5.672  13.221 -0.1761  1.0406 -0.4249
19147TIP3   OH278855   1.799   1.211   1.988  0.4176 -0.1625 -0.1295
19147TIP3    H178856   1.842   1.294   1.968  0.6580 -0.1864  0.2694
19147TIP3    H278857   1.710   1.235   2.013  0.8214  0.1047  1.1565
19148TIP3   OH278858   4.773   2.863  14.792 -0.4871  0.4922  0.1896
19148TIP3    H178859   4.816   2.787  14.831 -0.9187  0.1540  0.0173
19148TIP3    H278860   4.820   2.877  14.710 -0.4783  0.3386  0.1677
19149TIP3   OH278861   5.113   1.987  15.738  0.3678 -0.1743 -0.1686
19149TIP3    H178862   5.161   2.014  15.660 -1.7342 -0.9004 -1.8202
19149TIP3    H278863   5.099   1.893  15.726 -0.3563 -0.2152  0.8563
19150TIP3   OH278864   3.392   0.538   2.397 -0.3544  0.6808 -0.0181
19150TIP3    H178865   3.430   0.624   2.413  3.1403 -0.2470 -2.2051
19150TIP3    H278866   3.440   0.479   2.455 -2.0011 -0.0013  0.7288
19151TIP3   OH278867   0.770   1.466   3.042 -0.1068 -0.2140  0.0516
19151TIP3    H178868   0.717   1.404   2.991  1.3831 -1.6432  0.1884
19151TIP3    H278869   0.737   1.458   3.131  0.5987 -1.4159  0.2163
19152TIP3   OH278870   5.393   0.151  11.711 -0.1420 -0.5218 -0.5645
19152TIP3    H178871   5.387   0.069  11.759 -2.2981 -0.0313  0.0982
19152TIP3    H278872   5.308   0.193  11.724  1.1662  2.2046 -0.1855
19153TIP3   OH278873   5.033   1.028  12.803  0.4686  0.0241 -0.0868
19153TIP3    H178874   5.097   1.099  12.812  0.7969 -0.1278 -1.0818
19153TIP3    H278875   4.969   1.045  12.872  0.8859  0.9259  0.1005
19154TIP3   OH278876   1.171   1.455  13.196  0.0926 -0.0368  0.5029
19154TIP3    H178877   1.148   1.380  13.250 -0.1824  1.0692  1.9825
19154TIP3    H278878   1.098   1.463  13.134 -0.2377 -0.5181  0.8225
19155TIP3   OH278879   4.539   6.301  15.368  0.3878 -0.2350 -0.1167
19155TIP3    H178880   4.461   6.264  15.407 -0.5265  0.1601 -1.4767
19155TIP3    H278881   4.611   6.267  15.420 -0.6665 -0.8047  1.0175
19156TIP3   OH278882   4.147   4.620  11.545 -0.3309 -0.0168  0.2683
19156TIP3    H178883   4.167   4.712  11.562 -1.0562  0.5172 -1.5438
19156TIP3    H278884   4.092   4.622  11.466  1.4937 -2.1506 -1.1706
19157TIP3   OH278885   2.155   1.883  12.152  0.0641  0.2928  0.0248
19157TIP3    H178886   2.064   1.903  12.176  0.9064  0.9409  2.9893
19157TIP3    H278887   2.150   1.794  12.116 -1.9318  0.9577 -1.6039
19158TIP3   OH278888   4.011   3.382   3.322  0.8466 -0.4644  0.3994
19158TIP3    H178889   3.990   3.451   3.385  0.9342  0.1385 -0.2210
19158TIP3    H278890   3.969   3.304   3.357 -2.1273  0.5623 -0.5265
19159TIP3   OH278891   0.268   2.531  13.726  0.2546  0.1347  0.0879
19159TIP3    H178892   0.182   2.554  13.691 -1.2123 -1.9028  2.0461
19159TIP3    H278893   0.324   2.523  13.648 -0.9836  2.5463 -1.1598
19160TIP3   OH278894   4.175   2.658   0.600 -0.2003 -0.6848 -0.7722
19160TIP3    H178895   4.171   2.731   0.539 -0.1800  0.0753  0.1064
19160TIP3    H278896   4.264   2.662   0.637 -0.5765 -0.4118  0.1434
19161TIP3   OH278897   1.671   5.312  15.842 -0.0436  0.5460  0.4607
19161TIP3    H178898   1.754   5.304  15.795  1.1908 -0.7283  2.6477
19161TIP3    H278899   1.619   5.238  15.810  0.4674  0.1660  0.4825
19162TIP3   OH278900   1.447   1.988   6.673  0.2304 -0.1077 -0.5376
19162TIP3    H178901   1.444   2.071   6.626  2.3880  1.1132  1.2873
19162TIP3    H278902   1.367   1.987   6.725  0.0030  0.6664 -0.8613
19163TIP3   OH278903   2.958   6.439  11.954  0.0172 -0.0292  0.0501
19163TIP3    H178904   3.032   6.386  11.982 -0.0628 -0.7447 -1.0494
19163TIP3    H278905   2.974   6.456  11.861 -1.3323 -0.4256 -0.2766
19164TIP3   OH278906   5.767   4.518  16.069 -0.3434  0.4118  0.2398
19164TIP3    H178907   5.826   4.449  16.039 -0.9264  0.8491 -2.1276
19164TIP3    H278908   5.824   4.586  16.105  0.3191 -0.6870  1.3119
19165TIP3   OH278909   6.248   5.765   6.610 -0.3469 -0.3538  0.1494
19165TIP3    H178910   6.182   5.832   6.589  1.3359  1.9362  1.6343
19165TIP3    H278911   6.227   5.692   6.553 -2.1907  1.5157 -1.7539
19166TIP3   OH278912   1.409   6.272   6.033  0.0796  0.6673  0.2380
19166TIP3    H178913   1.346   6.340   6.009 -1.4857  0.0501  2.3066
19166TIP3    H278914   1.432   6.292   6.124  1.3910 -0.2366  0.1204
19167TIP3   OH278915   6.297   0.602  13.422 -0.0826 -0.2218 -0.1207
19167TIP3    H178916   6.380   0.561  13.398  1.3051  0.7353  2.6603
19167TIP3    H278917   6.318   0.695  13.428 -0.9360 -0.1182  2.0698
19168TIP3   OH278918   2.400   2.654  13.133  0.9418 -0.7212  0.0632
19168TIP3    H178919   2.384   2.605  13.052  2.2394  0.7131 -1.1241
19168TIP3    H278920   2.388   2.746  13.109  1.7799 -0.2335  1.3919
19169TIP3   OH278921   4.775   1.238   1.665  0.1187  0.3815 -0.5210
19169TIP3    H178922   4.728   1.228   1.748 -0.9989 -1.7820 -1.3381
19169TIP3    H278923   4.809   1.328   1.668 -0.4326  0.5987  1.9623
19170TIP3   OH278924   5.899   4.905   0.669 -0.2110  0.3036 -0.3967
19170TIP3    H178925   5.911   4.915   0.575  1.5359  1.5137 -0.0981
19170TIP3    H278926   5.963   4.839   0.695 -2.0502 -1.5582 -0.2786
19171TIP3   OH278927   6.276   2.982  14.484  0.1795 -0.4363  0.0585
19171TIP3    H178928   6.278   3.055  14.421 -1.2769 -0.0029  0.4803
19171TIP3    H278929   6.183   2.969  14.502  0.3265 -2.9450 -0.6110
19172TIP3   OH278930   6.461   2.238   2.394 -0.7885  0.0575 -0.0824
19172TIP3    H178931   6.494   2.260   2.481 -2.0217 -0.8794  0.6640
19172TIP3    H278932   6.408   2.314   2.369 -1.3685 -0.1397  0.5068
19173TIP3   OH278933   5.941   0.821  12.648  0.0076 -0.2132 -0.3439
19173TIP3    H178934   6.012   0.818  12.583 -0.2624 -1.4915 -0.6068
19173TIP3    H278935   5.983   0.801  12.731  0.0374 -0.5242 -0.4322
19174TIP3   OH278936   0.839   1.752   2.432  0.0786  0.0006  0.0627
19174TIP3    H178937   0.839   1.848   2.439 -0.1789 -0.0047  0.1569
19174TIP3    H278938   0.799   1.734   2.347  0.3902 -0.0158 -0.0797
19175TIP3   OH278939   4.145   1.939   6.084 -0.0314 -0.7805 -0.4972
19175TIP3    H178940   4.181   1.871   6.141 -0.9296 -3.1223 -2.5421
19175TIP3    H278941   4.076   1.980   6.136 -1.1141 -3.1344  0.0708
19176TIP3   OH278942   4.610   4.052   2.962  0.5624  0.0250  0.0047
19176TIP3    H178943   4.568   4.110   3.026  2.8892  1.4251  0.3785
19176TIP3    H278944   4.700   4.083   2.958  1.0288 -1.4294 -2.3738
19177TIP3   OH278945   5.276   5.684  14.893 -0.3442  0.8046  0.1257
19177TIP3    H178946   5.247   5.764  14.849  0.8110  1.2572  0.1735
19177TIP3    H278947   5.342   5.712  14.955  0.5790 -0.2527 -0.3368
19178TIP3   OH278948   0.820   6.398  15.231 -0.1843 -0.4499 -0.1037
19178TIP3    H178949   0.738   6.446  15.236 -0.1772 -0.2779 -1.2646
19178TIP3    H278950   0.805   6.331  15.164  1.4555  1.3679 -2.4715
19179TIP3   OH278951   2.600   2.044   2.458 -0.3893 -0.0356  0.1649
19179TIP3    H178952   2.682   2.000   2.479 -0.9754 -0.9369  0.6085
19179TIP3    H278953   2.539   2.014   2.525 -1.6427 -0.9990 -1.3602
19180TIP3   OH278954   5.806   6.574  13.312  0.7353  0.2338 -0.0229
19180TIP3    H178955   5.743   6.503  13.303  1.7726 -0.9817  1.7053
19180TIP3    H278956   5.762   6.638  13.367  0.3707  0.1985 -0.2717
19181TIP3   OH278957   4.035   1.723  12.831 -0.6756 -0.5417 -0.3993
19181TIP3    H178958   4.020   1.715  12.925  0.5958 -1.9349 -0.2886
19181TIP3    H278959   4.111   1.667  12.813  0.3485  1.2238 -1.9379
19182TIP3   OH278960   1.773   5.928   0.071 -0.3189 -0.0097 -0.3083
19182TIP3    H178961   1.747   5.866   0.003  0.1801 -1.9707  1.1667
19182TIP3    H278962   1.859   5.960   0.043  0.3240 -1.5262 -0.2047
19183TIP3   OH278963   4.323   3.838   6.477  0.6894  0.0657  0.3098
19183TIP3    H178964   4.314   3.884   6.393 -2.0387 -2.7021 -1.1111
19183TIP3    H278965   4.281   3.895   6.541  1.8165  1.7089 -0.3441
19184TIP3   OH278966   6.670   4.915  17.009  0.2576 -0.0476  0.1724
19184TIP3    H178967   6.676   4.948  16.920 -1.5104  1.3684  0.5177
19184TIP3    H278968   6.699   4.988  17.064 -1.2789  0.1179  0.8387
19185TIP3   OH278969   4.464   1.804  11.894 -0.2602  0.0975 -0.2563
19185TIP3    H178970   4.436   1.790  11.985  0.6151 -1.6595 -0.2135
19185TIP3    H278971   4.445   1.721  11.851 -2.8435  1.5977 -2.3433
19186TIP3   OH278972   6.015   4.589  11.898 -0.2242  0.0910 -1.2066
19186TIP3    H178973   5.946   4.577  11.832 -1.1698  0.1638 -0.2533
19186TIP3    H278974   6.022   4.684  11.907 -1.5144  0.0876  0.2096
19187TIP3   OH278975   0.828   1.214   2.385 -0.1586  0.1802  0.3556
19187TIP3    H178976   0.873   1.175   2.311  0.1506  2.1984 -0.5900
19187TIP3    H278977   0.769   1.146   2.416  0.8348 -1.2340 -0.7478
19188TIP3   OH278978   3.917   4.614  14.774 -0.1981 -0.1788 -0.2537
19188TIP3    H178979   3.912   4.558  14.852 -0.9394  0.4352  0.1567
19188TIP3    H278980   3.980   4.570  14.717  0.1807 -0.7674  0.5913
19189TIP3   OH278981   4.269   0.670   5.182 -0.3467  0.1757  0.6443
19189TIP3    H178982   4.191   0.627   5.148 -0.0153 -0.8380  1.1133
19189TIP3    H278983   4.340   0.641   5.124 -0.3162  1.1907  0.1408
19190TIP3   OH278984   6.471   5.541   1.927  0.3472 -0.1442  0.4309
19190TIP3    H178985   6.430   5.578   1.850  0.6210  0.7143  0.6888
19190TIP3    H278986   6.492   5.616   1.983  1.4938 -0.6185  0.6861
19191TIP3   OH278987   2.337   5.416   2.105 -0.2039  0.5812  0.5120
19191TIP3    H178988   2.383   5.487   2.060  0.6881  1.4666  2.7064
19191TIP3    H278989   2.366   5.421   2.196 -1.5422 -1.4506  1.1384
19192TIP3   OH278990   3.898   3.812  15.687  0.2408  0.4104 -0.0573
19192TIP3    H178991   3.891   3.849  15.775  1.7346 -1.4760  0.9169
19192TIP3    H278992   3.808   3.791  15.662 -0.1720  0.7185  1.1403
19193TIP3   OH278993   2.868   1.242   4.957 -0.1474 -0.2670  0.0091
19193TIP3    H178994   2.845   1.151   4.939 -1.6389  0.3562 -1.5400
19193TIP3    H278995   2.784   1.287   4.965  0.4281  1.5720 -2.7474
19194TIP3   OH278996   3.272   0.653   0.413  0.0611  0.5528  0.5418
19194TIP3    H178997   3.192   0.626   0.368  0.1279  0.9182  0.2061
19194TIP3    H278998   3.342   0.604   0.369 -0.1597 -1.3346  2.1224
19195TIP3   OH278999   1.530   0.520  16.071 -0.2362  0.3023  0.1265
19195TIP3    H179000   1.615   0.497  16.032 -0.3894 -0.3140  0.1515
19195TIP3    H279001   1.512   0.608  16.038 -0.4626 -0.2850 -1.3730
19196TIP3   OH279002   1.177   3.474   3.476 -0.4431 -0.3173 -0.0866
19196TIP3    H179003   1.188   3.561   3.437 -0.0024 -0.3321 -0.0009
19196TIP3    H279004   1.096   3.480   3.527 -0.8619 -0.2064 -0.7488
19197TIP3   OH279005   1.470   6.533   1.800  0.0781 -0.0705 -0.5817
19197TIP3    H179006   1.436   6.473   1.734 -1.0928 -2.3459  1.9073
19197TIP3    H279007   1.565   6.524   1.795  0.0556  0.4206 -2.4239
19198TIP3   OH279008   6.148   3.213   1.773 -0.0737  1.1169 -0.2248
19198TIP3    H179009   6.201   3.166   1.709 -1.4473  1.2551 -1.5407
19198TIP3    H279010   6.179   3.182   1.858  0.2934 -0.7946 -1.0065
19199TIP3   OH279011   3.758   4.455  15.753 -0.4636  0.7016  0.5880
19199TIP3    H179012   3.715   4.469  15.668 -1.0852  0.9727  0.9348
19199TIP3    H279013   3.812   4.378  15.740  0.2505  1.3344 -0.3517
19200TIP3   OH279014   1.455   6.135   2.522 -0.9099 -0.2079 -0.5215
19200TIP3    H179015   1.405   6.184   2.457  0.2030 -0.6011 -1.7302
19200TIP3    H279016   1.442   6.043   2.499 -1.2490 -0.4095  0.4078
19201TIP3   OH279017   1.300   2.563  16.066  0.3734 -0.0387  0.9597
19201TIP3    H179018   1.217   2.597  16.100  1.1550  2.1060  0.9183
19201TIP3    H279019   1.314   2.611  15.985  0.5279 -2.1422 -0.3317
19202TIP3   OH279020   3.867   1.752  15.082 -0.7049  0.3784 -0.1941
19202TIP3    H179021   3.809   1.683  15.112  1.3608 -0.6353  1.7896
19202TIP3    H279022   3.866   1.745  14.987 -2.5031 -0.6573 -0.1435
19203TIP3   OH279023   2.395   3.520   3.947  0.3581 -0.1131  0.1891
19203TIP3    H179024   2.317   3.486   3.991  0.5769 -1.1694 -0.2257
19203TIP3    H279025   2.367   3.535   3.856  0.3146  0.6715  0.3199
19204TIP3   OH279026   6.090   1.056  12.508  0.2093 -0.1134  0.4859
19204TIP3    H179027   6.079   1.123  12.575  1.7564 -0.2154  0.8834
19204TIP3    H279028   6.168   1.008  12.535  0.0197 -1.0864 -0.6209
19205TIP3   OH279029   4.090   1.337   4.085 -0.2429  0.5655 -0.1013
19205TIP3    H179030   4.113   1.418   4.038 -0.6473  0.0437 -1.2523
19205TIP3    H279031   3.995   1.331   4.076 -0.3875  0.6682  1.1867
19206TIP3   OH279032   0.398   5.404  15.221 -0.2781  0.1128 -0.1258
19206TIP3    H179033   0.303   5.398  15.210 -0.3475  1.1526 -0.2055
19206TIP3    H279034   0.412   5.485  15.269  0.4458 -1.1623  1.9277
19207TIP3   OH279035   1.199   6.269   6.509 -0.4055  0.2640 -0.2105
19207TIP3    H179036   1.243   6.283   6.592 -0.7792  1.4743 -0.2054
19207TIP3    H279037   1.190   6.356   6.470 -0.7485 -0.2142 -1.2563
19208TIP3   OH279038   0.952   5.168  11.024 -0.1914  0.2964 -0.2940
19208TIP3    H179039   0.898   5.192  11.100  0.6073 -1.4206  0.8685
19208TIP3    H279040   0.920   5.225  10.954 -1.9518  0.9178  0.9312
19209TIP3   OH279041   3.547   5.189  13.231  0.3660 -0.4129  0.0319
19209TIP3    H179042   3.565   5.283  13.235  0.3716 -0.4501  1.4237
19209TIP3    H279043   3.622   5.151  13.186  0.3472  0.2529 -0.5671
19210TIP3   OH279044   5.150   5.629  12.615  0.1597 -0.1510 -0.0816
19210TIP3    H179045   5.228   5.654  12.664  1.1087 -0.3772 -1.4360
19210TIP3    H279046   5.170   5.542  12.580 -0.8779 -0.4013 -0.0913
19211TIP3   OH279047   2.682   3.939   2.481 -0.9081  0.4013  0.0807
19211TIP3    H179048   2.719   4.025   2.459  0.3361  0.6144  2.6779
19211TIP3    H279049   2.757   3.880   2.483 -1.7609 -0.8476 -1.7499
19212TIP3   OH279050   4.000   3.954  13.901  0.0813 -0.0832  0.6551
19212TIP3    H179051   4.065   3.990  13.840 -1.2198 -1.5584 -1.7720
19212TIP3    H279052   3.933   3.917  13.844 -1.9869 -0.2622  3.0602
19213TIP3   OH279053   3.834   2.099   1.372 -0.6530  0.0116 -0.2169
19213TIP3    H179054   3.795   2.068   1.453  0.1027 -0.5857 -0.0693
19213TIP3    H279055   3.842   2.194   1.383  0.7318 -0.2017  1.0020
19214TIP3   OH279056   5.720   1.338   6.039  0.6852 -0.1458  0.1846
19214TIP3    H179057   5.781   1.392   6.090 -0.0629  1.9936 -1.0739
19214TIP3    H279058   5.633   1.365   6.067  0.2340 -2.1822  0.9522
19215TIP3   OH279059   0.956   6.188  14.191 -0.2962 -0.5824 -0.1652
19215TIP3    H179060   0.900   6.182  14.268 -0.2095  1.2699  0.0927
19215TIP3    H279061   1.043   6.165  14.222 -0.2773  0.0737  0.2775
19216TIP3   OH279062   3.390   0.176   5.909  0.4240 -0.8778  0.0261
19216TIP3    H179063   3.466   0.234   5.915  0.8373 -1.5502  1.6609
19216TIP3    H279064   3.383   0.135   5.995 -1.6708 -1.0098 -0.1485
19217TIP3   OH279065   5.800   0.230  13.627  0.2124  0.5303 -0.3072
19217TIP3    H179066   5.839   0.212  13.712 -0.9301 -0.4753  0.0359
19217TIP3    H279067   5.855   0.298  13.589  1.2659  0.3557  0.8530
19218TIP3   OH279068   4.155   6.199   6.088  0.1522 -0.3830 -0.6284
19218TIP3    H179069   4.209   6.128   6.053 -1.0083 -1.1127 -1.0063
19218TIP3    H279070   4.168   6.195   6.183  2.2227  0.7028 -0.7945
19219TIP3   OH279071   5.292   4.960  14.687 -0.2415  0.6027  0.1618
19219TIP3    H179072   5.278   4.881  14.635  0.9872  0.5864 -0.1753
19219TIP3    H279073   5.323   4.928  14.772 -2.0882  0.6355  0.8933
19220TIP3   OH279074   0.051   5.221  12.286  0.5229 -0.4682  0.6952
19220TIP3    H179075  -0.015   5.289  12.302 -0.5059 -1.0249 -0.9338
19220TIP3    H279076   0.124   5.268  12.245  0.4978 -0.1023  1.0559
19221TIP3   OH279077   4.468   2.988  12.032 -0.3346 -0.0430  0.1850
19221TIP3    H179078   4.546   3.018  11.985 -0.8233  0.5462 -0.2656
19221TIP3    H279079   4.496   2.908  12.075  0.6227  0.3400  0.3076
19222TIP3   OH279080   1.432   3.569   0.074 -0.2394  0.5012  0.5678
19222TIP3    H179081   1.426   3.665   0.074  0.3706  0.5532 -0.6865
19222TIP3    H279082   1.384   3.543   0.153 -0.3931  1.8348  0.9489
19223TIP3   OH279083   4.962   0.697   3.816 -0.3943 -0.0277  0.5306
19223TIP3    H179084   4.871   0.706   3.843 -0.4911  1.5151 -0.1553
19223TIP3    H279085   5.010   0.759   3.872 -0.3372  1.8283 -1.4049
19224TIP3   OH279086   3.245   2.210  15.755 -0.6891 -0.0195 -0.4896
19224TIP3    H179087   3.204   2.278  15.808 -1.0234 -1.4730  1.2357
19224TIP3    H279088   3.299   2.257  15.691  0.1024  1.8588  1.4434
19225TIP3   OH279089   0.317   4.509   2.388  0.5409 -0.0210  0.1349
19225TIP3    H179090   0.391   4.495   2.329  0.8888 -0.0126  0.5621
19225TIP3    H279091   0.309   4.428   2.438 -0.3920 -0.4062 -0.6112
19226TIP3   OH279092   6.224   2.352  13.381 -0.9533 -0.1223  0.0218
19226TIP3    H179093   6.278   2.279  13.350 -0.1131  0.7830 -0.7023
19226TIP3    H279094   6.155   2.310  13.433 -0.1985 -1.3908  0.0458
19227TIP3   OH279095   4.130   3.042  13.364 -0.2226  0.0531 -0.8028
19227TIP3    H179096   4.204   3.063  13.421 -1.3470 -1.2610  1.2930
19227TIP3    H279097   4.086   3.126  13.350 -0.4725  0.3150  1.1813
19228TIP3   OH279098   4.274   6.037   5.710  0.4502  0.5817 -0.0694
19228TIP3    H179099   4.305   6.028   5.800  0.4708  0.5961 -0.0747
19228TIP3    H279100   4.216   6.113   5.711 -0.6067 -0.2081  0.2174
19229TIP3   OH279101   4.828   4.626  14.693  0.2432 -0.2826  0.5012
19229TIP3    H179102   4.765   4.696  14.711  0.0086 -0.5401  0.6890
19229TIP3    H279103   4.827   4.616  14.598 -0.6071 -0.8478  0.5659
19230TIP3   OH279104   0.619   1.034   1.858  0.2712  0.3969 -0.1946
19230TIP3    H179105   0.537   1.030   1.907 -0.3104 -2.2009 -1.2153
19230TIP3    H279106   0.614   1.116   1.810 -2.0605  0.0050 -0.7324
19231TIP3   OH279107   0.184   6.376   5.445  0.3527 -0.1379 -0.0992
19231TIP3    H179108   0.154   6.386   5.355  0.3471 -0.6702 -0.1584
19231TIP3    H279109   0.183   6.282   5.461  0.7908 -0.0802  0.3067
19232TIP3   OH279110   3.368   4.701  14.203 -0.0626 -0.0316  0.5964
19232TIP3    H179111   3.345   4.724  14.293 -0.4180 -2.0030  1.0716
19232TIP3    H279112   3.386   4.607  14.207  1.6273  0.1595 -1.0687
19233TIP3   OH279113   3.579   4.825   1.880 -0.2429  0.4341  0.0496
19233TIP3    H179114   3.668   4.852   1.856  0.7274 -2.1483  0.4634
19233TIP3    H279115   3.573   4.843   1.974  0.5731 -1.1394  0.4271
19234TIP3   OH279116   2.672   6.185   0.328  0.4723 -0.3004  0.3463
19234TIP3    H179117   2.585   6.207   0.294  0.9659  0.1947 -0.6399
19234TIP3    H279118   2.661   6.183   0.423 -0.9300 -1.6347  0.1812
19235TIP3   OH279119   0.816   6.615   5.533 -0.2657  0.3009 -0.1656
19235TIP3    H179120   0.824   6.603   5.628 -0.5313  0.7261 -0.0883
19235TIP3    H279121   0.790   6.529   5.500  0.7506 -0.0995  0.0341
19236TIP3   OH279122   0.559   3.223  15.734 -0.4633 -0.5885 -0.4015
19236TIP3    H179123   0.539   3.138  15.772 -1.1364 -0.5873 -0.7432
19236TIP3    H279124   0.627   3.206  15.670 -1.1524 -1.0068 -1.0395
19237TIP3   OH279125   6.155   0.703   3.165  0.2022 -0.2506 -0.5420
19237TIP3    H179126   6.068   0.740   3.149  0.0801 -1.2367 -2.4065
19237TIP3    H279127   6.147   0.611   3.142  1.8436 -0.2721 -1.2186
19238TIP3   OH279128   4.851   6.696  15.535 -0.2477 -0.0291 -0.1967
19238TIP3    H179129   4.775   6.638  15.541 -0.4969  0.3591  0.5315
19238TIP3    H279130   4.822   6.777  15.576  0.2635  0.4412 -0.7474
19239TIP3   OH279131   2.635   1.053  15.776  0.2243 -0.4266  0.2657
19239TIP3    H179132   2.610   1.124  15.834  0.7816  1.5985 -1.8215
19239TIP3    H279133   2.730   1.062  15.767  0.2020 -0.9527 -0.6337
19240TIP3   OH279134   3.775   2.059   2.203  0.0922  0.2557 -0.4439
19240TIP3    H179135   3.834   2.083   2.275 -1.5183  0.4617  0.8736
19240TIP3    H279136   3.779   1.964   2.199 -0.9294  0.1101  0.9941
19241TIP3   OH279137   1.924   5.649   0.163 -0.7257  0.3738  0.1602
19241TIP3    H179138   1.894   5.647   0.072  2.2977 -1.1766 -0.9329
19241TIP3    H279139   1.863   5.593   0.210 -1.7277  0.3457 -1.1280
19242TIP3   OH279140   6.155   5.018  11.240 -0.9431 -0.0566 -0.0352
19242TIP3    H179141   6.181   4.937  11.283 -2.2096 -0.2193  0.4745
19242TIP3    H279142   6.179   5.005  11.148  0.1841 -0.4097  0.2991
19243TIP3   OH279143   1.447   1.045   1.247  0.1620  0.2535  0.0944
19243TIP3    H179144   1.370   0.989   1.235 -0.6002  1.6684 -2.0204
19243TIP3    H279145   1.421   1.130   1.213  2.1361  1.2329  0.8888
19244TIP3   OH279146   6.053   5.937   2.654 -0.0197  0.0405 -0.0659
19244TIP3    H179147   6.072   6.016   2.704  0.3106  0.4520 -0.8190
19244TIP3    H279148   6.089   5.865   2.706  1.5464  0.5858 -0.3554
19245TIP3   OH279149   0.792   1.000   2.701 -0.0502  0.1190 -0.0644
19245TIP3    H179150   0.782   0.913   2.663 -2.2099 -0.6687  2.0293
19245TIP3    H279151   0.744   1.058   2.642 -1.2135 -0.6555  0.0955
19246TIP3   OH279152   3.113   6.605  10.294  0.0507  0.1404  0.1112
19246TIP3    H179153   3.096   6.686  10.245  0.4030  0.5606  0.6703
19246TIP3    H279154   3.029   6.560  10.295 -0.3374  0.8567  0.4370
19247TIP3   OH279155   4.964   1.406  10.787  0.5495 -0.9333  0.1053
19247TIP3    H179156   5.059   1.398  10.776  0.7963  0.5240  0.9583
19247TIP3    H279157   4.928   1.339  10.729  2.0963 -1.5699 -0.1757
19248TIP3   OH279158   3.945   4.525   2.128 -0.1736 -0.2760 -0.3612
19248TIP3    H179159   3.973   4.595   2.188 -1.0727 -1.7982  1.9895
19248TIP3    H279160   4.017   4.462   2.129  0.4214  0.3172 -2.0871
19249TIP3   OH279161   1.024   1.253  11.904  0.8394  0.0726  0.5281
19249TIP3    H179162   1.025   1.169  11.860  0.3237 -0.9582  2.3715
19249TIP3    H279163   0.946   1.297  11.870  1.3876  0.0380 -0.8162
19250TIP3   OH279164   4.262   4.772   4.063  0.1080  0.2360 -0.0556
19250TIP3    H179165   4.309   4.843   4.018 -0.9835  2.2691  1.7947
19250TIP3    H279166   4.175   4.771   4.022  0.0070  0.2450  0.1529
19251TIP3   OH279167   5.005   4.082  13.180 -0.0283 -0.3718 -0.7218
19251TIP3    H179168   5.049   4.128  13.109  0.3959  0.5828  0.1275
19251TIP3    H279169   5.062   4.095  13.256  0.7113 -3.3215 -0.6787
19252TIP3   OH279170   5.331   6.194  10.898  0.4523  0.6320 -0.1418
19252TIP3    H179171   5.249   6.237  10.873  0.4611 -0.5074 -2.3776
19252TIP3    H279172   5.392   6.266  10.914 -0.2414  1.4770 -1.1652
19253TIP3   OH279173   2.479   0.266  11.117 -0.3671  0.0428 -0.2830
19253TIP3    H179174   2.501   0.218  11.037 -0.4155 -0.5586  0.0559
19253TIP3    H279175   2.428   0.341  11.087 -0.3814 -0.1787 -0.8208
19254TIP3   OH279176   5.370   2.255  14.571 -0.1761  0.8706  0.0293
19254TIP3    H179177   5.442   2.299  14.527  0.7440  0.2965  0.9135
19254TIP3    H279178   5.407   2.172  14.601 -1.5236  0.0340 -0.5088
19255TIP3   OH279179   3.950   4.625   6.154  0.2108  0.0679 -0.3075
19255TIP3    H179180   4.042   4.618   6.129  0.4051 -2.3689  0.8816
19255TIP3    H279181   3.902   4.589   6.079  0.2555  0.5867 -0.5916
19256TIP3   OH279182   4.621   3.640   0.977  0.4462 -0.1193 -0.2943
19256TIP3    H179183   4.642   3.552   1.008  0.0456 -0.3038 -0.5251
19256TIP3    H279184   4.688   3.696   1.015 -0.1618 -0.2958  1.0961
19257TIP3   OH279185   2.099   5.894  16.416  0.5960  0.4704 -0.0732
19257TIP3    H179186   2.015   5.934  16.394  0.8280  1.3454  0.5295
19257TIP3    H279187   2.125   5.938  16.498  1.8122  0.4906 -0.4504
19258TIP3   OH279188   5.249   6.730  14.571 -0.1189 -0.2190  0.0506
19258TIP3    H179189   5.211   6.671  14.506 -1.7294  1.6876 -0.8475
19258TIP3    H279190   5.198   6.713  14.651 -2.2450  1.4931 -0.8327
19259TIP3   OH279191   4.564   2.789  13.369  0.3618 -0.6689  0.2055
19259TIP3    H179192   4.580   2.759  13.280  0.9088 -3.0837  1.0448
19259TIP3    H279193   4.591   2.881  13.369  1.5589 -0.9736 -1.7698
19260TIP3   OH279194   0.539   1.047   1.093 -0.1284 -0.4063  0.4381
19260TIP3    H179195   0.536   0.957   1.126 -0.0636 -0.3609  0.5667
19260TIP3    H279196   0.614   1.049   1.034  0.1064 -0.3332  0.7360
19261TIP3   OH279197   5.378   0.803  12.981 -0.1328 -0.0349  0.5028
19261TIP3    H179198   5.448   0.847  13.029 -1.5412  3.0699 -0.0182
19261TIP3    H279199   5.300   0.814  13.036 -1.3560  1.8760 -1.4070
19262TIP3   OH279200   2.930   2.709  13.435 -0.2544 -0.1501  0.8510
19262TIP3    H179201   2.895   2.627  13.402 -0.3640  0.0200  0.5421
19262TIP3    H279202   2.934   2.766  13.359  2.4377 -0.7292  0.4543
19263TIP3   OH279203   2.876   6.617   3.185 -0.2614  0.2417 -1.1848
19263TIP3    H179204   2.783   6.628   3.202 -0.4572 -0.7992 -1.4978
19263TIP3    H279205   2.912   6.585   3.268  0.1189  2.0682 -0.5939
19264TIP3   OH279206   3.841   3.774   5.428  0.3927 -0.5559  0.3154
19264TIP3    H179207   3.904   3.783   5.356  1.2545  0.1584  1.1356
19264TIP3    H279208   3.799   3.860   5.434  0.9514 -0.3236  1.2060
19265TIP3   OH279209   4.375   3.833   1.737  0.4574  0.0155  0.8767
19265TIP3    H179210   4.447   3.885   1.775  1.2551  0.5568 -1.2357
19265TIP3    H279211   4.313   3.898   1.705 -0.5231 -0.4488  1.7493
19266TIP3   OH279212   2.972   6.655   3.912 -0.2028 -0.2450  0.0363
19266TIP3    H179213   3.032   6.660   3.837 -0.6663 -1.8372 -0.4789
19266TIP3    H279214   3.028   6.627   3.984 -0.3125 -1.9077 -0.4851
19267TIP3   OH279215   1.370   6.169  13.324  0.6352  0.2762  0.0072
19267TIP3    H179216   1.446   6.215  13.290 -0.3129  0.9007 -1.3683
19267TIP3    H279217   1.401   6.125  13.403  1.4081  3.9601  1.9505
19268TIP3   OH279218   4.876   4.599   5.692 -0.3410 -0.7056 -0.2078
19268TIP3    H179219   4.882   4.645   5.775 -0.2412 -0.5461 -0.3040
19268TIP3    H279220   4.940   4.528   5.699 -0.1480 -0.5345 -0.2510
19269TIP3   OH279221   0.266   4.134   0.903 -0.4887  0.0368  0.0276
19269TIP3    H179222   0.190   4.150   0.848  0.0294  1.2221 -0.3680
19269TIP3    H279223   0.339   4.177   0.857  0.4000 -0.9404  0.4657
19270TIP3   OH279224   0.478   6.568   3.733  0.8372  0.5248  0.8605
19270TIP3    H179225   0.476   6.515   3.653 -1.0250 -1.6479  2.2014
19270TIP3    H279226   0.556   6.539   3.779  0.2538 -0.5410  1.2158
19271TIP3   OH279227   3.295   1.746  16.833  0.8025 -0.1185  0.1298
19271TIP3    H179228   3.287   1.664  16.883  0.6535  0.5944  1.3160
19271TIP3    H279229   3.389   1.763  16.830  0.8332 -0.3291 -0.1109
19272TIP3   OH279230   6.615   1.762   1.338  0.0266 -0.6386  0.0838
19272TIP3    H179231   6.575   1.778   1.252 -0.0645 -2.4091 -0.2348
19272TIP3    H279232   6.546   1.782   1.400 -0.8486 -2.0282 -0.3971
19273TIP3   OH279233   6.497   0.130  14.090 -0.0615  0.2656  0.2026
19273TIP3    H179234   6.470   0.175  14.010 -0.4682 -0.6128 -0.1720
19273TIP3    H279235   6.549   0.194  14.138 -2.4116  1.9253  0.7446
19274TIP3   OH279236   3.096   6.084   0.917 -0.1124  0.0065 -0.1389
19274TIP3    H179237   3.073   6.049   1.004 -0.4446  0.6802  0.0515
19274TIP3    H279238   3.183   6.122   0.929  0.0361 -0.3109 -0.2166
19275TIP3   OH279239   5.236   2.247  13.895 -0.1973 -0.5550 -0.1068
19275TIP3    H179240   5.206   2.336  13.911  0.7177 -0.2994  0.2803
19275TIP3    H279241   5.180   2.215  13.824 -1.1313  0.0003  0.3554
19276TIP3   OH279242   1.083   6.779   3.960 -0.8092 -0.5352  0.3217
19276TIP3    H179243   1.089   6.716   3.888  0.3156 -1.0005  0.8004
19276TIP3    H279244   1.090   6.864   3.917 -0.4035 -0.8004 -0.1513
19277TIP3   OH279245   3.983   2.484   1.408  0.8099 -0.6530 -0.0283
19277TIP3    H179246   4.046   2.525   1.466 -0.3744  1.9370 -0.4206
19277TIP3    H279247   4.031   2.470   1.326  1.1951  0.2321  0.0369
19278TIP3   OH279248   2.998   3.587   3.343  0.1104 -0.5649 -0.3174
19278TIP3    H179249   2.935   3.579   3.272  1.9774  1.7643 -2.4181
19278TIP3    H279250   3.029   3.497   3.359  0.1189 -1.0822 -2.9360
19279TIP3   OH279251   1.421   5.532  12.268  0.4298 -0.6019 -0.4246
19279TIP3    H179252   1.377   5.594  12.210 -0.8707 -0.1644  0.9366
19279TIP3    H279253   1.503   5.512  12.225  0.4246  1.2744 -1.4176
19280TIP3   OH279254   4.998   3.373   5.403  0.1323  0.0015 -0.4011
19280TIP3    H179255   5.068   3.351   5.340  1.6205  2.2573  0.3514
19280TIP3    H279256   4.950   3.445   5.362  1.4062  1.8121  1.1348
19281TIP3   OH279257   2.651   2.174  15.497 -0.2724 -0.1010  0.4775
19281TIP3    H179258   2.744   2.158  15.515  0.0410 -0.9573 -1.5645
19281TIP3    H279259   2.619   2.219  15.575  2.3720  2.2665  0.4027
19282TIP3   OH279260   6.674   4.890   3.073 -0.1690  0.6042  0.2160
19282TIP3    H179261   6.620   4.940   3.135 -1.5782 -0.5917 -0.0142
19282TIP3    H279262   6.619   4.817   3.046  1.0491  0.1536 -1.1671
19283TIP3   OH279263   0.102   2.583  10.644  0.4271 -0.2276 -0.3329
19283TIP3    H179264   0.088   2.504  10.695 -1.4630 -1.0843 -2.0186
19283TIP3    H279265   0.130   2.649  10.708  0.3875 -1.8000  1.3808
19284TIP3   OH279266   3.872   1.862  16.886  0.3346  0.1690  0.6943
19284TIP3    H179267   3.808   1.925  16.921 -0.5863 -0.5401  0.3329
19284TIP3    H279268   3.838   1.777  16.912 -0.6252 -0.4496 -2.1517
19285TIP3   OH279269   1.899   1.745   0.392 -0.6402  0.4860  0.7283
19285TIP3    H179270   1.820   1.772   0.439 -0.7078  0.1691  0.8010
19285TIP3    H279271   1.953   1.824   0.387 -1.6557  1.1235 -0.7510
19286TIP3   OH279272   5.379   1.806   2.668 -0.5929 -0.2781  0.3212
19286TIP3    H179273   5.288   1.813   2.639 -0.3549  2.3411 -0.0627
19286TIP3    H279274   5.374   1.800   2.763 -1.1891  1.3029  0.4200
19287TIP3   OH279275   4.426   0.568   4.238 -0.8068  0.4330 -0.4905
19287TIP3    H179276   4.495   0.502   4.242 -1.5163 -0.3170 -0.4037
19287TIP3    H279277   4.441   0.613   4.155  0.4267  1.0158  0.0071
19288TIP3   OH279278   2.576   1.379  13.844 -0.7969 -0.3691 -0.0553
19288TIP3    H179279   2.487   1.411  13.832 -0.5201  0.2211 -0.6435
19288TIP3    H279280   2.619   1.447  13.896  0.2728  1.1798 -2.7423
19289TIP3   OH279281   2.372   5.146   3.515  0.5373  0.2314  0.1864
19289TIP3    H179282   2.280   5.119   3.523  0.3968  0.2433 -1.1200
19289TIP3    H279283   2.391   5.191   3.597 -0.4802 -0.1941  0.6799
19290TIP3   OH279284   6.424   5.988   0.404  0.3440  0.1245  0.0134
19290TIP3    H179285   6.442   6.071   0.359  0.0215 -0.4995 -1.3309
19290TIP3    H279286   6.451   5.921   0.341  0.8217 -0.8043  1.1680
19291TIP3   OH279287   3.066   3.813  12.729  0.1501  0.8834 -0.3300
19291TIP3    H179288   3.129   3.767  12.785 -2.1313 -1.3292  0.6478
19291TIP3    H279289   3.100   3.801  12.640  2.8378  2.8072  0.3100
19292TIP3   OH279290   1.770   2.672   4.309  0.1415 -0.3325 -0.8477
19292TIP3    H179291   1.690   2.719   4.285  0.8101  0.1913 -2.1742
19292TIP3    H279292   1.747   2.580   4.304 -0.5682 -0.1805 -0.5009
19293TIP3   OH279293   2.250   1.222   3.650 -0.2733 -0.0073  0.8841
19293TIP3    H179294   2.312   1.216   3.722 -0.3648  1.3226  1.0953
19293TIP3    H279295   2.296   1.186   3.575  1.1417  1.7811  0.8183
19294TIP3   OH279296   3.338   1.942  15.750 -0.8658 -0.4355 -0.0151
19294TIP3    H179297   3.424   1.962  15.786 -0.4280 -0.5901 -0.9435
19294TIP3    H279298   3.298   2.027  15.735  0.1012 -0.2585 -1.8483
19295TIP3   OH279299   4.074   2.122   0.978 -0.5753 -0.2326 -0.1594
19295TIP3    H179300   4.074   2.167   0.894 -1.6741 -0.4305 -0.2790
19295TIP3    H279301   3.998   2.156   1.024  0.6061  0.6688  1.2124
19296TIP3   OH279302   4.415   1.136  12.560  0.9362  0.0693 -0.0235
19296TIP3    H179303   4.329   1.170  12.536 -0.5537  0.0597  4.5171
19296TIP3    H279304   4.439   1.079  12.486 -2.4499  0.8031 -1.9136
19297TIP3   OH279305   4.630   0.703   0.595 -0.2791 -0.1279 -0.0414
19297TIP3    H179306   4.705   0.649   0.618 -0.3309 -0.1276  0.1369
19297TIP3    H279307   4.649   0.789   0.634  0.4880  0.4339 -1.5672
19298TIP3   OH279308   2.902   2.455  13.257  0.0459 -0.5279  0.1348
19298TIP3    H179309   2.844   2.400  13.205  0.3371  0.1972 -1.0039
19298TIP3    H279310   2.886   2.430  13.347 -0.5356 -1.7735 -0.3032
19299TIP3   OH279311   3.385   6.146  12.477  0.0071  0.0962  0.1779
19299TIP3    H179312   3.343   6.164  12.560  1.5978  0.5896  0.9169
19299TIP3    H279313   3.478   6.162  12.493  0.7820 -2.6692 -0.8469
19300TIP3   OH279314   6.762   0.253   0.990 -0.0188 -0.7382  0.2250
19300TIP3    H179315   6.811   0.216   0.917  0.8580 -0.2580  0.5585
19300TIP3    H279316   6.806   0.219   1.068 -0.4079 -0.5456  0.5358
19301TIP3   OH279317   2.482   2.906   0.845  0.0392 -0.9134  0.0882
19301TIP3    H179318   2.449   2.919   0.934 -0.3509 -1.1474 -0.0205
19301TIP3    H279319   2.435   2.829   0.813  0.0669 -0.7396 -0.3746
19302TIP3   OH279320   5.706   3.573  17.020  0.1450  0.4782 -0.6814
19302TIP3    H179321   5.633   3.513  17.002  0.3868  0.1469 -0.5706
19302TIP3    H279322   5.739   3.546  17.105 -3.0737  4.1389  2.0569
19303TIP3   OH279323   6.065   3.613   2.515 -0.7182 -0.1013 -0.3075
19303TIP3    H179324   6.144   3.665   2.502 -0.3691 -0.8937 -1.4174
19303TIP3    H279325   6.028   3.602   2.428 -1.4840 -0.6340  0.0683
19304TIP3   OH279326   4.185   5.231   1.230  0.8116  0.2749  0.2420
19304TIP3    H179327   4.102   5.217   1.275  0.9017  1.6048  0.8653
19304TIP3    H279328   4.241   5.276   1.294  1.2293  1.4452 -0.8925
19305TIP3   OH279329   4.299   3.643   2.336 -0.5990  0.7880 -0.0549
19305TIP3    H179330   4.355   3.684   2.271  0.6459 -0.5479  0.1307
19305TIP3    H279331   4.230   3.601   2.285  0.6831 -0.7419 -0.6075
19306TIP3   OH279332   1.366   0.099  11.482  0.4105  0.1087  0.4294
19306TIP3    H179333   1.439   0.037  11.485 -0.6563 -1.2195  0.0478
19306TIP3    H279334   1.345   0.107  11.389  0.4449  0.9686  0.4856
19307TIP3   OH279335   4.209   1.737   0.427  0.1785  0.0667 -0.4818
19307TIP3    H179336   4.205   1.644   0.450  3.2098 -0.2252 -0.7315
19307TIP3    H279337   4.245   1.779   0.505 -1.8324  1.2266 -0.1068
19308TIP3   OH279338   0.600   2.322  16.318  0.0351 -0.2376  0.4469
19308TIP3    H179339   0.594   2.278  16.233  0.1493  1.6452 -0.5802
19308TIP3    H279340   0.511   2.352  16.336  0.2810  0.5994  0.2942
19309TIP3   OH279341   3.397   0.386   0.316  0.1637 -0.3670  0.1098
19309TIP3    H179342   3.358   0.368   0.231 -0.4681  1.1398  0.0602
19309TIP3    H279343   3.491   0.377   0.301  0.1009  0.5110 -0.9130
19310TIP3   OH279344   6.357   4.483   4.611 -0.3602 -0.0778 -0.1860
19310TIP3    H179345   6.410   4.427   4.555 -0.3381 -0.5482  0.2965
19310TIP3    H279346   6.271   4.485   4.569 -0.0354  0.5119 -0.8531
19311TIP3   OH279347   0.566   3.659  15.385  0.0817 -0.1298 -0.2061
19311TIP3    H179348   0.591   3.570  15.364  0.3866 -0.1115  0.0748
19311TIP3    H279349   0.505   3.651  15.458  1.2211 -0.0316  0.7803
19312TIP3   OH279350   4.974   2.749   4.791  0.7325  0.1595  0.0486
19312TIP3    H179351   5.013   2.831   4.761 -0.6100  1.3829  1.4491
19312TIP3    H279352   5.047   2.688   4.798  1.8561  1.4066 -0.4785
19313TIP3   OH279353   6.274   2.088   4.810 -0.3012  0.3379 -0.3063
19313TIP3    H179354   6.222   2.167   4.824 -2.0974 -1.1080  2.0620
19313TIP3    H279355   6.294   2.057   4.899  4.0264  0.2923 -1.0598
19314TIP3   OH279356   4.649   3.121  15.258  0.0760 -0.1722 -0.2020
19314TIP3    H179357   4.568   3.171  15.241  0.6990  0.4545 -1.4411
19314TIP3    H279358   4.696   3.123  15.175  1.2038 -0.8614  0.4026
19315TIP3   OH279359   4.538   1.940   3.931 -0.1579 -0.0554  0.3915
19315TIP3    H179360   4.503   1.875   3.869 -0.2705 -0.1465  0.5501
19315TIP3    H279361   4.611   1.980   3.884 -0.5785  0.2562 -0.0100
19316TIP3   OH279362   3.218   0.252   2.150 -0.0849 -0.1756 -0.0977
19316TIP3    H179363   3.173   0.169   2.134 -0.2576 -0.0113 -0.4885
19316TIP3    H279364   3.203   0.270   2.242 -1.2898  0.1357 -0.3312
19317TIP3   OH279365   0.221   0.541   1.039 -0.7665  0.0750 -0.1200
19317TIP3    H179366   0.196   0.608   0.976 -2.0464 -0.5804 -0.3405
19317TIP3    H279367   0.184   0.571   1.122 -1.4106 -0.3844 -0.2348
19318TIP3   OH279368   4.180   3.941  14.720  0.3815  0.1933 -0.0835
19318TIP3    H179369   4.151   4.032  14.716 -0.9246 -0.2286 -0.4481
19318TIP3    H279370   4.209   3.921  14.631  0.4655  0.1745 -0.0525
19319TIP3   OH279371   2.779   1.936  15.230  0.8354  0.3458  0.7408
19319TIP3    H179372   2.789   1.867  15.164 -0.0135 -1.3907  2.3191
19319TIP3    H279373   2.868   1.967  15.245  0.9941  1.1464 -1.5312
19320TIP3   OH279374   2.931   4.247   5.305  0.1715 -0.3583  0.1002
19320TIP3    H179375   2.982   4.167   5.309  0.0781 -0.3726  1.2564
19320TIP3    H279376   2.990   4.312   5.265  0.7160 -0.6457  0.4327
19321TIP3   OH279377   2.328   3.158   4.539 -0.0320  0.8139  0.0408
19321TIP3    H179378   2.366   3.094   4.480  0.8724  1.9044 -0.5984
19321TIP3    H279379   2.330   3.116   4.625 -0.5254 -0.4393 -0.5457
19322TIP3   OH279380   2.939   3.370  13.225 -0.2704 -0.0532  0.3709
19322TIP3    H179381   3.003   3.309  13.190 -1.0451  0.4456 -2.1245
19322TIP3    H279382   2.890   3.320  13.290  1.0145 -1.1561  0.5325
19323TIP3   OH279383   6.305   2.139   2.178  0.6892 -0.1047 -0.0157
19323TIP3    H179384   6.299   2.208   2.112  1.5574 -0.5276 -0.5571
19323TIP3    H279385   6.357   2.177   2.249 -0.6752  0.5264  0.6806
19324TIP3   OH279386   3.747   5.183  16.237 -0.1864 -0.1824  0.1009
19324TIP3    H179387   3.711   5.168  16.150 -0.1006 -0.3656  0.0959
19324TIP3    H279388   3.824   5.239  16.223  0.4383 -1.0715 -0.0451
19325TIP3   OH279389   6.314   2.234   2.702  0.0108  0.0649 -0.4176
19325TIP3    H179390   6.297   2.259   2.611  1.3497  0.2371 -0.6480
19325TIP3    H279391   6.284   2.308   2.753  1.9808  1.2931 -0.9512
19326TIP3   OH279392   1.215   3.159  15.206 -0.1838 -0.0701  0.1587
19326TIP3    H179393   1.296   3.132  15.162  0.0228 -0.1670  0.5929
19326TIP3    H279394   1.195   3.244  15.168 -0.3239 -0.4119 -0.5414
19327TIP3   OH279395   5.983   3.262   5.973 -0.1310  0.2946 -0.3670
19327TIP3    H179396   5.978   3.357   5.974 -0.8768  0.2569  0.5765
19327TIP3    H279397   5.935   3.237   5.894 -0.3136  0.6861 -0.3843
19328TIP3   OH279398   2.851   5.448  12.537 -0.2050  0.5312  0.1523
19328TIP3    H179399   2.815   5.502  12.608 -0.6196 -0.9997  1.1617
19328TIP3    H279400   2.946   5.455  12.547 -0.2490  1.1244  0.2104
19329TIP3   OH279401   5.197   0.255  13.988 -0.3068  0.4060 -0.2773
19329TIP3    H179402   5.175   0.165  13.964 -0.0711  0.3357 -0.2395
19329TIP3    H279403   5.116   0.303  13.979 -0.8102 -0.1153  1.1334
19330TIP3   OH279404   2.509   0.108  13.632  0.5143 -0.4607 -0.1960
19330TIP3    H179405   2.527   0.199  13.653  0.7495 -0.7440  0.9074
19330TIP3    H279406   2.547   0.059  13.704 -1.1439 -1.3274  0.1338
19331TIP3   OH279407   5.214   2.172   1.571 -0.2901  0.0347 -0.0588
19331TIP3    H179408   5.229   2.143   1.481  2.1926 -0.2350  0.3813
19331TIP3    H279409   5.153   2.108   1.607 -2.1358  0.7142 -1.7853
19332TIP3   OH279410   1.183   3.602   1.229 -0.8594  0.1626  0.1049
19332TIP3    H179411   1.258   3.661   1.233 -0.8589  0.2263 -0.8188
19332TIP3    H279412   1.213   3.523   1.274  0.2491 -0.3251 -1.4089
19333TIP3   OH279413   3.521   1.364   2.778 -0.3958  0.7288  0.2321
19333TIP3    H179414   3.435   1.393   2.747  0.2630  3.2411  0.5382
19333TIP3    H279415   3.571   1.349   2.697  0.3613  4.2557 -0.1126
19334TIP3   OH279416   3.956   4.959  14.459 -0.0168 -0.0053 -0.4886
19334TIP3    H179417   4.026   5.018  14.429  0.1470  0.3277  0.5311
19334TIP3    H279418   3.876   5.008  14.442  0.1673  1.0337  1.4132
19335TIP3   OH279419   1.139   5.753  13.901 -0.5552 -0.4935 -0.3550
19335TIP3    H179420   1.145   5.790  13.989  1.8086 -0.9196 -0.2631
19335TIP3    H279421   1.127   5.660  13.915 -2.1410 -0.3482 -0.5492
19336TIP3   OH279422   2.066   4.470   2.587 -1.1916  0.1029 -0.4648
19336TIP3    H179423   2.098   4.391   2.545 -1.3610  0.4693 -1.3131
19336TIP3    H279424   1.976   4.448   2.613 -1.2622  0.0349 -0.7602
19337TIP3   OH279425   5.220   4.334  14.267 -0.2460 -0.3229 -0.1804
19337TIP3    H179426   5.242   4.311  14.176 -0.4125 -2.7605  0.3060
19337TIP3    H279427   5.128   4.309  14.276 -0.0398 -0.7725  0.8309
19338TIP3   OH279428   5.603   0.273   5.752 -0.0350 -0.2214  0.0697
19338TIP3    H179429   5.545   0.250   5.680 -0.3358  0.9010 -0.0640
19338TIP3    H279430   5.545   0.301   5.823  0.3276  1.8045 -0.3839
19339TIP3   OH279431   1.340   1.616   1.131  0.0766  0.7117  0.3441
19339TIP3    H179432   1.337   1.643   1.039 -0.1943  1.6679  0.6242
19339TIP3    H279433   1.334   1.697   1.180  0.4976  0.2313  1.2142
19340TIP3   OH279434   2.156   2.366  11.861  0.3127  0.3153 -0.3535
19340TIP3    H179435   2.164   2.367  11.766 -0.6046 -0.3860 -0.4568
19340TIP3    H279436   2.134   2.276  11.882 -0.1844  0.6099  0.4535
19341TIP3   OH279437   5.548   5.149  12.576 -0.4102 -0.0623 -0.0531
19341TIP3    H179438   5.548   5.086  12.503  0.7738 -2.1678  1.6305
19341TIP3    H279439   5.523   5.096  12.652 -1.5754  2.0548  1.0977
19342TIP3   OH279440   2.923   4.201   0.149 -0.1258  0.0676 -0.2620
19342TIP3    H179441   2.921   4.121   0.202 -1.7928 -0.2558 -0.7529
19342TIP3    H279442   2.966   4.174   0.068 -1.3480 -0.5848 -0.7347
19343TIP3   OH279443   5.530   0.291   1.042 -0.5888  0.2623  0.0735
19343TIP3    H179444   5.435   0.304   1.041 -0.5253  0.7084 -0.4725
19343TIP3    H279445   5.542   0.206   1.084 -1.2977 -0.3227 -0.8606
19344TIP3   OH279446   4.003   3.455  11.182  0.3356 -0.1924  0.6011
19344TIP3    H179447   4.092   3.443  11.149 -0.0940 -2.0535 -0.0231
19344TIP3    H279448   4.008   3.432  11.275  0.2957 -1.4392  0.3024
19345TIP3   OH279449   2.095   5.117   3.548  0.1169 -0.0240 -0.3279
19345TIP3    H179450   2.087   5.024   3.526 -0.8843 -0.1450  0.4760
19345TIP3    H279451   2.070   5.122   3.641  1.5166  0.8501  0.0366
19346TIP3   OH279452   0.829   5.717   4.434 -0.3945 -0.1031  0.5326
19346TIP3    H179453   0.765   5.774   4.476  1.3542  1.1650  1.6142
19346TIP3    H279454   0.842   5.755   4.347  0.0450  0.5942  0.8942
19347TIP3   OH279455   0.396   1.601   2.076 -0.6727  0.1773  0.7460
19347TIP3    H179456   0.490   1.611   2.063 -0.8346  0.7750 -0.0490
19347TIP3    H279457   0.380   1.626   2.167 -0.2093  1.1420  0.5693
19348TIP3   OH279458   1.424   0.172  15.274 -0.1329  0.2750  0.5828
19348TIP3    H179459   1.386   0.185  15.361  1.3882  0.6919  1.2119
19348TIP3    H279460   1.517   0.156  15.290  0.6363  2.5262 -1.0441
19349TIP3   OH279461   0.418   0.348   1.183  0.3249  0.3884 -0.5778
19349TIP3    H179462   0.341   0.345   1.125  0.7955  0.3931 -1.2213
19349TIP3    H279463   0.400   0.283   1.251 -0.1657  0.2582 -0.8251
19350TIP3   OH279464   2.166   6.075  14.848 -0.0486  0.4524 -0.2386
19350TIP3    H179465   2.245   6.025  14.868  0.1243  0.3580 -1.1219
19350TIP3    H279466   2.148   6.123  14.929 -0.0112 -0.7388  0.5049
19351TIP3   OH279467   5.302   1.637  11.970 -0.6053  0.3662 -0.2633
19351TIP3    H179468   5.280   1.631  12.063  1.7099  1.9999  0.4730
19351TIP3    H279469   5.260   1.717  11.940  1.1796  1.5697  0.2573
19352TIP3   OH279470   2.070   1.583  12.567  0.2584  0.4931  0.0145
19352TIP3    H179471   2.084   1.571  12.661 -1.5948  0.3107  0.2987
19352TIP3    H279472   2.041   1.674  12.558 -0.8760  0.1292 -0.1916
19353TIP3   OH279473   1.417   6.359  15.742 -0.1970 -0.6409  0.3289
19353TIP3    H179474   1.391   6.368  15.834 -1.1748  0.6377 -0.0389
19353TIP3    H279475   1.497   6.412  15.735 -1.7177  1.7340 -0.1414
19354TIP3   OH279476   4.686   0.002  16.657  0.2468 -0.1162 -0.6172
19354TIP3    H179477   4.738  -0.078  16.652  1.2113  0.5178 -0.9710
19354TIP3    H279478   4.644   0.009  16.572  1.2752  0.4704 -1.0974
19355TIP3   OH279479   0.137   5.534  14.484  0.3218 -0.2148  0.0915
19355TIP3    H179480   0.067   5.588  14.446 -0.1353 -0.2019  0.9354
19355TIP3    H279481   0.129   5.450  14.438  0.5352  0.1704 -0.6686
19356TIP3   OH279482   0.628   0.354   0.555  0.3742 -0.4475 -0.1211
19356TIP3    H179483   0.619   0.273   0.605 -0.8281 -0.7098 -0.7248
19356TIP3    H279484   0.556   0.409   0.584  0.4549 -0.0772 -0.6018
19357TIP3   OH279485   0.455   2.947   3.618  0.3164 -0.3410 -0.7656
19357TIP3    H179486   0.523   2.908   3.563  0.5366 -1.8536  0.5001
19357TIP3    H279487   0.465   2.903   3.703 -1.9590 -0.2803 -0.4176
19358TIP3   OH279488   0.981   3.076  13.306 -0.7895 -0.1411  0.8287
19358TIP3    H179489   1.071   3.044  13.316 -0.3284  1.1023  0.8413
19358TIP3    H279490   0.927   2.997  13.312  0.2548 -0.8377  1.4262
19359TIP3   OH279491   6.025   3.523   3.741 -0.0265  0.3970 -0.3730
19359TIP3    H179492   5.971   3.539   3.818  0.7183  3.0382 -0.2763
19359TIP3    H279493   5.963   3.503   3.671 -1.4969  4.7498 -0.6257
19360TIP3   OH279494   4.532   1.287  11.386  0.6209 -0.3169  0.2889
19360TIP3    H179495   4.442   1.261  11.371  0.0647  2.6549 -2.7000
19360TIP3    H279496   4.584   1.211  11.359 -0.9163 -1.4919  0.5280
19361TIP3   OH279497   5.129   4.203  15.157  0.4143  0.0441  0.0328
19361TIP3    H179498   5.189   4.129  15.166  2.0685  1.4895  1.4371
19361TIP3    H279499   5.158   4.266  15.222 -2.4578  0.9837  0.5656
19362TIP3   OH279500   6.484   5.203  15.453 -0.2675  0.1899  0.0078
19362TIP3    H179501   6.499   5.242  15.367  1.0023  0.7226  0.4472
19362TIP3    H279502   6.558   5.145  15.466 -2.2012 -2.6624 -0.7111
19363TIP3   OH279503   5.340   4.661  15.272  0.4730 -0.1996  0.5632
19363TIP3    H179504   5.304   4.575  15.296 -1.0206  0.3131  0.2758
19363TIP3    H279505   5.419   4.670  15.325  0.7228 -1.7933  0.5154
19364TIP3   OH279506   5.963   3.151   2.284 -0.6821  0.3270  0.2295
19364TIP3    H179507   5.993   3.242   2.285 -1.8957  0.7644 -0.8146
19364TIP3    H279508   6.039   3.100   2.315  0.4156  1.5709 -0.3176
19365TIP3   OH279509   4.273   5.683   1.618  0.1912 -0.2881  0.2202
19365TIP3    H179510   4.306   5.659   1.532 -0.8284 -2.6535  0.3993
19365TIP3    H279511   4.203   5.746   1.600  0.1245 -0.6036 -0.6746
19366TIP3   OH279512   4.886   1.178   6.030 -0.0227  0.4826 -0.5869
19366TIP3    H179513   4.868   1.085   6.042  2.1455  0.0200 -0.4673
19366TIP3    H279514   4.850   1.199   5.943 -2.0704  0.0204  0.0936
19367TIP3   OH279515   1.765   5.233   2.681 -0.6727  0.2693 -0.5907
19367TIP3    H179516   1.729   5.302   2.626 -1.7674 -1.0808 -1.6371
19367TIP3    H279517   1.859   5.236   2.664 -0.8489  0.7044 -1.5594
19368TIP3   OH279518   3.420   5.063  11.714 -0.3086 -0.0226 -0.2082
19368TIP3    H179519   3.430   5.154  11.743 -0.9641 -0.7002  2.4829
19368TIP3    H279520   3.500   5.044  11.667 -0.2462  1.9969 -1.0323
19369TIP3   OH279521   6.032   0.140   5.400 -0.3145  0.5234 -0.3183
19369TIP3    H179522   6.000   0.133   5.490 -0.9927  1.1841 -0.5005
19369TIP3    H279523   5.970   0.090   5.348 -0.4101  0.8503 -0.5252
19370TIP3   OH279524   6.198   2.935  15.773 -0.6035 -0.2950 -0.0251
19370TIP3    H179525   6.191   2.976  15.859 -2.2956  0.3786 -0.4519
19370TIP3    H279526   6.292   2.928  15.757 -0.2742  0.8560  1.2694
19371TIP3   OH279527   2.784   1.531  14.493 -0.1450  0.4471  0.1927
19371TIP3    H179528   2.833   1.456  14.460 -1.9579 -0.9760  0.5808
19371TIP3    H279529   2.837   1.566  14.564  1.0024 -0.0875 -0.3867
19372TIP3   OH279530   1.824   6.150   1.198  0.0449 -0.0120 -0.0568
19372TIP3    H179531   1.737   6.112   1.182 -0.0682  0.2657 -0.1034
19372TIP3    H279532   1.806   6.240   1.226  0.2956 -0.1369  0.5079
19373TIP3   OH279533   6.604   6.629   4.390  0.4284  0.3119 -0.2424
19373TIP3    H179534   6.519   6.659   4.358  1.0918  2.9178  0.2133
19373TIP3    H279535   6.623   6.551   4.339 -1.3600  0.7917 -1.7310
19374TIP3   OH279536   5.641   6.741   4.323  0.0132  0.0994  0.3136
19374TIP3    H179537   5.673   6.826   4.295  0.8147 -0.6386 -1.1024
19374TIP3    H279538   5.656   6.683   4.249  0.2500 -1.4722  1.5228
19375TIP3   OH279539   6.783   0.915  14.932  0.3742  0.6885 -0.0054
19375TIP3    H179540   6.724   0.876  14.867  1.3740  0.5267 -0.8442
19375TIP3    H279541   6.816   0.841  14.982 -1.0071  0.8806  1.2578
19376TIP3   OH279542   6.269   5.240   3.658  0.6923  0.0057 -0.5019
19376TIP3    H179543   6.294   5.154   3.624  2.1648  0.0558  0.3701
19376TIP3    H279544   6.194   5.266   3.604  0.7767 -1.4234 -1.3692
19377TIP3   OH279545   5.851   1.795  15.778 -0.1796 -0.1760 -0.0065
19377TIP3    H179546   5.843   1.890  15.787  0.7973 -0.0746 -0.1689
19377TIP3    H279547   5.944   1.779  15.761 -0.3720 -1.1406 -0.2533
19378TIP3   OH279548   6.568   6.330  16.178 -0.2711  0.7593 -0.4239
19378TIP3    H179549   6.538   6.396  16.115  0.1826 -0.2722 -1.7901
19378TIP3    H279550   6.659   6.312  16.151 -0.0676  0.2983  0.5447
19379TIP3   OH279551   3.172   2.106   2.495  0.5113 -0.2777 -0.6495
19379TIP3    H179552   3.261   2.141   2.492  0.6050 -0.5447 -2.5962
19379TIP3    H279553   3.177   2.025   2.444 -1.2411  0.7863 -2.6420
19380TIP3   OH279554   1.966   4.710  10.577  0.0926 -0.0658 -0.0060
19380TIP3    H179555   1.954   4.644  10.508  2.2334 -0.7361  0.1852
19380TIP3    H279556   2.051   4.749  10.559  0.1269  0.6563  1.5267
19381TIP3   OH279557   5.355   6.183   0.845  0.0567  0.7204 -0.3972
19381TIP3    H179558   5.284   6.120   0.856  0.0833  1.0253  2.1319
19381TIP3    H279559   5.333   6.231   0.765 -0.6496 -1.5515 -1.6546
19382TIP3   OH279560   5.547   0.354  11.993  0.3332 -0.0377 -0.3615
19382TIP3    H179561   5.603   0.391  12.061 -1.8292  1.0146  0.9799
19382TIP3    H279562   5.570   0.402  11.914  0.1493  1.6303  0.5504
19383TIP3   OH279563   5.283   0.230   5.828  0.7418  0.5857 -0.1023
19383TIP3    H179564   5.198   0.226   5.871  0.3755 -0.6971 -0.9061
19383TIP3    H279565   5.341   0.268   5.895 -0.2796  0.7322  0.7293
19384TIP3   OH279566   4.250   6.498  11.779 -0.4877  0.5270  0.0078
19384TIP3    H179567   4.272   6.552  11.855  1.6614 -1.6564  1.0318
19384TIP3    H279568   4.191   6.431  11.813 -0.3289  0.1291 -0.4897
19385TIP3   OH279569   4.987   2.997   2.638  0.1833  0.4473 -0.2669
19385TIP3    H179570   4.953   2.929   2.696  1.5645  1.7536  2.2535
19385TIP3    H279571   4.955   3.079   2.675  1.6515  1.3642 -0.9142
19386TIP3   OH279572   5.819   5.471   5.967 -0.9182  0.4852 -0.1177
19386TIP3    H179573   5.914   5.472   5.978 -1.0703  0.7157  1.4820
19386TIP3    H279574   5.789   5.551   6.012 -1.9980 -0.5213  1.0193
19387TIP3   OH279575   0.693   3.099   3.884  0.0126 -0.6107  0.1036
19387TIP3    H179576   0.680   3.134   3.796 -0.2014 -0.7118  0.0935
19387TIP3    H279577   0.623   3.035   3.895  0.5261 -1.1907  0.0401
19388TIP3   OH279578   2.362   0.580  13.059  0.1738  0.3535  0.2020
19388TIP3    H179579   2.401   0.561  12.974 -0.3491 -3.1660  0.6139
19388TIP3    H279580   2.270   0.597  13.040  0.4122  1.4429 -0.0619
19389TIP3   OH279581   1.774   0.014  13.747 -0.7498 -0.8705 -0.2861
19389TIP3    H179582   1.870   0.017  13.744 -0.7367 -1.9318 -2.0898
19389TIP3    H279583   1.755  -0.044  13.820 -0.0492 -0.2690  0.3973
19390TIP3   OH279584   2.172   5.539   3.921 -0.2534 -0.4865 -0.2780
19390TIP3    H179585   2.171   5.612   3.983  1.2414 -1.6319  1.1669
19390TIP3    H279586   2.209   5.576   3.841  0.3200  0.3708  0.3745
19391TIP3   OH279587   5.456   4.554  16.680 -0.3278 -0.3663 -0.2415
19391TIP3    H179588   5.519   4.482  16.666  0.5072  0.4931 -1.0648
19391TIP3    H279589   5.493   4.627  16.631 -0.1054  1.2569  2.1652
19392TIP3   OH279590   6.768   2.244   2.200 -0.3774 -0.2896 -0.6679
19392TIP3    H179591   6.711   2.170   2.217  1.2411 -1.2176  1.0149
19392TIP3    H279592   6.808   2.264   2.284  1.9551  0.1419 -1.7961
19393TIP3   OH279593   6.500   6.158   3.094  0.6496 -0.0915 -0.5690
19393TIP3    H179594   6.463   6.230   3.145  2.3011  0.1917  0.2842
19393TIP3    H279595   6.481   6.079   3.145  1.4530  0.0905  0.0386
19394TIP3   OH279596   6.637   3.237  13.200 -0.0070  0.4241 -0.2439
19394TIP3    H179597   6.719   3.273  13.234  0.4978 -1.0156  0.0930
19394TIP3    H279598   6.662   3.161  13.149 -0.9833  1.0979 -1.8256
19395TIP3   OH279599   0.279   6.651  11.994 -0.2093  0.5049  0.9078
19395TIP3    H179600   0.204   6.592  11.992  0.2340 -0.0617 -0.7939
19395TIP3    H279601   0.278   6.695  11.909  1.4418  0.3999  0.7888
19396TIP3   OH279602   3.975   0.355   5.966  0.2254  0.3039 -0.4522
19396TIP3    H179603   3.921   0.434   5.964 -1.5099 -0.8284 -1.3932
19396TIP3    H279604   3.930   0.297   6.028 -0.0760 -0.9247 -1.7598
19397TIP3   OH279605   5.074   4.472  16.974  0.6609  0.0590  0.9597
19397TIP3    H179606   5.035   4.419  16.905  0.4647  0.8315  0.4744
19397TIP3    H279607   5.161   4.435  16.987  1.0193  0.4474 -0.2914
19398TIP3   OH279608   5.784   0.798   1.242  0.3198  0.1371 -0.3724
19398TIP3    H179609   5.709   0.853   1.220 -0.8314 -1.4072 -0.5098
19398TIP3    H279610   5.778   0.785   1.336 -0.5396 -1.2187 -0.5732
19399TIP3   OH279611   0.626   4.729   5.433 -0.0821  0.3911 -0.0464
19399TIP3    H179612   0.664   4.786   5.500 -0.6495  1.4969 -0.6309
19399TIP3    H279613   0.666   4.643   5.448  1.8583  1.2573  0.0062
19400TIP3   OH279614   1.138   5.607  14.552  0.4106 -0.3884  0.0590
19400TIP3    H179615   1.083   5.672  14.595  0.8654  0.4357 -0.5679
19400TIP3    H279616   1.087   5.526  14.554 -0.2883  0.0558  0.5860
19401TIP3   OH279617   1.899   0.803  16.255  0.2725  0.0731 -0.0778
19401TIP3    H179618   1.809   0.804  16.221 -0.1365 -0.1375  0.9742
19401TIP3    H279619   1.940   0.880  16.215 -1.0310  1.4598  1.1163
19402TIP3   OH279620   2.688   4.912   2.333  0.2272  0.3563  0.2556
19402TIP3    H179621   2.595   4.905   2.315  0.5573 -1.2542 -1.1060
19402TIP3    H279622   2.727   4.942   2.251  0.7090  3.7567  1.5576
19403TIP3   OH279623   0.112   2.542  14.881  0.0663  0.7238  0.3683
19403TIP3    H179624   0.158   2.457  14.881 -0.6086  0.3204 -0.9917
19403TIP3    H279625   0.182   2.607  14.882  0.7962  0.1286 -2.3581
19404TIP3   OH279626   1.068   5.312  15.709  0.2323 -0.3855  0.4039
19404TIP3    H179627   1.021   5.240  15.751  3.6049 -1.4203  2.8175
19404TIP3    H279628   1.149   5.273  15.678  0.6248  1.7326 -1.4944
19405TIP3   OH279629   3.300   1.635   6.364  0.3642  0.5564  0.5259
19405TIP3    H179630   3.327   1.639   6.272 -0.9348  0.6404  0.1314
19405TIP3    H279631   3.370   1.586   6.407  1.0172  0.5623 -0.4907
19406TIP3   OH279632   6.002   1.678  11.283 -0.3329  0.0989 -0.4699
19406TIP3    H179633   6.077   1.639  11.238 -2.9096 -3.0995 -2.4761
19406TIP3    H279634   6.008   1.647  11.373  0.0453 -1.3335 -0.9677
19407TIP3   OH279635   3.193   4.879  15.662 -0.0620 -0.0361  0.1037
19407TIP3    H179636   3.223   4.820  15.593  0.3018  1.9182 -1.4966
19407TIP3    H279637   3.112   4.839  15.694 -0.5828 -0.6999 -1.8824
19408TIP3   OH279638   2.536   6.510  13.861  0.6713 -0.1139  0.1939
19408TIP3    H179639   2.616   6.477  13.820  0.3091 -1.1798  0.3189
19408TIP3    H279640   2.535   6.604  13.840  2.3016  0.0606  0.7731
19409TIP3   OH279641   6.422   6.438  11.004  0.0450  0.1870  0.4525
19409TIP3    H179642   6.378   6.498  10.943  1.6402 -0.7954 -1.8134
19409TIP3    H279643   6.413   6.352  10.964 -0.3724 -0.8060  2.5638
19410TIP3   OH279644   5.452   4.465   0.895 -0.1335  0.1572  0.5815
19410TIP3    H179645   5.423   4.382   0.857 -1.2163  1.2344 -1.1021
19410TIP3    H279646   5.533   4.486   0.850  0.0761  0.0724  0.9170
19411TIP3   OH279647   1.629   1.353   3.558 -0.5394  0.1661 -1.0121
19411TIP3    H179648   1.581   1.371   3.476  0.1392 -0.0192 -1.4560
19411TIP3    H279649   1.678   1.433   3.575 -0.7329  0.2284 -0.7479
19412TIP3   OH279650   4.228   1.431   4.644 -0.1328 -0.1564 -0.1713
19412TIP3    H179651   4.300   1.399   4.699 -0.1910 -0.8335 -0.4841
19412TIP3    H279652   4.270   1.489   4.581 -0.0676  0.6606  0.5978
19413TIP3   OH279653   0.400   3.104   2.869  0.0889  0.1491 -0.1700
19413TIP3    H179654   0.339   3.119   2.797  0.9130 -0.2812 -0.9798
19413TIP3    H279655   0.401   3.009   2.881 -1.5139  0.3045  1.7548
19414TIP3   OH279656   6.344   0.617   1.981 -0.6808  0.1617  0.3296
19414TIP3    H179657   6.403   0.675   2.029 -0.8925 -0.1874  1.0217
19414TIP3    H279658   6.392   0.595   1.901 -0.2989  0.6956  0.4075
19415TIP3   OH279659   6.566   4.085  11.925  0.2662 -0.0280  0.3548
19415TIP3    H179660   6.599   4.068  12.013  0.9176 -0.9539 -0.0491
19415TIP3    H279661   6.473   4.066  11.930  0.0811  0.9968  1.1049
19416TIP3   OH279662   1.294   4.299  14.271  0.4396 -0.2668  0.3541
19416TIP3    H179663   1.301   4.395  14.268 -0.3448 -0.1643  1.3748
19416TIP3    H279664   1.216   4.282  14.322  1.4283 -1.4730  1.5423
19417TIP3   OH279665   3.337   4.706  16.391  0.4247 -0.1611  0.0738
19417TIP3    H179666   3.323   4.785  16.339 -1.2344 -0.6693 -0.3028
19417TIP3    H279667   3.316   4.731  16.481  0.5360 -0.0125  0.0577
19418TIP3   OH279668   2.867   2.299   4.176 -0.1296 -0.0851 -0.3947
19418TIP3    H179669   2.886   2.353   4.098  2.4707 -0.2331  0.0320
19418TIP3    H279670   2.948   2.249   4.189 -0.8191 -0.6619  1.9377
19419TIP3   OH279671   3.139   1.117  15.250  0.0754  0.1569 -0.0330
19419TIP3    H179672   3.199   1.045  15.266  0.1967  0.6263  1.8110
19419TIP3    H279673   3.091   1.091  15.172  1.5086 -0.9821 -0.5816
19420TIP3   OH279674   5.076   3.583   0.487  0.0757  0.3346  0.3886
19420TIP3    H179675   5.072   3.545   0.575  0.7237 -4.5950 -1.3571
19420TIP3    H279676   4.985   3.589   0.459 -0.1075 -2.4379  0.0252
19421TIP3   OH279677   3.894   2.146  10.644 -0.2531  0.2964  0.6786
19421TIP3    H179678   3.974   2.107  10.608 -0.6161  0.9487 -0.9426
19421TIP3    H279679   3.924   2.202  10.716  0.8888  1.2111 -0.4576
19422TIP3   OH279680   5.437   0.047  13.958  0.0554 -0.0648 -0.2851
19422TIP3    H179681   5.529   0.023  13.971 -0.0257  0.4546  1.4530
19422TIP3    H279682   5.434   0.083  13.870  1.8691  1.4285  0.2044
19423TIP3   OH279683   5.100   3.963   0.274  0.4544 -0.4531 -0.1784
19423TIP3    H179684   5.172   4.001   0.324  0.6145 -1.5158  0.4286
19423TIP3    H279685   5.138   3.885   0.233 -0.7038 -1.9612  1.4585
19424TIP3   OH279686   2.737   4.179  16.284  0.2057  0.4053 -0.1123
19424TIP3    H179687   2.667   4.183  16.349 -0.2063  0.2965 -0.5418
19424TIP3    H279688   2.802   4.120  16.322 -1.0471 -1.4692 -0.7566
19425TIP3   OH279689   3.705   0.790   0.448  0.2012  0.8029  0.1264
19425TIP3    H179690   3.624   0.784   0.499  0.4219 -0.9318  0.3353
19425TIP3    H279691   3.774   0.772   0.511  0.8432  2.7279  0.0482
19426TIP3   OH279692   3.551   1.559  15.807  0.3646  0.0152 -0.0770
19426TIP3    H179693   3.473   1.523  15.851  0.2475  0.7461  0.3285
19426TIP3    H279694   3.624   1.532  15.862  0.3267 -0.0519 -0.0592
19427TIP3   OH279695   4.676   4.735   5.346  0.3253 -0.0136 -0.0019
19427TIP3    H179696   4.712   4.648   5.366  0.3359 -0.3279 -1.2996
19427TIP3    H279697   4.753   4.793   5.345  0.5071 -0.2578 -0.5279
19428TIP3   OH279698   0.869   6.800   5.108 -0.3677  0.0557  0.7914
19428TIP3    H179699   0.938   6.867   5.106  0.5392 -0.8536  0.9129
19428TIP3    H279700   0.814   6.820   5.033  0.1967  0.6296  0.5219
19429TIP3   OH279701   0.280   5.280   0.616 -0.5038 -0.0123  0.2505
19429TIP3    H179702   0.284   5.284   0.520 -1.7766  0.5988  0.2140
19429TIP3    H279703   0.326   5.198   0.638  1.2141  0.6183 -0.7595
19430TIP3   OH279704   0.228   4.314   2.601 -0.1753 -0.1936  0.4015
19430TIP3    H179705   0.148   4.271   2.572 -0.6498  1.3165 -0.6580
19430TIP3    H279706   0.200   4.372   2.672  0.1209 -0.1999  0.5286
19431TIP3   OH279707   1.759   1.400  16.518 -0.4583  0.0402 -1.0948
19431TIP3    H179708   1.807   1.376  16.438  0.4756 -0.1226 -0.4931
19431TIP3    H279709   1.780   1.331  16.580  1.6226  1.9085  0.4164
19432TIP3   OH279710   0.251   0.073  16.481  0.0200  0.6223 -0.9165
19432TIP3    H179711   0.249   0.101  16.572  0.0590  0.5876 -0.9049
19432TIP3    H279712   0.173   0.020  16.470  0.0575  0.5606 -0.8825
19433TIP3   OH279713   5.557   4.891  16.655  0.2539 -0.0397 -0.1532
19433TIP3    H179714   5.558   4.943  16.574  0.1972  1.5646  0.8426
19433TIP3    H279715   5.526   4.951  16.722  1.1569 -1.0815  1.2536
19434TIP3   OH279716   1.137   6.275  16.292 -0.2868 -0.1635 -0.0727
19434TIP3    H179717   1.204   6.339  16.313  0.8930 -1.2630 -0.3581
19434TIP3    H279718   1.142   6.264  16.197 -0.7579 -0.3860 -0.0777
19435TIP3   OH279719   5.270   5.751  15.410  0.4719  1.0121  0.1416
19435TIP3    H179720   5.247   5.739  15.502 -0.0133 -2.1336 -0.2656
19435TIP3    H279721   5.197   5.800  15.373 -1.3098 -1.0978  0.6994
19436TIP3   OH279722   0.367   5.122   2.004 -0.0848  0.2547  0.1705
19436TIP3    H179723   0.422   5.166   1.939  1.5921 -2.4049 -0.3809
19436TIP3    H279724   0.358   5.186   2.075  1.0048  1.9688 -1.1537
19437TIP3   OH279725   1.424   6.215   4.580  0.4556 -0.2652  0.3936
19437TIP3    H179726   1.345   6.252   4.541 -0.8292 -0.9137  2.2566
19437TIP3    H279727   1.400   6.195   4.670  3.1749  0.8240  1.4766
19438TIP3   OH279728   5.187   4.191  13.382 -0.3225 -0.2469 -0.0365
19438TIP3    H179729   5.210   4.131  13.452  0.6771 -0.1692 -0.2856
19438TIP3    H279730   5.135   4.259  13.424 -0.5617 -0.7178  0.4399
19439TIP3   OH279731   2.629   4.380  17.021  0.4538  0.4222  0.8334
19439TIP3    H179732   2.610   4.289  16.998  0.5205  0.2355  1.4776
19439TIP3    H279733   2.592   4.431  16.950  3.7247 -0.2245 -1.5598
19440TIP3   OH279734   1.283   6.690  17.040  0.3414 -0.4113  0.1854
19440TIP3    H179735   1.226   6.727  16.972  0.7404  0.4845  0.3171
19440TIP3    H279736   1.282   6.596  17.023 -1.2454 -0.4387  0.2416
19441TIP3   OH279737   2.013   0.072  11.403 -0.3199 -0.3941  0.3879
19441TIP3    H179738   1.948   0.142  11.404 -0.5570 -0.4783 -2.3871
19441TIP3    H279739   2.072   0.096  11.332  0.4922 -2.2441  0.3931
19442TIP3   OH279740   4.175   0.871  15.980  0.2161  0.4565 -0.6783
19442TIP3    H179741   4.237   0.835  16.043  0.6860  1.3875 -0.5973
19442TIP3    H279742   4.155   0.798  15.922  0.5419 -0.1428 -0.0487
19443TIP3   OH279743   6.647   6.060  10.266  0.1417 -0.0540  0.1602
19443TIP3    H179744   6.635   6.061  10.361  1.7097 -3.2619  0.5234
19443TIP3    H279745   6.632   5.969  10.241  0.4539  0.5658 -2.5812
19444TIP3   OH279746   0.055   3.353  13.280 -0.0066 -0.0920 -0.2439
19444TIP3    H179747   0.040   3.432  13.228 -0.0460 -0.1112 -0.2627
19444TIP3    H279748   0.124   3.376  13.341  0.8648 -0.4195 -1.0800
19445TIP3   OH279749   1.927   2.325  15.663  0.0420  0.3374  0.5226
19445TIP3    H179750   1.888   2.268  15.729  0.1574 -0.8347 -0.3901
19445TIP3    H279751   1.878   2.406  15.669 -0.8016 -0.2045  1.1650
19446TIP3   OH279752   2.909   1.106  15.804  0.0352  0.4801 -0.2607
19446TIP3    H179753   2.996   1.129  15.837  0.7216 -1.6985 -0.3455
19446TIP3    H279754   2.920   1.101  15.709  0.4792 -1.9802 -0.1405
19447TIP3   OH279755   5.202   3.834   0.545 -0.1422  0.0773  0.2574
19447TIP3    H179756   5.141   3.762   0.528 -0.2712  0.1113  0.5673
19447TIP3    H279757   5.269   3.826   0.477 -0.6423  0.2069 -0.2546
19448TIP3   OH279758   4.617   4.042  13.920  0.3819 -0.7122 -0.0609
19448TIP3    H179759   4.708   4.016  13.901  0.3026  0.7209 -3.0228
19448TIP3    H279760   4.625   4.128  13.961  0.4575  1.0188 -3.3661
19449TIP3   OH279761   1.453   5.998   6.079 -0.2080 -0.1294  0.2615
19449TIP3    H179762   1.368   5.961   6.102 -1.1540  0.4964 -1.9904
19449TIP3    H279763   1.438   6.092   6.076 -0.0379 -0.1330 -2.2406
19450TIP3   OH279764   3.712   1.094   0.682 -0.1544  0.3924 -0.8094
19450TIP3    H179765   3.625   1.064   0.709 -0.1374  0.5213 -0.6131
19450TIP3    H279766   3.707   1.190   0.686  0.2343  0.3911 -0.0440
19451TIP3   OH279767   5.909   6.202  13.952  0.1328  0.0884  0.0406
19451TIP3    H179768   5.963   6.147  14.009 -0.4989 -0.0902  0.4843
19451TIP3    H279769   5.958   6.284  13.943  0.9335 -0.4246 -0.3661
19452TIP3   OH279770   4.184   0.985   1.589 -0.0503 -0.2687  0.4903
19452TIP3    H179771   4.144   1.029   1.664  1.0221  0.5818  0.6048
19452TIP3    H279772   4.126   1.005   1.516 -0.0935  0.5579  0.7368
19453TIP3   OH279773   4.731   2.605   0.946  0.0551  0.2617 -0.0503
19453TIP3    H179774   4.726   2.509   0.939  0.1296  0.2509  0.0416
19453TIP3    H279775   4.816   2.622   0.985 -0.5493  0.2848  1.3150
19454TIP3   OH279776   2.310   2.515   2.235  0.2889 -0.5105 -0.3795
19454TIP3    H179777   2.391   2.522   2.284  0.5434  2.6864 -1.0105
19454TIP3    H279778   2.246   2.564   2.287 -0.6411 -1.0625 -0.9784
19455TIP3   OH279779   4.324   2.496   0.364  0.2153  0.1878  0.3214
19455TIP3    H179780   4.382   2.562   0.326  0.8651 -0.0798  0.8364
19455TIP3    H279781   4.236   2.534   0.356  0.4903  0.7206 -0.2019
19456TIP3   OH279782   0.709   6.418   6.203 -0.4168  0.2835  0.0278
19456TIP3    H179783   0.784   6.384   6.155 -0.0909  1.8033 -0.6050
19456TIP3    H279784   0.740   6.502   6.239 -1.5406  0.5089  0.5018
19457TIP3   OH279785   6.466   3.023   1.889 -0.0281  0.8419  0.0408
19457TIP3    H179786   6.405   3.071   1.945 -1.5081  0.2253 -0.9840
19457TIP3    H279787   6.501   3.088   1.829  0.1836  1.1557  0.4981
19458TIP3   OH279788   0.690   6.179  15.066 -0.1988  0.1359  0.5272
19458TIP3    H179789   0.711   6.098  15.019  0.6033  0.5793  0.0861
19458TIP3    H279790   0.652   6.150  15.149 -0.6637 -0.6764  0.0368
19459TIP3   OH279791   2.362   0.967   0.153  0.1757 -0.3930  0.1515
19459TIP3    H179792   2.307   1.007   0.086  1.3935  0.8628 -0.1631
19459TIP3    H279793   2.359   0.874   0.134 -2.6495 -0.5023  0.8067
19460TIP3   OH279794   0.387   5.935   3.818 -0.0755  0.1292  0.0397
19460TIP3    H179795   0.394   5.987   3.738  0.7654  1.9292  1.2101
19460TIP3    H279796   0.308   5.882   3.805 -1.8002  2.6824 -0.7275
19461TIP3   OH279797   4.825   6.290  15.007  0.0395 -0.8423 -0.2705
19461TIP3    H179798   4.898   6.229  15.024  1.0221  0.3382 -0.1346
19461TIP3    H279799   4.779   6.295  15.090  0.8111 -0.3220  0.1446
19462TIP3   OH279800   5.702   2.925  12.471  0.1565  0.2578 -0.7661
19462TIP3    H179801   5.691   3.006  12.521  1.6862  0.9188 -1.4365
19462TIP3    H279802   5.650   2.860  12.518 -0.6646  1.4968  0.0902
19463TIP3   OH279803   4.908   0.259  14.836  0.2922  0.3687  0.1374
19463TIP3    H179804   4.904   0.163  14.835 -1.7666  0.3831  0.7249
19463TIP3    H279805   4.930   0.282  14.926  0.8271  0.4471 -0.0138
19464TIP3   OH279806   3.101   5.879  15.837  0.2680  0.7222  0.3669
19464TIP3    H179807   3.088   5.803  15.781  0.6857  0.7857  0.1788
19464TIP3    H279808   3.059   5.856  15.920  0.1630  0.3947  0.2224
19465TIP3   OH279809   6.333   0.485   1.152 -0.2062 -0.2815  0.0947
19465TIP3    H179810   6.401   0.440   1.102  0.2699 -0.7388  1.1201
19465TIP3    H279811   6.251   0.451   1.117  0.1142 -3.0728  1.7477
19466TIP3   OH279812   6.381   1.644  15.579 -0.2427  0.0817  0.0095
19466TIP3    H179813   6.398   1.728  15.536 -2.7503  0.6780 -0.0062
19466TIP3    H279814   6.285   1.636  15.578 -0.2971 -1.1433  3.0853
19467TIP3   OH279815   5.133   6.291   1.802  0.3165 -0.7003  0.3679
19467TIP3    H179816   5.150   6.352   1.730  1.6299 -1.0562  0.3498
19467TIP3    H279817   5.039   6.300   1.820  0.0672 -0.2307 -1.0424
19468TIP3   OH279818   5.856   4.540   0.462 -0.3910 -0.3319 -0.0874
19468TIP3    H179819   5.936   4.515   0.508 -0.4708 -0.1587  0.1501
19468TIP3    H279820   5.830   4.462   0.413 -0.3701 -0.5582  0.2614
19469TIP3   OH279821   4.500   4.701  12.119 -0.3529  0.0748 -0.1637
19469TIP3    H179822   4.528   4.781  12.163  0.1394 -0.2481  0.1265
19469TIP3    H279823   4.501   4.723  12.026 -0.4134  0.4646 -0.0733
19470TIP3   OH279824   4.723   0.533   1.740 -0.3984  0.1105 -0.3251
19470TIP3    H179825   4.815   0.546   1.759 -0.0616  0.7605 -2.1249
19470TIP3    H279826   4.722   0.480   1.660 -1.6577 -2.2875  1.1625
19471TIP3   OH279827   1.326   2.075  16.485 -0.2412  0.0341 -0.3861
19471TIP3    H179828   1.233   2.085  16.509  0.2669  2.9623  0.7545
19471TIP3    H279829   1.360   2.014  16.550 -1.0600  0.1622  0.1884
19472TIP3   OH279830   1.256   3.768  14.889 -0.6399  0.2075  0.3480
19472TIP3    H179831   1.297   3.754  14.974 -0.4760  0.0437  0.2416
19472TIP3    H279832   1.235   3.862  14.888  0.4011  0.4437  0.0999
19473TIP3   OH279833   1.486   1.793   3.662 -0.0903  0.6960  0.3551
19473TIP3    H179834   1.495   1.762   3.572 -2.0033 -0.3452  0.4684
19473TIP3    H279835   1.574   1.822   3.687  0.5052  0.8604 -1.7766
19474TIP3   OH279836   5.915   3.858  17.069  0.7861 -0.4923 -0.0190
19474TIP3    H179837   5.926   3.790  17.135  0.8559 -1.2794 -0.8320
19474TIP3    H279838   5.835   3.834  17.022  0.3800  0.4163  0.1802
19475TIP3   OH279839   2.120   1.284   0.557  0.0390 -0.2794  0.0299
19475TIP3    H179840   2.215   1.289   0.546  0.1133  0.1156  0.7495
19475TIP3    H279841   2.085   1.355   0.503  0.1435 -0.5158 -0.3468
19476TIP3   OH279842   1.203   2.190   5.473 -0.0307  0.5262 -0.2009
19476TIP3    H179843   1.118   2.226   5.450 -1.2820 -0.9161  1.8032
19476TIP3    H279844   1.217   2.217   5.563  1.7224  0.8444 -0.5423
19477TIP3   OH279845   3.862   3.893   2.227  0.0531  0.0351  0.0820
19477TIP3    H179846   3.930   3.961   2.223  2.1641 -1.9921 -0.3260
19477TIP3    H279847   3.861   3.854   2.140  0.8538 -2.2215  1.0090
19478TIP3   OH279848   2.889   0.926   3.486  0.5218  0.7448 -0.6588
19478TIP3    H179849   2.850   0.995   3.432 -2.0167  0.8610  1.1340
19478TIP3    H279850   2.841   0.930   3.568  0.6183 -2.8088 -0.2635
19479TIP3   OH279851   2.871   4.355   1.327  0.3373 -0.0414  0.5630
19479TIP3    H179852   2.819   4.435   1.335  1.6721  0.7948  1.2734
19479TIP3    H279853   2.954   4.383   1.288 -0.2091 -1.5850 -1.9414
19480TIP3   OH279854   4.429   5.505   2.413 -0.1632  0.2467 -0.0421
19480TIP3    H179855   4.454   5.596   2.427  1.7958  0.0639 -1.8877
19480TIP3    H279856   4.481   5.456   2.477 -1.5196  0.3893  1.2327
19481TIP3   OH279857   5.701   6.650  16.985 -0.0102 -0.3964 -0.5068
19481TIP3    H179858   5.794   6.672  16.979 -0.0786  0.1515  0.2242
19481TIP3    H279859   5.687   6.583  16.919  1.1481 -1.3033  0.1331
19482TIP3   OH279860   0.004   5.633   3.568 -0.4367  0.1223 -0.2597
19482TIP3    H179861   0.023   5.718   3.528 -1.0173  0.7696  0.7725
19482TIP3    H279862  -0.091   5.625   3.564 -0.2955 -1.2860 -1.8712
19483TIP3   OH279863   3.542   1.704  12.555  0.0034  0.5289  0.4547
19483TIP3    H179864   3.485   1.649  12.502  0.9130  0.6058 -0.6306
19483TIP3    H279865   3.619   1.718  12.501  0.0136  2.4701  0.8995
19484TIP3   OH279866   6.115   5.485   0.550 -0.0753  0.6110  0.0111
19484TIP3    H179867   6.072   5.489   0.464 -2.1252  2.3041  1.0223
19484TIP3    H279868   6.207   5.470   0.529 -0.6053  0.2797 -2.4502
19485TIP3   OH279869   5.212   0.701  13.531  0.2079 -0.0446 -0.0934
19485TIP3    H179870   5.133   0.752  13.510 -0.1042 -1.1113 -1.6894
19485TIP3    H279871   5.179   0.625  13.578  0.3714 -0.1082 -0.0846
19486TIP3   OH279872   2.680   1.337  15.704 -0.5289  0.1048  0.3431
19486TIP3    H179873   2.668   1.296  15.789 -0.4898 -0.8563 -0.0987
19486TIP3    H279874   2.718   1.423  15.723 -0.8409  0.0319  1.3034
19487TIP3   OH279875   5.546   0.998  16.996  0.0710  0.0239 -0.2227
19487TIP3    H179876   5.568   1.086  16.967  0.3743  0.0699  0.1349
19487TIP3    H279877   5.469   1.011  17.053  0.5142  0.1476  0.3664
19488TIP3   OH279878   4.215   5.834  14.442  0.2367 -0.1627 -0.0290
19488TIP3    H179879   4.176   5.828  14.355  0.7505 -0.5666 -0.2372
19488TIP3    H279880   4.247   5.746  14.460 -2.0728 -0.7638  1.6262
19489TIP3   OH279881   2.561   6.751   6.048  0.4533  0.0435 -0.7020
19489TIP3    H179882   2.555   6.778   5.957 -0.7433  2.1319 -0.0674
19489TIP3    H279883   2.655   6.751   6.068  0.5997  2.1942 -1.2211
19490TIP3   OH279884   1.943   2.036   1.590 -0.2189  0.3954  0.0953
19490TIP3    H179885   1.888   2.113   1.575 -2.0907 -0.9167 -0.1268
19490TIP3    H279886   1.974   2.011   1.503  0.7257  1.0897  0.2121
19491TIP3   OH279887   0.079   4.274   5.477  0.3361 -0.0580  0.0237
19491TIP3    H179888   0.124   4.236   5.402 -0.9694  0.8997 -1.3155
19491TIP3    H279889   0.011   4.210   5.499  1.5053 -0.9306  1.2553
19492TIP3   OH279890   0.671   6.165   3.850 -0.0262  0.0357  0.0006
19492TIP3    H179891   0.634   6.153   3.762  1.0303 -2.3478 -0.2121
19492TIP3    H279892   0.600   6.143   3.909 -1.0865  2.7206 -0.1433
19493TIP3   OH279893   4.834   1.962   1.390  0.1899 -0.2327 -0.1303
19493TIP3    H179894   4.919   1.929   1.419  0.6406  1.6610  0.8363
19493TIP3    H279895   4.781   1.968   1.469  0.6090  2.6148  0.0373
19494TIP3   OH279896   1.469   5.494   6.240  0.8539  0.3550  0.2278
19494TIP3    H179897   1.540   5.554   6.219  1.2763 -0.1875  0.0877
19494TIP3    H279898   1.494   5.411   6.199 -0.3964  0.4430 -0.7836
19495TIP3   OH279899   5.693   5.657  16.979 -0.2178 -0.3284  0.0781
19495TIP3    H179900   5.685   5.751  16.961  1.4896  0.0882  1.2972
19495TIP3    H279901   5.785   5.644  16.999 -0.1861 -2.5088 -1.2224
19496TIP3   OH279902   6.546   4.156   2.203 -0.0157 -0.3393  0.1299
19496TIP3    H179903   6.490   4.214   2.151 -0.5968 -0.8630  0.1657
19496TIP3    H279904   6.539   4.189   2.292  0.8316  0.4432 -0.0662
19497TIP3   OH279905   4.707   6.812  15.776 -0.0762  0.0624  0.4641
19497TIP3    H179906   4.691   6.862  15.696 -0.8210  2.1521  1.8157
19497TIP3    H279907   4.775   6.862  15.822 -1.3077  0.2281  2.1814
19498TIP3   OH279908   4.995   0.506   1.742  0.0157  0.1609  0.4531
19498TIP3    H179909   5.086   0.508   1.772 -0.1266  2.0907  0.8443
19498TIP3    H279910   5.000   0.466   1.655  1.0316 -1.0640  1.0376
19499TIP3   OH279911   4.891   2.453   4.640 -0.3881 -0.9424  0.4491
19499TIP3    H179912   4.852   2.540   4.635  0.8498 -0.4263 -0.6022
19499TIP3    H279913   4.981   2.464   4.610 -0.0682 -2.5073  0.7128
19500TIP3   OH279914   5.271   2.178   3.781  0.2126  0.0677  0.6793
19500TIP3    H179915   5.315   2.126   3.848  0.2070  0.6853  1.1747
19500TIP3    H279916   5.284   2.269   3.808 -0.1838  0.3116  0.0886
19501TIP3   OH279917   0.430   2.552  16.401 -0.6752  0.1721  0.1868
19501TIP3    H179918   0.498   2.609  16.438 -1.8487  1.2791  0.7211
19501TIP3    H279919   0.405   2.595  16.319 -1.6013  0.4868  0.6163
19502TIP3   OH279920   0.517   5.576  14.945  0.3579  0.0821 -0.5198
19502TIP3    H179921   0.488   5.486  14.961 -0.6106  0.3033 -0.9891
19502TIP3    H279922   0.590   5.588  15.006 -1.8246  0.2003  2.2325
19503TIP3   OH279923   1.591   4.267  15.130 -1.2536  0.3619 -0.0420
19503TIP3    H179924   1.676   4.296  15.162 -1.2918 -0.4768  0.8516
19503TIP3    H279925   1.606   4.247  15.037  0.4265 -2.9959  0.7963
19504TIP3   OH279926   0.068   5.139  14.123  0.1507 -0.1614  0.1272
19504TIP3    H179927  -0.024   5.113  14.117  0.6079 -2.1060  0.8639
19504TIP3    H279928   0.093   5.160  14.033  0.2445 -4.4035 -1.0442
19505TIP3   OH279929   0.696   0.199   1.728  0.0547  0.0697 -0.1382
19505TIP3    H179930   0.696   0.217   1.822 -0.1236  0.4268 -0.2057
19505TIP3    H279931   0.778   0.152   1.713  0.7194  1.1408 -0.0159
19506TIP3   OH279932   1.292   1.030   4.240  0.0681  0.0070 -0.0455
19506TIP3    H179933   1.218   1.015   4.181 -0.0059 -0.6304  0.2057
19506TIP3    H279934   1.367   1.041   4.181 -0.4235  1.9976 -0.3583
19507TIP3   OH279935   0.776   2.951  13.111  0.0352 -0.1841  0.0978
19507TIP3    H179936   0.720   2.954  13.033 -0.3943  2.0738  0.4068
19507TIP3    H279937   0.849   3.009  13.090  1.6890 -2.1374  0.1773
19508TIP3   OH279938   2.944   3.058  12.402 -0.6598  0.6424 -0.3181
19508TIP3    H179939   2.905   2.994  12.343 -0.1876  0.0744 -0.0205
19508TIP3    H279940   3.004   3.007  12.458 -0.4458  1.3004  0.0695
19509TIP3   OH279941   3.841   3.124  14.987  0.1010  0.3609 -0.0493
19509TIP3    H179942   3.927   3.087  15.008  0.3085 -0.1213 -1.6313
19509TIP3    H279943   3.780   3.051  14.998  0.1574  0.2099 -0.7151
19510TIP3   OH279944   3.922   0.282  11.597 -0.2283 -0.3957  0.2775
19510TIP3    H179945   3.931   0.192  11.568 -0.0918  0.5386 -2.9698
19510TIP3    H279946   3.827   0.299  11.596 -0.2476 -0.4537  0.7826
19511TIP3   OH279947   4.323   4.889  12.511  0.1783 -0.5114  0.4796
19511TIP3    H179948   4.243   4.891  12.563 -0.5121  0.8113 -0.5704
19511TIP3    H279949   4.328   4.800  12.478 -1.1413 -0.4850  0.1602
19512TIP3   OH279950   5.914   4.477   1.443  0.3076 -0.1521  0.0073
19512TIP3    H179951   5.947   4.477   1.533  2.3325  1.6857 -0.6577
19512TIP3    H279952   5.927   4.566   1.412 -1.8176 -0.3420 -1.6371
19513TIP3   OH279953   1.865   0.580   6.717  0.0586  0.0433 -0.5500
19513TIP3    H179954   1.799   0.648   6.734 -0.4978 -0.6287  0.0421
19513TIP3    H279955   1.827   0.525   6.649 -0.5238 -1.0123  0.5834
19514TIP3   OH279956   5.572   5.794   0.938  0.2026 -0.1251  0.1509
19514TIP3    H179957   5.493   5.802   0.884  0.3439  2.6312  0.2028
19514TIP3    H279958   5.643   5.782   0.875  0.0685  0.3722 -0.0980
19515TIP3   OH279959   1.830   3.052  11.106  0.5504 -0.5163 -0.2424
19515TIP3    H179960   1.893   3.123  11.115 -0.0709  0.1970 -1.3698
19515TIP3    H279961   1.829   3.010  11.192  2.3934 -0.4188 -0.1344
19516TIP3   OH279962   1.850   2.492  15.098  0.4931 -0.0076 -0.0312
19516TIP3    H179963   1.801   2.420  15.139 -0.6533  1.1484  0.7003
19516TIP3    H279964   1.855   2.559  15.166 -0.4057  1.5040 -1.3895
19517TIP3   OH279965   6.176   4.406   6.561 -0.0964 -0.3009  0.1009
19517TIP3    H179966   6.154   4.321   6.598  0.7825 -0.1289  1.0622
19517TIP3    H279967   6.234   4.387   6.487  1.6413 -0.4844  1.4626
19518TIP3   OH279968   6.316   4.978   2.944 -0.3327  0.4585  0.3543
19518TIP3    H179969   6.387   4.918   2.919 -1.0553 -0.1276 -0.3371
19518TIP3    H279970   6.345   5.063   2.912 -0.5504 -0.0182 -1.1673
19519TIP3   OH279971   0.228   2.473  11.861 -0.1039  0.2626  0.2188
19519TIP3    H179972   0.161   2.413  11.893  0.4219  0.7488  2.4019
19519TIP3    H279973   0.275   2.424  11.793 -0.9469 -1.0435  0.5491
19520TIP3   OH279974   0.077   2.074   5.802  0.0553 -0.5426 -0.4258
19520TIP3    H179975   0.123   2.059   5.885 -0.1755 -0.2992 -0.2505
19520TIP3    H279976   0.136   2.040   5.735 -0.1066 -1.4780 -0.1061
19521TIP3   OH279977   3.351   1.173   2.049 -0.3637 -0.0683 -0.4381
19521TIP3    H179978   3.352   1.104   1.983 -0.4230  0.4954 -1.0313
19521TIP3    H279979   3.260   1.176   2.079 -0.3692 -0.2149 -0.4363
19522TIP3   OH279980   4.402   6.129   2.317  0.7444 -0.3649 -0.7333
19522TIP3    H179981   4.316   6.169   2.333  0.2207 -1.8217  0.2397
19522TIP3    H279982   4.410   6.127   2.222  0.6662  1.7172 -0.8423
19523TIP3   OH279983   2.822   0.666   2.846 -0.1204 -0.3118 -0.0067
19523TIP3    H179984   2.916   0.673   2.864  0.0007  1.2864 -1.0968
19523TIP3    H279985   2.809   0.574   2.820  0.8474 -0.9341  1.5372
19524TIP3   OH279986   4.866   4.141  15.239  0.0963 -0.0184 -0.1386
19524TIP3    H179987   4.942   4.144  15.181  0.7163  0.5091  0.6775
19524TIP3    H279988   4.896   4.093  15.316 -0.7656 -0.8487 -0.3019
19525TIP3   OH279989   3.728   0.479  15.636 -0.2298  0.0207 -0.1183
19525TIP3    H179990   3.776   0.445  15.712 -0.4020 -0.7405 -0.3431
19525TIP3    H279991   3.734   0.409  15.571 -0.8231  0.3169 -0.4986
19526TIP3   OH279992   5.005   3.753  12.543  0.0664 -0.5242  0.2998
19526TIP3    H179993   4.939   3.789  12.602  1.1315 -0.4302  1.4726
19526TIP3    H279994   4.959   3.741  12.460 -0.8379  1.7575  0.3984
19527TIP3   OH279995   6.626   0.126   2.572 -0.3035  0.7497 -0.0011
19527TIP3    H179996   6.542   0.082   2.585 -0.0005  0.5998  1.7144
19527TIP3    H279997   6.691   0.062   2.601  0.4141  0.9155 -1.1738
19528TIP3   OH279998   4.949   3.177   3.993  0.1595 -0.2135  0.0686
19528TIP3    H179999   5.036   3.215   4.006  0.2786  0.2703 -1.7724
19528TIP3    H280000   4.917   3.218   3.912 -1.6504 -0.6250  0.5232
19529TIP3   OH280001   2.928   4.567   3.824  0.4363 -0.3834  0.1339
19529TIP3    H180002   2.887   4.494   3.778  1.0103 -2.1544  2.2678
19529TIP3    H280003   2.916   4.547   3.917  1.6066  1.6919  0.8136
19530TIP3   OH280004   5.846   3.951  14.734 -0.0110  0.1652 -0.1451
19530TIP3    H180005   5.936   3.947  14.701 -0.8254  0.1234 -2.6191
19530TIP3    H280006   5.816   3.860  14.729 -0.6880  0.4189 -1.0309
19531TIP3   OH280007   6.506   0.751   3.907 -0.4494 -0.3523 -0.5499
19531TIP3    H180008   6.478   0.686   3.972 -2.3591 -0.9686 -1.8905
19531TIP3    H280009   6.595   0.774   3.934 -1.0463 -0.7555  2.1037
19532TIP3   OH280010   4.696   5.662  16.786 -0.1938 -0.6877  0.2901
19532TIP3    H180011   4.725   5.576  16.816 -0.0582 -0.7638 -0.0408
19532TIP3    H280012   4.639   5.643  16.711 -2.5110 -0.6282  1.9272
19533TIP3   OH280013   2.411   3.116   0.210 -0.2558  0.7319  0.3650
19533TIP3    H180014   2.342   3.054   0.187 -0.0142  0.6208 -0.0825
19533TIP3    H280015   2.409   3.120   0.306 -0.1612 -0.1013  0.4164
19534TIP3   OH280016   3.734   4.791   4.547 -0.0200  0.1939 -0.7232
19534TIP3    H180017   3.718   4.703   4.513 -1.0462 -0.0198  0.2296
19534TIP3    H280018   3.665   4.845   4.509 -0.4615  0.1980  0.0561
19535TIP3   OH280019   5.541   6.734   0.227  0.1392  0.2342  0.2170
19535TIP3    H180020   5.598   6.781   0.167 -0.4437  1.9106  0.9265
19535TIP3    H280021   5.589   6.731   0.309 -0.1692  0.3110  0.4025
19536TIP3   OH280022   1.943   4.507  16.975 -0.0083  0.3663  0.4107
19536TIP3    H180023   2.006   4.439  16.951  0.0140  0.7958 -0.8657
19536TIP3    H280024   1.858   4.464  16.968  0.0797  0.0793  1.0615
19537TIP3   OH280025   2.365   2.161   4.030  0.0213 -0.3613 -0.1570
19537TIP3    H180026   2.341   2.217   3.956  0.2994 -0.2623 -0.1716
19537TIP3    H280027   2.283   2.117   4.054 -0.7814  1.7913  1.3691
19538TIP3   OH280028   5.999   5.175   0.706 -0.6326 -0.4070 -0.3459
19538TIP3    H180029   6.048   5.144   0.782  1.0670 -0.3249 -1.3559
19538TIP3    H280030   5.962   5.095   0.667 -2.2700 -0.3701  0.9991
19539TIP3   OH280031   3.787   4.818   0.710  0.0610  0.1744  0.6685
19539TIP3    H180032   3.804   4.800   0.617  0.4603 -0.1937  0.8054
19539TIP3    H280033   3.697   4.848   0.713 -0.5942 -1.6371  0.3890
19540TIP3   OH280034   6.725   1.560  13.922  0.1846 -0.1748  0.3130
19540TIP3    H180035   6.643   1.564  13.972  0.9708 -0.8184  1.7086
19540TIP3    H280036   6.785   1.510  13.978  1.8662  1.1672 -0.2236
19541TIP3   OH280037   5.501   0.168   1.747 -0.0942 -0.1913  0.4119
19541TIP3    H180038   5.547   0.211   1.675  0.7153  1.0485  1.6188
19541TIP3    H280039   5.493   0.236   1.815 -2.0795 -0.9096  0.9636
19542TIP3   OH280040   0.531   4.974   4.748  0.5085 -0.0673  0.4051
19542TIP3    H180041   0.547   5.068   4.749  1.1990 -0.1746  0.2743
19542TIP3    H280042   0.598   4.938   4.806  0.9116 -0.5653 -0.3452
19543TIP3   OH280043   5.709   6.327  15.015  0.3153 -0.5114  0.0483
19543TIP3    H180044   5.688   6.346  15.107  1.3860 -1.4889  0.5239
19543TIP3    H280045   5.804   6.329  15.012  0.3635 -2.1597 -0.6401
19544TIP3   OH280046   2.148   6.598  11.830  0.0274  0.4903 -0.0702
19544TIP3    H180047   2.142   6.550  11.747 -3.5312  1.0923 -0.3414
19544TIP3    H280048   2.222   6.559  11.875  1.1827 -0.9030 -2.8789
19545TIP3   OH280049   2.555   4.883   0.786 -0.2232 -0.3980 -0.3239
19545TIP3    H180050   2.478   4.861   0.734  0.0877 -1.3842 -0.3836
19545TIP3    H280051   2.522   4.943   0.853 -0.9825 -0.5912 -0.5137
19546TIP3   OH280052   3.936   5.867   3.031  0.0128 -0.2217  0.3270
19546TIP3    H180053   3.893   5.948   3.003  0.1056 -0.2674  0.0516
19546TIP3    H280054   3.909   5.856   3.122  1.3570  1.0187  0.9155
19547TIP3   OH280055   4.409   4.541  13.157 -0.5007 -0.4402 -0.4015
19547TIP3    H180056   4.329   4.501  13.191  0.5670 -3.5326 -1.2211
19547TIP3    H280057   4.479   4.482  13.183  1.5522  2.0161  0.0370
19548TIP3   OH280058   3.660   5.786  13.335 -0.3301  0.1466 -0.3257
19548TIP3    H180059   3.709   5.728  13.277 -0.2393  0.0818 -0.1857
19548TIP3    H280060   3.590   5.731  13.370 -0.0041  0.0077  0.1173
19549TIP3   OH280061   2.286   3.421  11.599 -0.3150  0.0852  0.4159
19549TIP3    H180062   2.300   3.472  11.519  1.6788 -1.2681 -0.1883
19549TIP3    H280063   2.345   3.460  11.663 -0.1663 -0.2789  0.5067
19550TIP3   OH280064   0.561   2.772  12.267  0.2910  0.0098  0.7378
19550TIP3    H180065   0.600   2.709  12.328  1.8588  0.4507  0.2472
19550TIP3    H280066   0.636   2.824  12.236 -0.8984  1.8698  0.8547
19551TIP3   OH280067   2.171   1.318  10.341 -0.0201  0.1419  0.5537
19551TIP3    H180068   2.104   1.264  10.299  1.4521 -0.5724 -0.9833
19551TIP3    H280069   2.159   1.301  10.435 -1.5146 -0.4974  0.2853
19552TIP3   OH280070   6.302   0.596   2.930 -0.6002 -0.1884 -0.3956
19552TIP3    H180071   6.225   0.549   2.898 -1.1655  0.5871 -0.2199
19552TIP3    H280072   6.267   0.659   2.993  0.3495 -0.7487  0.7104
19553TIP3   OH280073   6.237   0.890  16.407 -0.4666 -0.3703  0.4090
19553TIP3    H180074   6.204   0.813  16.363  0.4966 -1.0291  0.7983
19553TIP3    H280075   6.200   0.964  16.359  1.8205 -0.9978 -2.5939
19554TIP3   OH280076   3.325   5.689   0.417  0.3281 -0.0823 -0.6783
19554TIP3    H180077   3.266   5.647   0.480  0.1115  0.0919 -0.7647
19554TIP3    H280078   3.291   5.663   0.332  0.6453 -0.3499 -0.7253
19555TIP3   OH280079   1.683   4.069  10.577 -0.1583  0.2570  0.4394
19555TIP3    H180080   1.601   4.078  10.530 -0.2316  1.9927  0.8112
19555TIP3    H280081   1.659   4.026  10.659 -0.1319 -2.1596 -0.7455
19556TIP3   OH280082   1.732   1.077   0.212  0.2864 -0.1069 -0.1881
19556TIP3    H180083   1.699   1.158   0.175  0.6673  0.7490  1.2504
19556TIP3    H280084   1.806   1.104   0.266  0.0948 -1.3453  0.7412
19557TIP3   OH280085   6.698   5.307  16.954 -0.2618  0.3625  0.9481
19557TIP3    H180086   6.712   5.227  17.006  0.4581  0.6481  1.2071
19557TIP3    H280087   6.681   5.275  16.865  0.8635 -0.0681  0.8727
19558TIP3   OH280088   3.881   1.900  14.638  0.0072 -0.2241  0.4369
19558TIP3    H180089   3.815   1.888  14.705 -0.4832 -0.8569 -0.1440
19558TIP3    H280090   3.923   1.983  14.659  0.1211 -0.5947  1.7345
19559TIP3   OH280091   2.943   0.499   2.151  0.2288 -0.4167 -0.1023
19559TIP3    H180092   3.022   0.501   2.205 -0.1564 -0.5293  0.4682
19559TIP3    H280093   2.898   0.419   2.176  1.0320 -1.5449 -2.0324
19560TIP3   OH280094   5.574   1.931   2.407 -0.2162 -0.3725 -0.6208
19560TIP3    H180095   5.607   1.863   2.347  1.8168  1.1270 -1.3114
19560TIP3    H280096   5.528   1.993   2.351 -0.6010 -0.3013 -0.2330
19561TIP3   OH280097   2.650   2.677   6.283 -0.2391 -0.4192  0.1118
19561TIP3    H180098   2.565   2.719   6.298  0.5020  0.4959  1.9637
19561TIP3    H280099   2.698   2.740   6.230  0.5255  0.7234  2.0800
19562TIP3   OH280100   2.193   3.066   3.763 -0.7958 -0.0297 -0.4664
19562TIP3    H180101   2.134   3.006   3.718 -2.6826  1.2950  0.1509
19562TIP3    H280102   2.136   3.127   3.809  1.0067  2.1862 -0.9625
19563TIP3   OH280103   4.453   4.971  12.278 -0.5032 -0.0106 -0.2446
19563TIP3    H180104   4.399   5.041  12.242  1.9251  2.5919  0.8207
19563TIP3    H280105   4.413   4.953  12.363 -0.5416  0.8703 -0.0619
19564TIP3   OH280106   3.622   6.784  15.517 -0.4218  0.2964 -0.4255
19564TIP3    H180107   3.590   6.793  15.607  0.3301  0.7396 -0.1940
19564TIP3    H280108   3.566   6.717  15.478  1.0275 -2.0144  1.2313
19565TIP3   OH280109   4.147   4.473   4.119  0.1231  0.3835  0.3090
19565TIP3    H180110   4.192   4.468   4.034  0.0629  1.7229  0.1858
19565TIP3    H280111   4.100   4.556   4.117 -1.7350 -0.5805  0.7646
19566TIP3   OH280112   0.299   6.168   3.151  0.4739 -0.1753  0.1939
19566TIP3    H180113   0.289   6.261   3.131  3.1755  0.0988 -0.2652
19566TIP3    H280114   0.234   6.124   3.096 -2.1094  1.4826  1.7357
19567TIP3   OH280115   1.525   1.252   2.075  0.0435 -0.4148 -0.2376
19567TIP3    H180116   1.501   1.161   2.058  0.8359 -0.1888 -3.0155
19567TIP3    H280117   1.508   1.297   1.993  1.5871  1.5338  0.4382
19568TIP3   OH280118   3.269   6.539   1.816  0.3531 -0.0027  0.0436
19568TIP3    H180119   3.242   6.619   1.770  0.1531 -0.3741 -0.4842
19568TIP3    H280120   3.264   6.563   1.909 -1.7182 -0.0031 -0.0163
19569TIP3   OH280121   0.651   6.424   2.449 -0.0390  0.3674  0.1385
19569TIP3    H180122   0.573   6.369   2.448 -0.2432  0.6531 -0.6188
19569TIP3    H280123   0.718   6.371   2.405  0.0283  0.3604  0.2472
19570TIP3   OH280124   3.626   0.961  11.348  0.7324  0.3318 -0.4360
19570TIP3    H180125   3.602   0.879  11.392  0.5808  1.5097  1.8059
19570TIP3    H280126   3.559   0.972  11.281  0.3775 -1.0600 -0.3469
19571TIP3   OH280127   0.678   5.674  15.801  0.1727  0.3985 -0.7881
19571TIP3    H180128   0.733   5.630  15.737  1.4038 -0.2263  0.6384
19571TIP3    H280129   0.588   5.651  15.777  0.7325 -2.3605 -0.5202
19572TIP3   OH280130   4.543   1.648  16.734 -0.4322 -0.4537  0.6363
19572TIP3    H180131   4.572   1.716  16.673  0.5134 -2.1410 -0.8624
19572TIP3    H280132   4.479   1.693  16.790 -1.5867  1.1102 -1.7541
19573TIP3   OH280133   3.996   6.378  16.763 -0.0995 -0.1564  0.0960
19573TIP3    H180134   3.955   6.291  16.761 -1.9299  0.6710 -1.4050
19573TIP3    H280135   4.057   6.377  16.690 -1.0466  0.1930 -0.7292
19574TIP3   OH280136   4.894   2.104   4.805 -0.0584 -0.1497  0.0971
19574TIP3    H180137   4.895   2.128   4.712 -0.2226 -1.3668 -0.2431
19574TIP3    H280138   4.822   2.042   4.812  0.7367 -1.0148  0.7868
19575TIP3   OH280139   6.780   1.873   4.610  0.2507 -0.1880  0.2934
19575TIP3    H180140   6.709   1.850   4.670 -1.0112  0.6012 -0.8467
19575TIP3    H280141   6.860   1.851   4.658 -0.7122  0.3566  2.2414
19576TIP3   OH280142   4.044   4.015  15.565  0.0751 -0.3261  0.0364
19576TIP3    H180143   4.011   3.937  15.610  0.9523  0.0388  1.3920
19576TIP3    H280144   4.119   3.984  15.514 -1.0127 -0.7703 -1.3679
19577TIP3   OH280145   1.864   5.987   6.019 -0.0400 -0.3012  0.0491
19577TIP3    H180146   1.827   6.073   6.000 -0.0059  0.1942  2.0430
19577TIP3    H280147   1.790   5.926   6.009 -0.1963  0.0133 -0.7928
19578TIP3   OH280148   1.734   6.615   5.179  0.3437 -0.2269  0.4011
19578TIP3    H180149   1.669   6.612   5.250  0.6613 -1.7319  0.6570
19578TIP3    H280150   1.684   6.647   5.103 -0.0915  1.0220  1.1773
19579TIP3   OH280151   6.540   6.031   1.338  0.2589  0.1637 -0.6406
19579TIP3    H180152   6.500   6.117   1.347 -0.4568 -0.3419  1.4958
19579TIP3    H280153   6.622   6.037   1.385 -0.2787 -0.5816  0.4358
19580TIP3   OH280154   2.314   0.864  14.309 -0.5842  0.0365  0.8524
19580TIP3    H180155   2.221   0.847  14.327 -0.1301 -1.9784  1.5932
19580TIP3    H280156   2.360   0.791  14.352  1.5085  2.0997  2.3519
19581TIP3   OH280157   3.549   1.991   3.311  0.1202 -0.4243 -0.3619
19581TIP3    H180158   3.494   1.949   3.245 -0.6896  0.9220 -0.5827
19581TIP3    H280159   3.636   1.996   3.270 -0.1366 -0.4949 -0.9283
19582TIP3   OH280160   2.108   5.222   1.513  0.2823  0.6509 -0.2242
19582TIP3    H180161   2.194   5.187   1.537  2.0970  2.6525 -3.1218
19582TIP3    H280162   2.051   5.146   1.510  1.6888 -0.6749  2.4747
19583TIP3   OH280163   3.703   2.992  17.070 -0.2292 -0.4151  0.1721
19583TIP3    H180164   3.765   2.921  17.053  1.5255  1.5103 -2.2433
19583TIP3    H280165   3.630   2.974  17.010 -0.2817 -0.7053  0.3201
19584TIP3   OH280166   4.719   0.782  14.171  0.0073 -0.0344  0.5196
19584TIP3    H180167   4.734   0.772  14.265  0.2153  0.5288  0.5575
19584TIP3    H280168   4.666   0.862  14.164 -1.7780 -1.1907  0.2828
19585TIP3   OH280169   5.598   5.488   5.381 -0.2195  0.1208 -0.0990
19585TIP3    H180170   5.675   5.437   5.404 -0.5906  0.5414  2.4209
19585TIP3    H280171   5.595   5.558   5.447 -2.6945  0.1576 -0.1563
19586TIP3   OH280172   2.215   3.487  16.125  0.4208  1.1221 -0.0684
19586TIP3    H180173   2.223   3.449  16.213  0.2631  1.2725  0.0104
19586TIP3    H280174   2.169   3.420  16.075  2.7512 -0.1023 -0.7378
19587TIP3   OH280175   6.784   4.186   2.545 -0.3770  0.5531 -0.3271
19587TIP3    H180176   6.794   4.197   2.640  1.2317  0.5490 -0.4698
19587TIP3    H280177   6.757   4.094   2.535 -2.2193  0.9920  0.1878
19588TIP3   OH280178   4.423   2.708  11.525 -0.2200 -0.9266 -0.2348
19588TIP3    H180179   4.473   2.650  11.469  3.6185  2.3946 -0.6989
19588TIP3    H280180   4.468   2.706  11.609 -2.0544 -1.0788  0.8014
19589TIP3   OH280181   6.290   0.688   2.625  0.2208  0.0826  0.1307
19589TIP3    H180182   6.256   0.657   2.708 -2.3607 -0.3161 -0.9889
19589TIP3    H280183   6.364   0.744   2.649 -0.2409 -0.2821  2.6522
19590TIP3   OH280184   2.144   2.300  16.409  0.2422  0.2206  0.0712
19590TIP3    H180185   2.177   2.254  16.332  0.2370  0.9767 -0.3972
19590TIP3    H280186   2.214   2.361  16.432  0.7114 -0.7904  1.3618
19591TIP3   OH280187   3.347   3.603   3.740  0.1940  0.4939 -0.0387
19591TIP3    H180188   3.327   3.693   3.715 -0.3996 -0.2430 -2.5127
19591TIP3    H280189   3.441   3.604   3.761  0.5628  1.4115 -1.5765
19592TIP3   OH280190   5.987   3.978  12.305 -0.0585 -0.0009  0.0376
19592TIP3    H180191   5.953   3.903  12.354  0.4708 -0.2567  0.0164
19592TIP3    H280192   6.054   3.941  12.247 -0.3102  0.3774 -0.5077
19593TIP3   OH280193   3.396   4.070   1.419 -0.2421  0.0913  0.4301
19593TIP3    H180194   3.322   4.083   1.479  0.0254  4.2368  0.1643
19593TIP3    H280195   3.461   4.134   1.449  2.4369 -1.9993 -0.6299
19594TIP3   OH280196   5.480   2.433  11.390 -0.3483  0.3671 -0.0144
19594TIP3    H180197   5.547   2.386  11.341 -0.1471  0.0887  0.5171
19594TIP3    H280198   5.398   2.390  11.366 -0.3926  0.9565 -0.9618
19595TIP3   OH280199   3.302   3.963  16.967  0.2932 -0.1144 -0.2550
19595TIP3    H180200   3.232   3.901  16.985  1.3497 -1.0120  0.9569
19595TIP3    H280201   3.271   4.013  16.891 -1.9401  0.0152  0.6659
19596TIP3   OH280202   4.197   5.053   0.736 -0.2552  0.2008 -0.6351
19596TIP3    H180203   4.232   5.067   0.824  0.0484  0.7712 -0.8418
19596TIP3    H280204   4.189   5.141   0.699  0.9257 -0.1021 -1.6746
19597TIP3   OH280205   3.909   1.901  10.887 -0.2084  0.7088 -0.2554
19597TIP3    H180206   3.866   1.871  10.807  0.8387 -1.4434 -0.0814
19597TIP3    H280207   3.929   1.993  10.870 -0.8567  0.5644 -2.0804
19598TIP3   OH280208   5.124   0.041   3.227  0.5222  0.0728 -0.3812
19598TIP3    H180209   5.205  -0.009   3.223 -0.0176 -0.8380 -0.2523
19598TIP3    H280210   5.068   0.000   3.160 -0.6210 -0.7814  1.0420
19599TIP3   OH280211   3.148   0.068   2.351 -0.4158 -0.2532 -0.1288
19599TIP3    H180212   3.242   0.062   2.366 -0.4676  1.2175  0.9595
19599TIP3    H280213   3.113  -0.014   2.384  0.2495  0.1176  1.5917
19600TIP3   OH280214   1.072   6.625   5.303  0.1032 -0.0134 -0.1275
19600TIP3    H180215   1.014   6.591   5.371  1.5194  1.7128  2.0433
19600TIP3    H280216   1.033   6.594   5.221 -0.9189 -3.3586  1.4419
19601TIP3   OH280217   6.035   3.923  16.002  0.0828  0.4192 -0.5758
19601TIP3    H180218   6.109   3.982  16.011  0.5824 -0.2583 -0.1487
19601TIP3    H280219   5.977   3.966  15.939 -0.3126  2.0815  0.8772
19602TIP3   OH280220   3.723   5.714  16.009  0.6569  0.0046  0.3304
19602TIP3    H180221   3.727   5.694  15.916 -1.0974 -0.0238  0.2288
19602TIP3    H280222   3.653   5.658  16.043 -0.4265  1.7851  1.1659
19603TIP3   OH280223   3.857   2.416  10.802 -0.2485 -0.1075 -0.4551
19603TIP3    H180224   3.945   2.399  10.836 -0.6218 -0.3811  0.4064
19603TIP3    H280225   3.867   2.498  10.752  0.5624 -0.3246 -0.6742
19604TIP3   OH280226   3.004   2.144  16.136  0.0775 -0.2181  0.1672
19604TIP3    H180227   2.964   2.223  16.100 -3.1138 -1.5864  0.3306
19604TIP3    H280228   3.039   2.171  16.221 -1.3589  0.9803  0.4209
19605TIP3   OH280229   5.749   4.261   5.816  0.2182  0.6164  0.1330
19605TIP3    H180230   5.690   4.294   5.749  1.9030 -0.1482 -1.8314
19605TIP3    H280231   5.699   4.192   5.860 -1.0613  1.4145 -0.0219
19606TIP3   OH280232   4.052   3.714   1.329 -0.3102  0.0058 -0.6070
19606TIP3    H180233   3.966   3.676   1.347 -1.1310  1.4438 -1.3515
19606TIP3    H280234   4.033   3.793   1.278  1.2309  2.0282  1.7617
19607TIP3   OH280235   5.308   1.646  16.593  0.3564 -0.5978 -0.4371
19607TIP3    H180236   5.276   1.557  16.579 -0.4592 -0.5437  0.9005
19607TIP3    H280237   5.231   1.696  16.618  1.2342 -0.1957  1.7183
19608TIP3   OH280238   6.602   4.148   0.210  0.2697 -0.2914 -0.2146
19608TIP3    H180239   6.542   4.207   0.255  0.3802 -0.2788 -0.0828
19608TIP3    H280240   6.627   4.196   0.131  0.6341 -0.0065  0.0636
19609TIP3   OH280241   4.511   2.461   5.094  0.4012  0.1097  0.2509
19609TIP3    H180242   4.496   2.409   5.172 -0.7022  1.5304  1.0225
19609TIP3    H280243   4.583   2.521   5.117 -0.9286  1.5741  0.7535
19610TIP3   OH280244   3.006   1.524  15.676  0.1335 -0.0852  0.3910
19610TIP3    H180245   3.095   1.542  15.708  0.4904 -2.9037  1.2736
19610TIP3    H280246   3.008   1.549  15.584  1.8385  0.0129  0.4172
19611TIP3   OH280247   0.062   4.512   2.713  0.6899  0.0569  0.0846
19611TIP3    H180248   0.089   4.601   2.734  1.0309  0.2600 -1.1226
19611TIP3    H280249   0.019   4.519   2.628  1.8414 -1.0966 -0.6339
19612TIP3   OH280250   0.274   1.206  13.823  0.6090  0.5202  0.1575
19612TIP3    H180251   0.206   1.161  13.874  1.2029 -2.0727 -1.1582
19612TIP3    H280252   0.352   1.203  13.879  0.2572  1.3836  0.7138
19613TIP3   OH280253   1.581   1.493   3.351  0.1157  0.0662 -0.6889
19613TIP3    H180254   1.546   1.481   3.263  2.8564  1.0390 -2.0087
19613TIP3    H280255   1.571   1.586   3.369 -0.1292 -0.0700 -0.0880
19614TIP3   OH280256   3.040   6.687  15.413 -0.0638  0.0775 -0.2753
19614TIP3    H180257   3.017   6.631  15.487  0.0450  0.3199 -0.0540
19614TIP3    H280258   3.130   6.714  15.430 -0.3361  0.8662 -0.0199
19615TIP3   OH280259   2.319   4.641   4.511  0.0116  0.0929 -0.2234
19615TIP3    H180260   2.292   4.550   4.517  0.3171 -0.0618 -1.0834
19615TIP3    H280261   2.243   4.687   4.475 -0.4679  0.3493  1.0767
19616TIP3   OH280262   2.570   6.001  16.241 -0.4774 -0.3019 -0.6000
19616TIP3    H180263   2.571   6.040  16.154  2.3693 -0.0617 -0.5493
19616TIP3    H280264   2.659   5.968  16.254 -0.3446  1.0079  2.8174
19617TIP3   OH280265   5.146   2.876   0.554  0.5394 -0.3012  0.1933
19617TIP3    H180266   5.092   2.954   0.553  0.3604 -0.4303 -0.3884
19617TIP3    H280267   5.133   2.839   0.642 -0.7308 -0.6202 -0.1172
19618TIP3   OH280268   4.729   6.729  16.342 -0.2977 -0.2338  0.4532
19618TIP3    H180269   4.762   6.819  16.346 -2.2534  0.5288  0.7554
19618TIP3    H280270   4.651   6.730  16.397 -0.1578 -2.2332  0.7521
19619TIP3   OH280271   2.100   0.162   1.060  0.5785  0.4444 -0.5233
19619TIP3    H180272   2.184   0.198   1.029  0.9664  0.0809  0.0796
19619TIP3    H280273   2.117   0.139   1.151  0.3659 -1.3273 -0.9046
19620TIP3   OH280274   1.959   4.380   4.173 -0.7293 -0.4155  0.4412
19620TIP3    H180275   1.957   4.338   4.087  1.8690 -1.4306  0.7898
19620TIP3    H280276   1.941   4.309   4.235  0.2849 -0.3088  0.8696
19621TIP3   OH280277   1.973   3.716  11.266  0.2209  0.0164 -0.4467
19621TIP3    H180278   1.961   3.787  11.204 -0.4189 -0.9371 -1.4592
19621TIP3    H280279   1.986   3.638  11.211 -1.5112 -1.0530  0.5781
19622TIP3   OH280280   3.774   1.377  15.360 -0.1353  0.8770 -0.3660
19622TIP3    H180281   3.775   1.287  15.329 -0.5257  0.7337  0.0291
19622TIP3    H280282   3.716   1.376  15.436  1.6280  0.9870  1.0441
19623TIP3   OH280283   5.861   1.027  15.964 -0.2916  0.2099  0.2725
19623TIP3    H180284   5.806   1.055  15.891  1.5582 -1.1109 -1.7370
19623TIP3    H280285   5.826   1.075  16.039 -1.9267  2.0967 -1.5467
19624TIP3   OH280286   4.483   4.474   3.271  0.2022 -0.1411  0.0879
19624TIP3    H180287   4.564   4.525   3.275 -0.6305  1.1425  1.7773
19624TIP3    H280288   4.434   4.513   3.198 -0.5607  1.7827  1.5483
19625TIP3   OH280289   6.382   6.010  13.459 -0.1954 -0.0693 -0.1031
19625TIP3    H180290   6.381   5.921  13.493 -1.8893  0.3503  1.0786
19625TIP3    H280291   6.401   6.065  13.535 -0.2785  0.6677 -0.5949
19626TIP3   OH280292   2.997   3.344   1.855 -0.7061 -0.6966  0.0614
19626TIP3    H180293   2.993   3.382   1.942 -0.0760 -1.4490  0.4353
19626TIP3    H280294   3.076   3.381   1.815  1.0297 -2.9703  1.1414
19627TIP3   OH280295   3.585   5.230   1.084  0.4203  0.0916 -0.7169
19627TIP3    H180296   3.563   5.322   1.093  0.7312 -0.0108  1.4862
19627TIP3    H280297   3.559   5.208   0.994 -2.7028  1.4975 -0.2941
19628TIP3   OH280298   6.456   0.394  14.174 -0.3338 -0.5170 -0.0048
19628TIP3    H180299   6.540   0.405  14.218 -0.5562 -0.1875  0.3505
19628TIP3    H280300   6.426   0.484  14.157 -0.7395 -0.6217  0.1324
19629TIP3   OH280301   2.868   1.230   0.113 -0.1905 -0.1229 -0.1228
19629TIP3    H180302   2.885   1.311   0.065  2.6107 -0.8643 -0.5768
19629TIP3    H280303   2.798   1.188   0.063  0.2961  0.7073 -1.5978
19630TIP3   OH280304   0.248   0.464  12.272 -0.4494  0.1623  1.1417
19630TIP3    H180305   0.267   0.395  12.335 -1.7895 -0.3322  1.0321
19630TIP3    H280306   0.229   0.418  12.190  0.3534  0.7493  0.6075
19631TIP3   OH280307   5.005   5.682   5.396 -0.3080 -0.4961  0.6825
19631TIP3    H180308   5.001   5.750   5.329 -1.0507 -0.5228  0.6988
19631TIP3    H280309   5.012   5.729   5.479  0.4333 -0.4619  0.6117
19632TIP3   OH280310   1.108   1.117   3.827 -0.1493  0.1756  0.4008
19632TIP3    H180311   1.161   1.149   3.755  0.1095  0.1471  0.5783
19632TIP3    H280312   1.102   1.023   3.812  1.0080 -0.0278  1.1359
19633TIP3   OH280313   2.799   4.670   6.325  0.9418  0.0387 -0.2568
19633TIP3    H180314   2.756   4.593   6.288  0.8970 -0.5935  1.0722
19633TIP3    H280315   2.851   4.636   6.398  1.3657  1.1909 -0.0010
19634TIP3   OH280316   1.684   2.392  11.576 -0.2948  0.5587 -0.1753
19634TIP3    H180317   1.753   2.456  11.593 -0.8835  1.3687 -0.7447
19634TIP3    H280318   1.617   2.412  11.641 -0.0221 -0.2033  0.3551
19635TIP3   OH280319   3.467   5.958  12.069  0.0187 -0.3104  0.0552
19635TIP3    H180320   3.509   5.921  12.147 -2.7449 -0.9161  1.3694
19635TIP3    H280321   3.485   5.894  12.000 -0.3608 -1.5625  1.0624
19636TIP3   OH280322   4.190   6.171  16.429 -0.0241 -0.0188 -0.9845
19636TIP3    H180323   4.096   6.155  16.414 -0.1502 -1.4104  1.0169
19636TIP3    H280324   4.229   6.162  16.342 -1.6923  0.3365 -1.8281
19637TIP3   OH280325   6.358   5.649  13.665 -0.3420  0.6275  0.4478
19637TIP3    H180326   6.436   5.667  13.613 -0.8357 -0.3430 -0.6701
19637TIP3    H280327   6.391   5.614  13.747  0.4494  2.0807  0.7878
19638TIP3   OH280328   5.687   1.686   1.138 -0.1920 -0.0822 -0.1757
19638TIP3    H180329   5.700   1.675   1.232 -0.0152 -1.1091 -0.3034
19638TIP3    H280330   5.615   1.626   1.117 -0.5145  0.4562 -0.6290
19639TIP3   OH280331   1.784   2.834  13.280 -0.2878 -0.6081 -0.1478
19639TIP3    H180332   1.734   2.787  13.214 -0.5514 -0.8377  0.2062
19639TIP3    H280333   1.781   2.926  13.252  1.5642 -0.9671 -1.6902
19640TIP3   OH280334   6.781   6.084   3.102  0.7817  0.0285 -0.2852
19640TIP3    H180335   6.696   6.040   3.103  0.6907  0.1981 -0.5259
19640TIP3    H280336   6.770   6.157   3.042  1.0624  0.1256 -0.2223
19641TIP3   OH280337   3.828   5.150  11.207  0.0512  0.0454 -0.0533
19641TIP3    H180338   3.761   5.097  11.165 -1.1851 -0.1209  2.0312
19641TIP3    H280339   3.788   5.236  11.217 -0.2857 -0.3142  2.0971
19642TIP3   OH280340   3.863   0.206   0.107  0.0386 -0.4176  0.4783
19642TIP3    H180341   3.940   0.229   0.055  1.1024 -0.8480  1.8202
19642TIP3    H280342   3.887   0.125   0.150 -0.9096 -0.1914  1.4595
19643TIP3   OH280343   4.722   5.166  14.828 -0.5654  0.4891  0.0355
19643TIP3    H180344   4.670   5.232  14.874  0.5862  2.5559 -1.4065
19643TIP3    H280345   4.701   5.180  14.736 -0.5650 -1.4752 -0.2929
19644TIP3   OH280346   4.963   0.744   5.010 -0.3377 -0.1264  0.4918
19644TIP3    H180347   4.972   0.826   5.058 -0.1368  0.1978 -0.0915
19644TIP3    H280348   5.029   0.749   4.941 -2.1403  0.4877 -1.3077
19645TIP3   OH280349   0.423   3.395   0.177 -0.3924 -0.0389  0.1573
19645TIP3    H180350   0.341   3.347   0.165 -0.0085 -0.6869  0.1002
19645TIP3    H280351   0.479   3.365   0.106  0.1205 -0.0801  0.5797
19646TIP3   OH280352   1.985   4.897  11.111  0.1412  0.0821 -0.3015
19646TIP3    H180353   1.892   4.889  11.131  0.2868 -1.5514 -0.1657
19646TIP3    H280354   2.025   4.924  11.193 -0.1930  0.6738 -0.3309
19647TIP3   OH280355   0.960   5.118  11.407 -0.3020  0.4586  0.3537
19647TIP3    H180356   0.866   5.107  11.391 -0.1874  0.2433 -0.2107
19647TIP3    H280357   0.978   5.209  11.383 -0.1690  0.1927 -0.5742
19648TIP3   OH280358   4.833   6.146   2.857 -0.7387  0.2490  0.4064
19648TIP3    H180359   4.907   6.160   2.915  0.3510 -0.1601 -0.8252
19648TIP3    H280360   4.756   6.157   2.912  0.2344  0.7169  1.7123
19649TIP3   OH280361   1.816   4.257   1.165  0.2381 -0.1730 -0.4321
19649TIP3    H180362   1.898   4.241   1.211  1.5662  0.2516 -2.5243
19649TIP3    H280363   1.789   4.172   1.133  1.9229  0.1381 -2.9240
19650TIP3   OH280364   3.736   2.222   0.486 -0.5753 -0.1280  0.3740
19650TIP3    H180365   3.696   2.305   0.461 -1.5321  0.3700  3.2330
19650TIP3    H280366   3.725   2.166   0.409 -1.9180  1.6782 -0.8253
19651TIP3   OH280367   0.817   2.312   1.083 -0.0628  0.1198 -0.2440
19651TIP3    H180368   0.771   2.338   1.003 -0.9384  0.7501  0.4388
19651TIP3    H280369   0.891   2.260   1.053 -0.8080 -0.2880 -1.4269
19652TIP3   OH280370   1.657   6.009   4.771  0.1348  0.0303 -0.7219
19652TIP3    H180371   1.663   6.041   4.681 -1.7292 -1.0961 -1.2939
19652TIP3    H280372   1.652   6.089   4.824  0.6045  0.6945 -1.6476
19653TIP3   OH280373   3.087   1.388  16.432 -0.0578  0.0524 -0.1817
19653TIP3    H180374   3.078   1.483  16.438 -0.1816  0.0611 -0.5204
19653TIP3    H280375   3.178   1.371  16.455 -0.5646  0.0711  2.0509
19654TIP3   OH280376   5.183   5.221   4.533 -0.6830 -0.0743  0.3902
19654TIP3    H180377   5.271   5.246   4.561 -1.1745  3.6417 -0.8670
19654TIP3    H280378   5.125   5.264   4.596 -1.7515 -2.9300  1.5461
19655TIP3   OH280379   6.774   4.943   5.957 -0.0150 -0.1996 -0.4497
19655TIP3    H180380   6.855   4.972   5.998 -0.0310  2.2149 -1.9094
19655TIP3    H280381   6.744   4.871   6.011  2.4312 -0.3299  0.8680
19656TIP3   OH280382   3.553   3.430   4.584  0.3969 -0.0677 -0.1206
19656TIP3    H180383   3.512   3.345   4.568  3.1125 -1.3364 -0.9820
19656TIP3    H280384   3.565   3.468   4.496  1.7323 -0.1441 -0.0011
19657TIP3   OH280385   1.366   6.294  14.667  0.6798 -0.0420  0.7632
19657TIP3    H180386   1.420   6.357  14.621 -0.1334  0.4056  0.3930
19657TIP3    H280387   1.393   6.208  14.634 -0.8827  0.3116 -1.7216
19658TIP3   OH280388   0.757   4.568  16.623 -0.0429  0.0870  0.3686
19658TIP3    H180389   0.781   4.557  16.715 -0.0554 -0.9985  0.2538
19658TIP3    H280390   0.839   4.590  16.579 -0.0644  0.7642  0.6576
19659TIP3   OH280391   0.055   0.570   5.525 -0.4395 -0.3806  0.4452
19659TIP3    H180392   0.090   0.532   5.444 -1.1951  0.3261 -0.2344
19659TIP3    H280393  -0.016   0.511   5.550 -1.3102  0.2912 -0.3573
19660TIP3   OH280394   0.832   4.863  16.702  0.4163 -0.1146 -0.0721
19660TIP3    H180395   0.856   4.892  16.791  0.7381  0.5141 -0.3578
19660TIP3    H280396   0.740   4.887  16.693  0.1905 -0.8112  0.3429
19661TIP3   OH280397   5.736   0.489   3.686 -0.3928  0.2619  0.1850
19661TIP3    H180398   5.733   0.411   3.741 -1.2105 -0.4491 -0.8280
19661TIP3    H280399   5.771   0.458   3.602  1.4438  1.4419  0.4408
19662TIP3   OH280400   5.023   1.077   4.881 -0.0969 -0.1195  0.2186
19662TIP3    H180401   4.996   1.158   4.924  1.7845  0.6268  0.0634
19662TIP3    H280402   5.112   1.062   4.911  1.2783  0.3298 -3.1795
19663TIP3   OH280403   5.431   3.232   3.065  0.0129  0.6412 -0.1215
19663TIP3    H180404   5.450   3.324   3.049  1.0173  0.6517  0.9809
19663TIP3    H280405   5.422   3.194   2.978  1.3460  1.4409 -0.6430
19664TIP3   OH280406   4.447   6.268   3.394  0.3821  0.1295 -0.1087
19664TIP3    H180407   4.394   6.240   3.469  1.3415 -2.6434 -0.3729
19664TIP3    H280408   4.506   6.334   3.430 -0.9691  0.8128  0.9347
19665TIP3   OH280409   5.295   6.347   0.634 -0.1062 -0.1687  1.1435
19665TIP3    H180410   5.282   6.442   0.637 -1.7166 -0.1786 -1.6858
19665TIP3    H280411   5.348   6.332   0.555 -1.0573 -1.6662  0.7299
19666TIP3   OH280412   6.078   1.335   1.768 -0.7325 -0.5243  0.0670
19666TIP3    H180413   6.044   1.273   1.703 -0.2519 -0.9023  0.1733
19666TIP3    H280414   6.026   1.318   1.847 -1.6416  0.2564 -0.3367
19667TIP3   OH280415   0.501   6.239   5.007  0.7002  0.0450  0.3507
19667TIP3    H180416   0.453   6.317   4.979  2.1392  1.2668  1.1875
19667TIP3    H280417   0.563   6.221   4.937  2.0355  1.1415  1.2023
19668TIP3   OH280418   1.895   0.481   3.667 -0.0214  0.2226  0.0430
19668TIP3    H180419   1.972   0.427   3.684 -0.6679 -0.7924 -0.1361
19668TIP3    H280420   1.827   0.444   3.723 -0.4776  0.8804 -0.0624
19669TIP3   OH280421   4.932   2.708   2.524  0.0425  0.3176 -0.1114
19669TIP3    H180422   4.968   2.645   2.587 -1.5771 -0.5548  0.0001
19669TIP3    H280423   4.872   2.762   2.575 -0.7794  0.0408 -0.7587
19670TIP3   OH280424   2.252   1.938   6.228 -0.0522 -0.1533 -0.4521
19670TIP3    H180425   2.288   2.024   6.252  1.4040 -0.9722  0.4012
19670TIP3    H280426   2.322   1.896   6.178 -0.2081 -1.3841  0.3398
19671TIP3   OH280427   5.546   5.286  11.379 -0.2728  0.3718  0.3113
19671TIP3    H180428   5.587   5.221  11.437  3.6992  2.5787  0.3429
19671TIP3    H280429   5.584   5.269  11.293 -1.3452  0.9682 -0.2973
19672TIP3   OH280430   5.123   5.632   4.091 -0.7220 -0.3105 -0.2769
19672TIP3    H180431   5.151   5.620   4.181 -1.5509 -0.2137  0.0028
19672TIP3    H280432   5.093   5.723   4.087  2.0469  0.6452 -1.4225
19673TIP3   OH280433   6.787   6.067  13.362  0.4423 -0.3791 -0.0599
19673TIP3    H180434   6.810   6.004  13.293  0.1010 -1.7294  1.0116
19673TIP3    H280435   6.700   6.098  13.338  1.1094  0.6768 -1.2602
19674TIP3   OH280436   4.737   5.554   2.824 -0.4068 -0.3202  0.0381
19674TIP3    H180437   4.723   5.534   2.917  0.2267  0.5235  0.3239
19674TIP3    H280438   4.818   5.509   2.802 -0.7147 -0.7690 -0.1924
19675TIP3   OH280439   2.743   3.211   3.764  0.3709  0.4935  0.4143
19675TIP3    H180440   2.697   3.135   3.728  1.7766 -0.8556  1.3361
19675TIP3    H280441   2.677   3.256   3.817 -0.1979 -0.7354  0.7849
19676TIP3   OH280442   6.719   6.641   1.498  0.7948  0.2021 -0.0937
19676TIP3    H180443   6.722   6.736   1.485  0.2259  0.1043 -0.9878
19676TIP3    H280444   6.774   6.606   1.427  0.4941 -0.1665 -0.1451
19677TIP3   OH280445   4.422   6.473   4.499 -0.1605  0.3975  0.3792
19677TIP3    H180446   4.416   6.516   4.584 -0.0857  0.4923  0.3361
19677TIP3    H280447   4.332   6.453   4.476 -0.3841  2.1365 -0.4290
19678TIP3   OH280448   5.536   4.878  11.754  0.1068  0.6129  0.4961
19678TIP3    H180449   5.582   4.960  11.776  0.7158 -0.0079  1.6637
19678TIP3    H280450   5.490   4.855  11.835 -0.7675  0.2515 -0.0952
19679TIP3   OH280451   5.869   3.039  12.288 -0.5035 -0.3423  0.0528
19679TIP3    H180452   5.794   2.999  12.331 -1.3992  1.5838  0.3573
19679TIP3    H280453   5.832   3.090  12.216  0.5243  0.3394 -0.0222
19680TIP3   OH280454   5.152   3.121  10.973  0.0526 -0.4713  0.0729
19680TIP3    H180455   5.104   3.098  11.053  0.0377  0.8615  0.4785
19680TIP3    H280456   5.106   3.198  10.940  0.6800 -0.4086 -0.6623
19681TIP3   OH280457   0.256   1.920  12.694  0.3144  0.1498  0.0069
19681TIP3    H180458   0.166   1.925  12.663  0.9534 -0.4743 -2.1631
19681TIP3    H280459   0.309   1.925  12.614  2.2784  1.7902  1.2976
19682TIP3   OH280460   0.179   4.109   5.253 -0.3899  0.2079  0.2239
19682TIP3    H180461   0.181   4.021   5.289 -2.4148 -0.9064 -2.1062
19682TIP3    H280462   0.271   4.131   5.237  0.1193 -1.5987  0.5327
19683TIP3   OH280463   4.861   4.319   0.002  0.1394 -0.1255  0.1446
19683TIP3    H180464   4.865   4.335   0.096  1.1259 -3.4007  0.7630
19683TIP3    H280465   4.948   4.344  -0.030  0.5929 -1.1421  0.5401
19684TIP3   OH280466   3.205   1.891   2.271  0.0607 -0.2715  0.1609
19684TIP3    H180467   3.291   1.891   2.311  0.4703  1.0750 -0.6440
19684TIP3    H280468   3.192   1.981   2.241 -1.2359 -0.6590 -0.5556
19685TIP3   OH280469   1.386   5.083  13.852  0.5334 -0.1407 -0.4139
19685TIP3    H180470   1.383   4.993  13.821  0.1242  0.1391 -1.1989
19685TIP3    H280471   1.469   5.117  13.819  1.4495 -0.6859  1.2134
19686TIP3   OH280472   4.765   4.000   4.168 -0.8009 -0.2362  0.4372
19686TIP3    H180473   4.752   4.087   4.206 -0.0273  0.7073 -1.3494
19686TIP3    H280474   4.721   4.004   4.083  0.7034 -0.9992 -0.4201
19687TIP3   OH280475   3.299   2.618  12.823 -0.0145 -0.0503  0.0305
19687TIP3    H180476   3.306   2.688  12.888 -1.4499 -0.1434  0.3171
19687TIP3    H280477   3.256   2.546  12.869  0.0648 -0.5675 -0.6819
19688TIP3   OH280478   3.504   1.633  15.340 -0.0778  1.2677  0.1885
19688TIP3    H180479   3.430   1.573  15.347  0.0888  1.0530  0.1420
19688TIP3    H280480   3.505   1.680  15.424 -0.8425  1.9575 -0.1805
19689TIP3   OH280481   4.172   4.746  14.476  0.3679  0.8065 -0.2168
19689TIP3    H180482   4.217   4.827  14.501  1.0691 -0.2704  2.3202
19689TIP3    H280483   4.081   4.761  14.502  0.7268  0.3879  1.3527
19690TIP3   OH280484   2.322   5.560  13.087  1.0372 -0.0503  0.9924
19690TIP3    H180485   2.313   5.547  13.181 -0.1405  1.5310  1.1508
19690TIP3    H280486   2.414   5.545  13.069  1.4277  0.3453  2.5421
19691TIP3   OH280487   1.507   0.115  15.958 -0.2888 -0.7800  0.1949
19691TIP3    H180488   1.573   0.160  16.011  0.0455 -1.3324  0.2514
19691TIP3    H280489   1.555   0.046  15.913 -0.7187 -0.8135 -0.2249
19692TIP3   OH280490   3.599   4.117  14.079  0.0022 -0.1890 -0.5319
19692TIP3    H180491   3.692   4.125  14.054  0.1582 -0.7057 -0.1227
19692TIP3    H280492   3.569   4.208  14.086  0.5785 -0.0104 -0.2881
19693TIP3   OH280493   0.966   1.084   4.722 -0.0269 -0.2777 -0.1599
19693TIP3    H180494   0.927   1.163   4.685  0.0164 -0.5494 -0.8062
19693TIP3    H280495   1.003   1.038   4.646  1.4699 -0.0728  0.4025
19694TIP3   OH280496   1.608   0.412  16.322 -0.1598  0.6850  0.5252
19694TIP3    H180497   1.629   0.321  16.301 -0.5981  0.4742  0.9905
19694TIP3    H280498   1.556   0.442  16.247 -0.5625  0.3541  0.6649
19695TIP3   OH280499   3.022   5.785  13.040  0.0442  0.2665 -0.0247
19695TIP3    H180500   3.021   5.701  13.085 -1.7952  0.4902  0.4241
19695TIP3    H280501   3.075   5.842  13.096  0.4210 -0.3087  0.2032
19696TIP3   OH280502   3.165   2.334  12.290 -0.0823 -0.2893 -0.1160
19696TIP3    H180503   3.079   2.328  12.331  0.1646 -0.1937  0.4335
19696TIP3    H280504   3.219   2.379  12.355  1.3088 -3.4130  1.1149
19697TIP3   OH280505   2.915   4.392  16.016 -0.2494  0.3802 -0.8311
19697TIP3    H180506   2.908   4.300  15.990  1.4269  0.1541 -0.6237
19697TIP3    H280507   2.860   4.440  15.954  0.6910 -0.5318 -2.4375
19698TIP3   OH280508   3.538   3.344  11.284 -0.1253 -0.6241  0.0481
19698TIP3    H180509   3.612   3.348  11.344 -1.5386  0.2727  1.8454
19698TIP3    H280510   3.534   3.252  11.258 -0.5942 -1.5505  2.9670
19699TIP3   OH280511   1.947   3.080   5.416 -0.0999  0.1715 -0.4157
19699TIP3    H180512   2.038   3.105   5.400  0.9653 -1.4317  2.4048
19699TIP3    H280513   1.912   3.152   5.469  0.3967 -0.3904  0.7159
19700TIP3   OH280514   4.034   6.380  15.919 -0.3038  0.5279 -0.1789
19700TIP3    H180515   4.122   6.350  15.898 -0.4849  1.9737 -3.6630
19700TIP3    H280516   3.980   6.301  15.917  0.7049 -0.2315  1.0615
19701TIP3   OH280517   2.377   5.576   3.699 -0.1450 -0.1601 -0.5007
19701TIP3    H180518   2.465   5.577   3.661  0.3000  0.5780  0.4753
19701TIP3    H280519   2.321   5.539   3.631  0.2898  2.5976 -2.5456
19702TIP3   OH280520   1.100   6.183  14.651 -0.2083  0.0937 -0.1208
19702TIP3    H180521   1.185   6.224  14.663 -0.2597  0.3829 -0.6823
19702TIP3    H280522   1.118   6.089  14.645  0.1875  0.2262 -1.1948
19703TIP3   OH280523   0.787   1.923  15.668 -0.0305  0.2466 -0.0965
19703TIP3    H180524   0.842   1.963  15.601 -1.1162  1.3082 -0.3965
19703TIP3    H280525   0.758   1.997  15.722 -0.4418 -0.3975  0.5847
19704TIP3   OH280526   4.551   5.340  13.573  0.2820  0.1733 -0.0001
19704TIP3    H180527   4.545   5.336  13.477 -2.1069  0.2337  0.0796
19704TIP3    H280528   4.481   5.282  13.604  0.9678  0.2032  1.7194
19705TIP3   OH280529   5.357   6.359  11.236  0.3093 -0.7789  0.3513
19705TIP3    H180530   5.308   6.277  11.230  0.4537 -0.7989 -0.7467
19705TIP3    H280531   5.430   6.348  11.175  2.0215 -0.9670  2.2986
19706TIP3   OH280532   0.015   3.405  16.775 -0.4611  0.0304  0.2068
19706TIP3    H180533  -0.005   3.477  16.714  2.0407  0.0631 -0.6923
19706TIP3    H280534  -0.002   3.442  16.862 -0.1500  1.4111 -0.2871
19707TIP3   OH280535   0.790   1.933  11.840 -0.3385 -0.0424 -0.1468
19707TIP3    H180536   0.819   2.023  11.824  0.6363 -0.3938 -0.4330
19707TIP3    H280537   0.783   1.894  11.753  0.8221 -0.7104  0.0395
19708TIP3   OH280538   1.368   5.881   4.157 -0.0243  0.1263 -0.7548
19708TIP3    H180539   1.325   5.802   4.190  0.8514 -1.7199 -3.5614
19708TIP3    H280540   1.457   5.876   4.191 -0.0659  0.0833 -0.6533
19709TIP3   OH280541   5.930   3.800  14.149  0.5190 -0.6097  0.3188
19709TIP3    H180542   5.953   3.891  14.134 -0.3984 -0.6474 -1.5799
19709TIP3    H280543   5.839   3.803  14.180 -0.3977 -0.9061 -2.0611
19710TIP3   OH280544   6.670   1.473   0.402 -0.4646 -0.5695  0.4641
19710TIP3    H180545   6.713   1.481   0.317 -0.9752 -0.7081  0.1915
19710TIP3    H280546   6.581   1.446   0.382 -0.8500  0.2654  0.9942
19711TIP3   OH280547   2.413   3.605   5.845 -0.0339  0.3789  0.6226
19711TIP3    H180548   2.426   3.579   5.937  1.3978 -1.2757  0.0026
19711TIP3    H280549   2.326   3.571   5.823 -0.0676  0.1117  1.1466
19712TIP3   OH280550   1.001   2.595   3.357 -0.0775  0.3977 -0.3149
19712TIP3    H180551   0.925   2.621   3.408 -0.2502  1.5887 -1.1628
19712TIP3    H280552   1.076   2.631   3.405 -0.0025 -0.8746  0.5832
19713TIP3   OH280553   2.418   5.368   6.080 -0.0425 -0.4414 -0.1236
19713TIP3    H180554   2.376   5.368   5.994 -0.6498  2.7469  0.0515
19713TIP3    H280555   2.348   5.340   6.140 -0.3316 -0.3328 -0.4058
19714TIP3   OH280556   6.371   0.748  15.124  0.0573  0.7681  0.4475
19714TIP3    H180557   6.446   0.700  15.088 -2.1755 -0.3693 -3.1141
19714TIP3    H280558   6.382   0.837  15.092 -0.0333  0.6485  0.0883
19715TIP3   OH280559   4.410   1.589   0.607 -0.0495  0.5717  0.5405
19715TIP3    H180560   4.505   1.577   0.609 -0.1978 -0.7222  0.9065
19715TIP3    H280561   4.389   1.626   0.693 -0.2044 -2.2901  1.8416
19716TIP3   OH280562   3.032   4.195   1.772  0.8760 -0.0119  0.0416
19716TIP3    H180563   3.061   4.175   1.861  2.0673 -1.4717 -0.6383
19716TIP3    H280564   2.939   4.173   1.772  0.7407  0.5016  1.0504
19717TIP3   OH280565   0.719   4.986  16.385 -0.8140  0.0888 -0.6524
19717TIP3    H180566   0.798   5.038  16.401 -0.5614 -0.0213 -1.5199
19717TIP3    H280567   0.683   4.970  16.473  0.5768 -0.5764 -0.1858
19718TIP3   OH280568   5.551   2.999  15.382 -0.1333  0.1622 -0.2513
19718TIP3    H180569   5.535   3.082  15.337 -0.1893  0.2696 -0.0346
19718TIP3    H280570   5.561   2.935  15.312  2.6039  0.8089 -0.5390
19719TIP3   OH280571   6.100   6.603  15.271  0.3606  0.4946 -0.2123
19719TIP3    H180572   6.142   6.689  15.279 -0.8544  0.9320  2.4704
19719TIP3    H280573   6.167   6.541  15.300 -0.2860  1.0828  2.8538
19720TIP3   OH280574   3.541   3.987  14.962  0.0399  0.3787  0.4322
19720TIP3    H180575   3.529   4.015  15.053  1.2131  2.3681  0.0377
19720TIP3    H280576   3.635   3.972  14.954 -0.0454  0.3005 -0.4645
19721TIP3   OH280577   2.288   0.187  15.590 -0.2067 -0.4708  0.2851
19721TIP3    H180578   2.329   0.129  15.654  0.8397 -2.4355 -1.9991
19721TIP3    H280579   2.316   0.275  15.616  0.6394 -1.2332  2.1637
19722TIP3   OH280580   3.776   3.745  11.741  0.6970  0.6141 -0.0094
19722TIP3    H180581   3.805   3.795  11.818  0.0659 -0.8123  1.2171
19722TIP3    H280582   3.702   3.794  11.706 -0.0774  0.4492  1.3210
19723TIP3   OH280583   4.416   2.156  10.973 -0.1629  0.5446  0.0206
19723TIP3    H180584   4.354   2.154  10.900 -0.2983  0.1121  0.1449
19723TIP3    H280585   4.448   2.066  10.980  3.2116  1.3274 -2.3788
19724TIP3   OH280586   5.826   4.504  11.717 -0.2689  0.1132 -0.2215
19724TIP3    H180587   5.782   4.419  11.721 -0.9341  0.4233 -0.7213
19724TIP3    H280588   5.762   4.562  11.675  1.0776  0.2723 -2.2036
19725TIP3   OH280589   2.136   4.551  14.166  0.0661  0.1135  0.0154
19725TIP3    H180590   2.117   4.613  14.096  0.3642  0.0203 -0.1486
19725TIP3    H280591   2.051   4.515  14.190 -0.0194  0.0383 -0.4010
19726TIP3   OH280592   4.509   0.006  15.207 -0.0954 -0.2831 -0.4752
19726TIP3    H180593   4.416   0.019  15.226 -0.1654 -0.0346 -0.9655
19726TIP3    H280594   4.511  -0.068  15.147 -0.3101  1.8139 -3.2790
19727TIP3   OH280595   6.197   1.054   4.457 -0.0741  0.2312  0.1936
19727TIP3    H180596   6.216   1.083   4.546  0.1430 -1.2314  0.6474
19727TIP3    H280597   6.145   1.125   4.419 -1.4080  0.2658  1.9659
19728TIP3   OH280598   0.852   0.622   1.887 -0.2663 -0.2464 -0.2448
19728TIP3    H180599   0.777   0.655   1.837 -0.4240 -0.0298  0.1261
19728TIP3    H280600   0.925   0.625   1.826 -0.4015  0.2580 -0.3821
19729TIP3   OH280601   6.669   0.622   1.341 -0.4792 -0.1837 -0.0383
19729TIP3    H180602   6.593   0.565   1.349 -1.1416  0.5370 -1.0662
19729TIP3    H280603   6.635   0.703   1.305  0.7797  0.1652 -0.4934
19730TIP3   OH280604   2.174   4.866   6.505 -0.1446  0.6182 -0.4894
19730TIP3    H180605   2.245   4.926   6.480  0.8681  0.0365  0.8805
19730TIP3    H280606   2.217   4.782   6.520 -0.6314  0.8175  2.8342
19731TIP3   OH280607   1.873   0.895   4.387 -0.0623 -0.1401 -0.4132
19731TIP3    H180608   1.799   0.945   4.351 -1.6169 -2.0463 -0.0256
19731TIP3    H280609   1.854   0.805   4.363  2.7507 -0.5881 -1.2333
19732TIP3   OH280610   1.350   2.232   4.629 -0.3611  0.3567 -0.3802
19732TIP3    H180611   1.297   2.177   4.571  0.0877  0.1649 -0.6166
19732TIP3    H280612   1.314   2.217   4.716  0.7909 -1.6184 -0.1851
19733TIP3   OH280613   5.984   5.587  13.875  0.3601 -0.1817 -0.1179
19733TIP3    H180614   5.908   5.530  13.862  0.9467 -0.9198 -0.3945
19733TIP3    H280615   5.978   5.651  13.803 -0.8108  0.7164  0.7257
19734TIP3   OH280616   5.889   2.363  13.225  0.0286 -0.5482 -0.4068
19734TIP3    H180617   5.893   2.397  13.136 -0.2149  1.0877  0.1626
19734TIP3    H280618   5.833   2.286  13.219 -0.5744 -0.0479 -1.5497
19735TIP3   OH280619   4.855   3.056  15.941  0.0192  0.6055  0.1979
19735TIP3    H180620   4.869   3.120  15.871  0.9249  0.1451 -0.0593
19735TIP3    H280621   4.840   2.974  15.895 -0.5963  0.5229  0.5356
19736TIP3   OH280622   6.082   4.805   3.077 -0.4043 -0.2590 -0.0639
19736TIP3    H180623   6.122   4.739   3.021  1.3297 -0.0007  0.8230
19736TIP3    H280624   6.151   4.831   3.138 -0.7666  2.9686 -0.8632
19737TIP3   OH280625   2.627   6.121   6.281  0.2084 -0.2773 -0.1404
19737TIP3    H180626   2.560   6.181   6.313 -0.4441  0.3079 -2.4474
19737TIP3    H280627   2.709   6.157   6.314 -0.3240  0.8984 -0.0520
19738TIP3   OH280628   2.732   1.190   0.819 -0.2687 -0.1889  0.1972
19738TIP3    H180629   2.650   1.164   0.861 -0.1838  0.6816  0.9326
19738TIP3    H280630   2.705   1.242   0.744 -0.4221 -1.7936 -0.9213
19739TIP3   OH280631   3.126   4.596   5.784  0.2902 -0.2492  0.3203
19739TIP3    H180632   3.059   4.542   5.826  0.4355  0.3672  1.3789
19739TIP3    H280633   3.201   4.537   5.773 -0.5033 -1.0406 -1.1893
19740TIP3   OH280634   0.921   1.100  14.386 -0.0792  0.5444  0.0273
19740TIP3    H180635   0.942   1.007  14.377  0.2717  0.6440 -0.1845
19740TIP3    H280636   0.866   1.120  14.310 -1.9836  0.0029  1.1802
19741TIP3   OH280637   0.537   1.222  14.753 -0.2274 -0.2271  0.4193
19741TIP3    H180638   0.528   1.236  14.848 -2.3999 -1.9733  0.5477
19741TIP3    H280639   0.567   1.306  14.719 -1.4747  1.1166  2.4176
19742TIP3   OH280640   0.989   6.049   5.967  0.1561  0.6412  0.0892
19742TIP3    H180641   0.982   6.002   6.050 -0.2330 -1.4827 -1.0815
19742TIP3    H280642   1.071   6.097   5.973 -0.1126  0.9384  1.8903
19743TIP3   OH280643   3.894   5.156   4.274  0.2884 -0.6550  0.0862
19743TIP3    H180644   3.946   5.237   4.280 -0.2765 -0.2674 -0.1885
19743TIP3    H280645   3.826   5.176   4.210 -1.1872 -0.5944  1.5985
19744TIP3   OH280646   6.005   1.240  14.869  0.1571 -0.0591  0.2073
19744TIP3    H180647   5.969   1.291  14.797  0.1982 -0.8841 -0.4229
19744TIP3    H280648   6.094   1.273  14.879  0.1182  0.1338 -0.0598
19745TIP3   OH280649   3.755   0.766  15.922  0.9963  0.0909 -0.3032
19745TIP3    H180650   3.726   0.675  15.930  0.0690  0.0976 -2.7661
19745TIP3    H280651   3.737   0.804  16.008 -3.5096 -0.7538 -0.6385
19746TIP3   OH280652   5.377   2.643   0.872 -0.0115  0.8713  0.6204
19746TIP3    H180653   5.412   2.554   0.864 -0.4632  0.5979  1.5296
19746TIP3    H280654   5.435   2.686   0.934  1.2361  1.7874 -1.0818
19747TIP3   OH280655   0.645   4.426   2.611 -0.6134  0.1014  0.5182
19747TIP3    H180656   0.712   4.469   2.558 -0.6251  0.8220  1.0783
19747TIP3    H280657   0.583   4.390   2.547 -0.1205  0.1341  0.0201
19748TIP3   OH280658   6.359   3.689  12.906  0.4639  0.5114 -0.2717
19748TIP3    H180659   6.436   3.638  12.882  0.3030  0.1134  0.0468
19748TIP3    H280660   6.387   3.740  12.982  0.4798  0.5215 -0.2845
19749TIP3   OH280661   1.952   1.004   3.097  0.6749  0.1779 -0.1889
19749TIP3    H180662   2.038   1.000   3.056  0.8950  1.8854  0.0164
19749TIP3    H280663   1.890   0.990   3.026  1.0872 -2.1951 -0.1567
19750TIP3   OH280664   1.833   1.493   2.821 -0.3813  0.1262  0.3594
19750TIP3    H180665   1.842   1.464   2.730  0.9430 -0.3721  0.6360
19750TIP3    H280666   1.741   1.520   2.828 -0.1915  1.4153 -1.4699
19751TIP3   OH280667   3.629   5.574  13.887 -0.2360 -0.1886  0.2543
19751TIP3    H180668   3.705   5.520  13.907  0.6617  0.9262 -0.0078
19751TIP3    H280669   3.617   5.628  13.965 -1.4753 -1.1285  0.7416
19752TIP3   OH280670   4.828   4.958   3.839  0.6926 -0.5793  0.2395
19752TIP3    H180671   4.819   5.029   3.775 -0.2257 -0.1123  0.8636
19752TIP3    H280672   4.895   4.901   3.802  1.8221  0.8713 -0.0389
19753TIP3   OH280673   1.270   0.488  15.447 -0.1982  0.5205  0.2794
19753TIP3    H180674   1.362   0.511  15.430 -0.1304 -0.2624 -0.4481
19753TIP3    H280675   1.236   0.461  15.362 -0.6189 -0.8372  0.8628
19754TIP3   OH280676   2.844   4.699   5.615 -0.0692  0.8937 -0.8042
19754TIP3    H180677   2.926   4.682   5.661 -1.0905  0.0599  0.8072
19754TIP3    H280678   2.867   4.765   5.550  1.4869  2.1379  0.8751
19755TIP3   OH280679   0.931   1.686  15.930 -0.1425  0.1529  0.4016
19755TIP3    H180680   0.900   1.707  16.018 -0.2598  0.4579  0.2911
19755TIP3    H280681   0.979   1.604  15.939 -0.6343 -0.1130  0.6535
19756TIP3   OH280682   0.946   1.529  12.845 -0.0154  0.4253  0.2026
19756TIP3    H180683   0.992   1.605  12.880  1.4994 -1.0921  1.6875
19756TIP3    H280684   1.013   1.462  12.837 -1.7206 -1.5385  1.3155
19757TIP3   OH280685   3.699   5.179   3.219 -0.6408 -0.1134 -0.1487
19757TIP3    H180686   3.681   5.108   3.282 -0.0238  0.3051  0.5085
19757TIP3    H280687   3.769   5.230   3.260  0.2652 -0.2292 -1.4970
19758TIP3   OH280688   1.968   1.342   1.033 -0.0614  0.3041 -0.2011
19758TIP3    H180689   2.061   1.320   1.028  0.3407  1.9428 -0.5174
19758TIP3    H280690   1.929   1.297   0.958  0.7697  0.8711 -1.0035
19759TIP3   OH280691   2.201   0.011   4.001  0.0081  0.4705 -0.0627
19759TIP3    H180692   2.281  -0.041   4.009 -1.6219 -2.2005  0.2905
19759TIP3    H280693   2.185   0.046   4.088 -0.4212 -0.9793  0.4603
19760TIP3   OH280694   2.164   3.022   2.182  0.0999 -0.1505 -0.2806
19760TIP3    H180695   2.232   3.016   2.250  1.7518  0.9940 -1.7184
19760TIP3    H280696   2.082   3.013   2.229  1.2246 -1.3159  1.6037
19761TIP3   OH280697   1.704   0.045  12.376 -0.2417 -0.0635 -0.1482
19761TIP3    H180698   1.648   0.120  12.359  1.3754  1.3295  0.3847
19761TIP3    H280699   1.659  -0.005  12.444 -0.5216  1.3953  0.7687
19762TIP3   OH280700   0.706   4.416  12.461  0.5614 -0.2036 -0.6574
19762TIP3    H180701   0.781   4.409  12.402  0.8090 -2.3062 -0.2072
19762TIP3    H280702   0.708   4.506  12.492  1.4482  0.4739 -2.5062
19763TIP3   OH280703   1.079   6.630   4.935 -0.0656 -0.6439  0.2116
19763TIP3    H180704   0.999   6.670   4.970  0.0924  1.1132 -1.2804
19763TIP3    H280705   1.104   6.686   4.862  2.2086 -1.5034  0.2450
19764TIP3   OH280706   5.254   3.061  15.788 -0.7467 -0.2164 -0.0209
19764TIP3    H180707   5.246   3.139  15.842  3.0350  0.8461 -0.7266
19764TIP3    H280708   5.204   2.994  15.835 -0.6302  1.5447  2.8460
19765TIP3   OH280709   3.291   4.307  14.213 -0.0758  0.2183 -0.5353
19765TIP3    H180710   3.364   4.336  14.159 -0.8244 -1.8905 -2.8769
19765TIP3    H280711   3.217   4.304  14.154 -0.8847 -2.5246  0.4431
19766TIP3   OH280712   1.128   2.339   6.284 -0.2254 -0.0242 -0.0408
19766TIP3    H180713   1.037   2.320   6.307 -0.8563  1.6082 -0.9981
19766TIP3    H280714   1.155   2.406   6.347  0.0654  0.0364 -0.2297
19767TIP3   OH280715   0.402   4.044  12.442 -0.1227  0.0740 -0.0691
19767TIP3    H180716   0.449   4.097  12.506 -0.0027 -0.8619  0.6547
19767TIP3    H280717   0.458   3.967  12.429 -0.5011 -0.1004 -0.7358
19768TIP3   OH280718   5.326   4.517  13.810  0.8188  0.2878  0.4899
19768TIP3    H180719   5.234   4.498  13.795  1.8190 -2.6998 -3.7050
19768TIP3    H280720   5.338   4.606  13.777 -0.6086  1.0802  1.9545
19769TIP3   OH280721   2.859   5.913   3.790  0.1855  0.1237 -0.4109
19769TIP3    H180722   2.831   5.852   3.723  0.5876 -1.9405  1.1953
19769TIP3    H280723   2.954   5.900   3.798  0.2000  0.5643  0.3217
19770TIP3   OH280724   5.765   2.147   5.639  0.6039  0.1839 -0.0340
19770TIP3    H180725   5.777   2.223   5.582 -1.8297  0.8501  0.2115
19770TIP3    H280726   5.847   2.140   5.687  1.8115  1.1090 -1.8370
19771TIP3   OH280727   0.548   0.473  10.504 -0.0484 -0.1139  0.0336
19771TIP3    H180728   0.609   0.433  10.442 -0.4376  0.2953 -0.6356
19771TIP3    H280729   0.481   0.514  10.448 -0.0311  0.8609  0.7110
19772TIP3   OH280730   0.063   6.776   4.141  0.5515 -0.5069 -0.2557
19772TIP3    H180731   0.036   6.779   4.233 -1.0668  2.0628 -0.7215
19772TIP3    H280732   0.116   6.855   4.129 -0.6784  0.1259 -1.8785
19773TIP3   OH280733   1.656   3.492   3.329 -0.1043  0.1535 -0.3242
19773TIP3    H180734   1.569   3.516   3.298  0.0222  0.0152 -0.7956
19773TIP3    H280735   1.707   3.573   3.323 -0.3821  0.4024  0.6116
19774TIP3   OH280736   1.462   0.201   3.978  0.3547  0.6640  0.4160
19774TIP3    H180737   1.377   0.191   4.021 -0.4512 -1.5752 -1.4886
19774TIP3    H280738   1.520   0.140   4.024  0.0649 -0.1207 -0.2309
19775TIP3   OH280739   2.115   2.809   2.816  0.0298 -0.4320 -0.0153
19775TIP3    H180740   2.148   2.825   2.728 -0.5163 -1.3781 -0.4119
19775TIP3    H280741   2.128   2.891   2.862  0.2793  0.0903 -0.9933
19776TIP3   OH280742   3.368   3.588  12.522  0.5704 -0.1901  0.0242
19776TIP3    H180743   3.418   3.543  12.454  2.1135  0.0110  0.9567
19776TIP3    H280744   3.384   3.681  12.506 -1.4681  0.0132 -1.0635
19777TIP3   OH280745   2.810   1.497   1.281  0.1309  0.1524  0.0139
19777TIP3    H180746   2.843   1.580   1.245  1.1975 -0.4802 -0.5030
19777TIP3    H280747   2.817   1.435   1.209 -0.5116 -0.4369  0.4455
19778TIP3   OH280748   2.726   0.446   4.391 -0.4363 -0.2791 -0.2933
19778TIP3    H180749   2.656   0.457   4.327 -3.8399 -0.5425  3.0394
19778TIP3    H280750   2.714   0.519   4.452  2.3451 -0.2871  0.3895
19779TIP3   OH280751   3.535   5.884   0.639 -0.2977  0.2200 -0.1452
19779TIP3    H180752   3.604   5.936   0.598 -2.2253  1.9553 -1.4454
19779TIP3    H280753   3.532   5.803   0.587  0.3411  0.4055 -0.4789
19780TIP3   OH280754   2.598   0.732   5.517 -0.3179 -0.3182  0.1901
19780TIP3    H180755   2.508   0.760   5.537  0.5492  1.8998  1.2888
19780TIP3    H280756   2.653   0.784   5.575  1.7226 -1.4466 -0.6362
19781TIP3   OH280757   0.512   5.402  11.986  0.4870 -0.2321  0.7998
19781TIP3    H180758   0.487   5.348  11.911 -0.6039  0.7176  0.4546
19781TIP3    H280759   0.578   5.461  11.952 -1.5348  1.6635 -0.0443
19782TIP3   OH280760   3.053   6.294   1.355 -0.3704 -0.2196  0.3035
19782TIP3    H180761   3.063   6.368   1.295 -1.8038  1.3710  1.9268
19782TIP3    H280762   3.075   6.329   1.441 -0.3748 -1.8879  1.0186
19783TIP3   OH280763   2.918   5.706  12.051  0.0836  0.0638  0.4938
19783TIP3    H180764   2.931   5.638  12.117  0.6288  0.9174  1.2882
19783TIP3    H280765   2.914   5.788  12.101 -1.3043  0.5623 -0.3666
19784TIP3   OH280766   0.488   0.584   3.381 -0.2632  0.4973  0.0071
19784TIP3    H180767   0.502   0.573   3.475  0.1989  0.3421 -0.0760
19784TIP3    H280768   0.562   0.637   3.351  0.1052 -0.2350 -0.4220
19785TIP3   OH280769   4.176   1.977  15.515  0.1418  0.2829 -0.3328
19785TIP3    H180770   4.268   1.952  15.507  0.2499  0.9371 -1.4459
19785TIP3    H280771   4.139   1.956  15.430 -0.4306  1.1940 -0.3166
19786TIP3   OH280772   2.128   4.703   1.349  0.7650 -0.5088  0.1931
19786TIP3    H180773   2.090   4.741   1.429  0.8642 -0.1779  0.0858
19786TIP3    H280774   2.183   4.631   1.380 -0.6278 -1.5782  0.2969
19787TIP3   OH280775   4.304   4.526   3.061  0.3175 -0.1455 -0.4596
19787TIP3    H180776   4.260   4.509   2.978  0.4375  3.0539 -1.3380
19787TIP3    H280777   4.392   4.555   3.036  0.2089  1.2904  0.6975
19788TIP3   OH280778   3.528   0.094  16.063  0.0586  0.3910 -0.2805
19788TIP3    H180779   3.465   0.155  16.025  1.2193  0.6999 -1.7869
19788TIP3    H280780   3.601   0.092  16.001  0.5634 -1.6639  0.2902
19789TIP3   OH280781   3.707   2.837   4.855 -0.3209  0.3145 -0.2629
19789TIP3    H180782   3.682   2.929   4.863  0.6098  0.6158 -0.7389
19789TIP3    H280783   3.802   2.836   4.865 -0.4337 -0.7582  1.0178
19790TIP3   OH280784   4.722   0.846  11.346  0.4248 -0.5418  0.6355
19790TIP3    H180785   4.765   0.927  11.376  1.9591 -1.1944  0.2713
19790TIP3    H280786   4.629   0.860  11.366  0.7198  1.1181  1.0047
19791TIP3   OH280787   0.678   3.461   0.531  0.3964 -0.0227  0.5470
19791TIP3    H180788   0.610   3.495   0.589  0.6404 -0.7099  1.2558
19791TIP3    H280789   0.658   3.499   0.446 -1.4700 -0.9719  0.5004
19792TIP3   OH280790   6.100   0.066  14.593 -0.3171 -0.0786  0.3149
19792TIP3    H180791   6.094   0.013  14.672 -0.9263  2.3660  2.0337
19792TIP3    H280792   6.015   0.057  14.551 -0.6774  0.0887  0.9925
19793TIP3   OH280793   4.523   4.993   4.502 -0.3305  0.6201  0.0436
19793TIP3    H180794   4.483   5.001   4.415 -0.0827 -0.4965 -0.1931
19793TIP3    H280795   4.612   5.027   4.491 -0.3526  0.6294 -0.1116
19794TIP3   OH280796   3.302   2.429  16.059 -0.0076  0.6404 -0.2552
19794TIP3    H180797   3.248   2.389  16.127  1.6128 -3.1779 -0.9382
19794TIP3    H280798   3.370   2.476  16.107  1.4859 -2.5070  1.0238
19795TIP3   OH280799   0.010   0.384   4.284  0.9394 -0.1656  0.1568
19795TIP3    H180800  -0.061   0.352   4.227 -0.5707  2.6108  0.2863
19795TIP3    H280801   0.075   0.315   4.282 -0.4357 -1.5558 -2.4518
19796TIP3   OH280802   5.196   0.902   0.311 -0.5819 -0.1455  0.5370
19796TIP3    H180803   5.107   0.903   0.345 -0.2511 -0.2424  1.4468
19796TIP3    H280804   5.231   0.988   0.332 -0.9767  0.5156 -1.3128
19797TIP3   OH280805   0.051   6.135   5.242  0.0341 -0.1429  0.2831
19797TIP3    H180806   0.085   6.143   5.153 -1.2400  0.9810 -0.1441
19797TIP3    H280807  -0.008   6.210   5.252  0.5702  0.0852  2.2734
19798TIP3   OH280808   5.154   5.482   3.501 -0.6944 -0.7166  0.4500
19798TIP3    H180809   5.231   5.426   3.486 -0.4235 -0.0757 -0.7111
19798TIP3    H280810   5.118   5.451   3.584  1.9853  0.3041  2.1317
19799TIP3   OH280811   6.331   0.448   0.219  0.4519  0.4188 -0.2359
19799TIP3    H180812   6.255   0.440   0.163 -0.5149 -1.7872  1.2420
19799TIP3    H280813   6.381   0.367   0.204  1.3936  0.8758  0.3396
19800TIP3   OH280814   5.184   3.365  12.794  0.1285 -0.1724 -0.2867
19800TIP3    H180815   5.211   3.453  12.769 -0.8622  0.6683  1.4016
19800TIP3    H280816   5.125   3.337  12.723 -0.4023  0.9795 -0.3222
19801TIP3   OH280817   5.733   0.265  16.075 -0.5179  0.2856 -0.5551
19801TIP3    H180818   5.763   0.323  16.004  1.3103  0.6046  0.4052
19801TIP3    H280819   5.711   0.324  16.147  0.0551 -0.1173 -0.0303
19802TIP3   OH280820   2.710   4.417  12.049  0.3061  0.1935  0.6005
19802TIP3    H180821   2.646   4.411  12.120  0.0666 -0.0151  0.3697
19802TIP3    H280822   2.782   4.468  12.086  0.3853 -0.2942  1.1394
19803TIP3   OH280823   1.505   4.588   4.377  0.1586  0.1225  0.8377
19803TIP3    H180824   1.528   4.614   4.287 -0.4223 -1.1593  0.3008
19803TIP3    H280825   1.589   4.565   4.417  0.2198 -1.4610 -0.1087
19804TIP3   OH280826   1.959   5.096  16.742 -0.0397  0.1940  0.3701
19804TIP3    H180827   2.042   5.114  16.786  0.5373 -5.8684  2.6702
19804TIP3    H280828   1.981   5.094  16.649  1.7596  0.9513  0.7411
19805TIP3   OH280829   3.907   3.698  13.908 -0.0541  0.1709 -0.1999
19805TIP3    H180830   3.973   3.760  13.938  0.1325  0.5803 -1.3816
19805TIP3    H280831   3.891   3.641  13.983 -0.8281  2.1131  1.1939
19806TIP3   OH280832   5.585   1.782  16.593 -0.1726  0.4742  0.0287
19806TIP3    H180833   5.573   1.825  16.509 -1.6139  1.7914  0.8418
19806TIP3    H280834   5.504   1.732  16.607  0.4869 -0.5834  0.1751
19807TIP3   OH280835   6.556   4.063   5.120 -0.3935 -0.1354  0.5124
19807TIP3    H180836   6.550   3.991   5.183 -0.1703 -0.9103 -0.3172
19807TIP3    H280837   6.602   4.024   5.045  0.6742  1.1685  0.4547
19808TIP3   OH280838   1.310   6.782   4.085  0.0564  0.1064  0.2967
19808TIP3    H180839   1.327   6.705   4.030  0.2145 -0.7040  1.4444
19808TIP3    H280840   1.221   6.809   4.060 -0.4030 -1.0679  0.5636
19809TIP3   OH280841   2.709   2.788   0.902  0.3446  0.6668 -0.0423
19809TIP3    H180842   2.629   2.814   0.855  1.4187  0.5374 -2.0546
19809TIP3    H280843   2.696   2.696   0.923  0.0755  0.5517 -0.6750
19810TIP3   OH280844   0.680   6.264   0.154 -0.0451  0.5567 -0.3265
19810TIP3    H180845   0.661   6.342   0.207 -2.2893 -0.2883  0.2273
19810TIP3    H280846   0.752   6.221   0.200 -2.2362 -0.4198  2.4856
19811TIP3   OH280847   6.588   0.018   0.975  0.3957 -0.5366  0.5626
19811TIP3    H180848   6.602   0.027   0.880  0.7217 -0.1813  0.6437
19811TIP3    H280849   6.675   0.029   1.013  0.2193 -0.3962  0.9233
19812TIP3   OH280850   2.143   2.356   0.177 -0.0212  0.9175  0.1642
19812TIP3    H180851   2.064   2.410   0.173 -0.4804  0.3010  0.7015
19812TIP3    H280852   2.187   2.372   0.094  0.3082  2.7859  0.6460
19813TIP3   OH280853   6.511   0.792  10.857 -0.5079 -0.1505  0.3072
19813TIP3    H180854   6.448   0.792  10.785 -0.5106 -0.4173  0.3100
19813TIP3    H280855   6.585   0.843  10.824 -0.2603 -0.7718 -0.0998
19814TIP3   OH280856   1.920   6.215   3.712  0.0086 -0.3037 -0.2540
19814TIP3    H180857   1.839   6.244   3.754  1.4045  2.7607  0.5828
19814TIP3    H280858   1.931   6.274   3.637  1.0340 -1.2615 -0.8941
19815TIP3   OH280859   1.325   0.616  14.315 -0.1615  0.0249  0.1573
19815TIP3    H180860   1.384   0.573  14.253  0.5446 -1.3306  1.7095
19815TIP3    H280861   1.329   0.709  14.291  0.8597 -0.3293 -1.1747
19816TIP3   OH280862   1.557   2.013  16.356  0.1382  0.2904  0.0635
19816TIP3    H180863   1.478   2.044  16.401 -0.3783 -0.3178 -0.4127
19816TIP3    H280864   1.529   1.935  16.310  1.3665 -0.7696  1.0402
19817TIP3   OH280865   3.430   1.255  15.430 -0.8805 -0.2646  0.0514
19817TIP3    H180866   3.476   1.218  15.354  0.6077 -0.2602  0.9314
19817TIP3    H280867   3.394   1.178  15.475 -1.8310 -0.2642 -0.6587
19818TIP3   OH280868   4.587   3.829   0.105 -0.0386  0.3273  0.0372
19818TIP3    H180869   4.495   3.822   0.131 -0.1743 -0.3859 -0.5936
19818TIP3    H280870   4.591   3.785   0.020  0.8463  0.5473 -0.0429
19819TIP3   OH280871   2.290   3.052  15.233 -0.5033  0.0139  0.2596
19819TIP3    H180872   2.377   3.080  15.261 -0.4961  0.0490  0.2033
19819TIP3    H280873   2.306   2.984  15.168 -0.5283 -1.9690  2.2165
19820TIP3   OH280874   4.067   3.805   5.215  0.1305  0.5994 -0.0536
19820TIP3    H180875   4.133   3.828   5.281 -0.2334  1.4865  0.0181
19820TIP3    H280876   4.040   3.889   5.178  0.2563  0.1212 -1.2739
19821TIP3   OH280877   5.341   0.902   0.090  0.0413  0.2118  0.1138
19821TIP3    H180878   5.368   0.810   0.086  0.2184  0.2969 -0.6204
19821TIP3    H280879   5.275   0.903   0.160  0.3585 -0.3892  0.4329
19822TIP3   OH280880   6.257   2.010  12.948  0.1356  0.3307  0.3102
19822TIP3    H180881   6.218   2.095  12.928 -0.7305 -0.2246 -0.5156
19822TIP3    H280882   6.351   2.023  12.936 -0.0368  1.0155 -0.4602
19823TIP3   OH280883   2.259   2.281   3.382 -0.3721 -0.4489  0.3215
19823TIP3    H180884   2.177   2.237   3.405 -0.8649 -1.1315 -2.3507
19823TIP3    H280885   2.318   2.263   3.455 -1.6480 -2.6269  0.8928
19824TIP3   OH280886   1.060   5.079   4.341  0.2757 -0.0122  0.7255
19824TIP3    H180887   1.063   5.011   4.409 -3.0056  0.5376  1.5780
19824TIP3    H280888   1.088   5.159   4.386  0.2478 -0.0515  0.8135
19825TIP3   OH280889   1.467   3.962   1.161  0.0602 -0.5845  0.3428
19825TIP3    H180890   1.480   4.049   1.122 -2.9072  0.2547  1.0031
19825TIP3    H280891   1.391   3.926   1.115  0.8908 -2.6536  0.4644
19826TIP3   OH280892   2.499   3.622   6.109  0.2506  0.2197 -0.2042
19826TIP3    H180893   2.567   3.685   6.132 -0.6930  1.9665 -1.8756
19826TIP3    H280894   2.449   3.610   6.190  0.9380  0.9843  0.3560
19827TIP3   OH280895   5.743   5.361   3.583  0.1410 -0.1361 -0.1097
19827TIP3    H180896   5.808   5.404   3.637 -0.4061 -0.0271  0.4793
19827TIP3    H280897   5.712   5.429   3.523 -2.2009  0.9606  2.1592
19828TIP3   OH280898   2.553   0.237  15.774 -0.0376 -0.0452  0.1498
19828TIP3    H180899   2.486   0.281  15.828 -0.0931 -0.5538  0.5077
19828TIP3    H280900   2.579   0.161  15.827  0.7048  0.0587 -0.0650
19829TIP3   OH280901   0.378   4.906  16.787  0.1362 -0.2647 -0.2611
19829TIP3    H180902   0.418   4.943  16.866 -3.0550  0.5074  1.1575
19829TIP3    H280903   0.383   4.811  16.800 -2.3611 -0.1983  2.1670
19830TIP3   OH280904   5.393   0.791   6.231 -0.0937 -0.2487 -0.2026
19830TIP3    H180905   5.398   0.860   6.166  1.2571 -2.2609 -2.4058
19830TIP3    H280906   5.389   0.710   6.179 -1.8026 -1.8547  2.2186
19831TIP3   OH280907   1.271   5.405   0.689  0.2161  0.0145  0.2873
19831TIP3    H180908   1.260   5.310   0.698  1.4935 -0.2896 -0.8779
19831TIP3    H280909   1.345   5.414   0.629 -1.4243  1.7452 -1.6007
19832TIP3   OH280910   3.596   6.273   0.533 -0.0200 -0.2069  0.7836
19832TIP3    H180911   3.577   6.237   0.446  0.3413  1.1630  0.0941
19832TIP3    H280912   3.517   6.256   0.584 -0.5936 -0.2540 -0.0940
19833TIP3   OH280913   0.443   3.619   1.909  0.1640  0.3393  0.5513
19833TIP3    H180914   0.459   3.546   1.969 -0.3674 -0.2640 -0.0243
19833TIP3    H280915   0.353   3.606   1.879  0.9986 -0.5258 -1.8766
19834TIP3   OH280916   6.062   3.666   6.416 -0.1891  0.0287 -0.5069
19834TIP3    H180917   6.113   3.591   6.387  0.1816  0.5975 -1.3532
19834TIP3    H280918   6.016   3.696   6.338  0.2734  1.1459 -0.3691
19835TIP3   OH280919   1.366   6.778   6.118  0.1222 -0.4495 -0.2723
19835TIP3    H180920   1.334   6.867   6.100 -3.7970 -2.1004 -2.8433
19835TIP3    H280921   1.371   6.774   6.213 -2.0301  1.8470  0.0531
19836TIP3   OH280922   0.768   1.060   3.053 -0.0417 -0.1349 -0.1704
19836TIP3    H180923   0.833   1.002   3.013  0.2950  1.0200 -1.3594
19836TIP3    H280924   0.689   1.047   3.001 -1.4322 -2.8545  2.3199
19837TIP3   OH280925   1.900   5.764   5.374  0.0366 -0.5765 -0.4240
19837TIP3    H180926   1.857   5.791   5.293  0.0593  0.2522 -0.1689
19837TIP3    H280927   1.848   5.689   5.404  0.6162 -1.5449 -1.7050
19838TIP3   OH280928   0.628   3.336   4.361 -0.3436  0.5009  0.4155
19838TIP3    H180929   0.658   3.409   4.307  0.6606 -0.9558 -1.0912
19838TIP3    H280930   0.625   3.261   4.301 -0.0022 -1.0137  2.1897
19839TIP3   OH280931   3.135   0.704   0.908 -0.4601  0.2837 -0.1647
19839TIP3    H180932   3.188   0.650   0.849 -0.2965  0.7448 -0.4415
19839TIP3    H280933   3.044   0.682   0.885 -0.4473 -1.9717  1.6308
19840TIP3   OH280934   2.863   5.445  16.272  0.2133 -0.2491 -0.2012
19840TIP3    H180935   2.844   5.455  16.179  1.0810 -0.5551 -0.4149
19840TIP3    H280936   2.929   5.376  16.277  0.9417  0.4805  0.5602
19841TIP3   OH280937   4.789   4.352   3.497 -0.4693 -0.4135  0.2310
19841TIP3    H180938   4.777   4.310   3.412  2.1418  0.5587 -0.7450
19841TIP3    H280939   4.879   4.330   3.521 -1.1902 -0.7724  2.8443
19842TIP3   OH280940   5.300   2.644  14.969 -0.8591  0.4799 -0.3465
19842TIP3    H180941   5.241   2.574  14.997  0.8434 -1.5191 -1.4487
19842TIP3    H280942   5.378   2.633  15.024  0.3745 -0.0775 -2.1305
19843TIP3   OH280943   3.225   3.841   0.362  0.1839 -0.1865  0.0911
19843TIP3    H180944   3.268   3.816   0.444 -1.1190  0.3436  0.9828
19843TIP3    H280945   3.277   3.914   0.330  1.5792 -1.3203 -0.3684
19844TIP3   OH280946   6.297   5.989   2.937 -0.0252  0.2908 -0.2170
19844TIP3    H180947   6.348   6.056   2.983  0.1710 -0.0698  0.0945
19844TIP3    H280948   6.361   5.938   2.889 -0.2727  0.9285 -1.2483
19845TIP3   OH280949   4.887   5.933   1.881  0.0452 -0.5212  0.0440
19845TIP3    H180950   4.837   5.940   1.962 -0.0659 -0.0775 -0.0623
19845TIP3    H280951   4.885   6.021   1.844  0.6852 -0.5621 -0.0915
19846TIP3   OH280952   1.619   2.111   0.983  0.2012 -0.0911  0.2751
19846TIP3    H180953   1.710   2.083   0.980  0.0167 -0.6038 -1.2660
19846TIP3    H280954   1.620   2.191   1.037  1.6570  0.3037 -0.3042
19847TIP3   OH280955   2.303   0.674  15.747 -0.7136 -0.6593  0.5231
19847TIP3    H180956   2.317   0.673  15.652  1.2869 -2.0787  0.7543
19847TIP3    H280957   2.213   0.705  15.758 -0.7631  0.2271 -1.7871
19848TIP3   OH280958   4.672   3.384   2.674  0.1503 -0.4174 -0.2698
19848TIP3    H180959   4.622   3.454   2.716  0.7217 -1.5149  2.4737
19848TIP3    H280960   4.605   3.324   2.641 -0.3416  0.0511 -0.1429
19849TIP3   OH280961   2.830   6.686  15.622 -0.4425  0.1407 -0.3533
19849TIP3    H180962   2.792   6.655  15.540 -0.2749 -0.3662 -0.2423
19849TIP3    H280963   2.817   6.781  15.620 -2.0008 -0.0437 -0.1560
19850TIP3   OH280964   4.794   3.145   1.626 -0.0726 -0.5844 -0.1104
19850TIP3    H180965   4.822   3.156   1.535  2.2783  2.2854  0.8184
19850TIP3    H280966   4.706   3.183   1.629  0.3291  0.4628 -0.9716
19851TIP3   OH280967   1.064   2.004  10.542  0.0326 -0.2565 -0.6614
19851TIP3    H180968   1.004   1.969  10.475  0.8488  0.7222 -1.9588
19851TIP3    H280969   1.130   1.935  10.553  0.2278 -0.1850 -1.3311
19852TIP3   OH280970   2.824   6.742  16.577  0.5807 -0.1872  0.0154
19852TIP3    H180971   2.808   6.730  16.671  0.7867 -0.6832 -0.0133
19852TIP3    H280972   2.780   6.668  16.535  0.7292 -0.1194 -0.2594
19853TIP3   OH280973   6.053   5.888   2.392 -0.0222 -0.1860  0.3516
19853TIP3    H180974   6.040   5.885   2.487  1.4327  0.7375  0.6193
19853TIP3    H280975   6.033   5.978   2.368  0.4443 -0.1879 -0.0672
19854TIP3   OH280976   1.815   4.624  11.231 -0.5214  0.0810  0.4526
19854TIP3    H180977   1.775   4.708  11.209  1.4449  1.1535  0.7817
19854TIP3    H280978   1.841   4.633  11.322  0.4456 -0.5967  0.2550
19855TIP3   OH280979   1.127   6.114   1.462  0.2234 -0.2822  0.6281
19855TIP3    H180980   1.218   6.142   1.452 -0.3081  1.4986  0.3603
19855TIP3    H280981   1.077   6.185   1.421 -1.2926 -1.1032  1.0250
19856TIP3   OH280982   1.482   5.728   0.306 -0.2707 -0.1506 -0.5848
19856TIP3    H180983   1.454   5.791   0.240 -3.9691 -2.6342 -1.7282
19856TIP3    H280984   1.400   5.694   0.343  1.5682 -2.2270  1.9784
19857TIP3   OH280985   6.622   5.163  14.486  0.3140  0.5647  0.6108
19857TIP3    H180986   6.664   5.077  14.494 -0.3886  0.2457  0.9651
19857TIP3    H280987   6.565   5.169  14.563  0.7549  1.5772  0.8773
19858TIP3   OH280988   0.896   5.022   2.765 -0.2067 -0.2357 -0.1076
19858TIP3    H180989   0.968   4.979   2.810  0.3181  0.1534 -0.5644
19858TIP3    H280990   0.838   4.950   2.738 -0.7596 -0.4574  1.5326
19859TIP3   OH280991   6.430   1.687  15.029  0.0900  0.2198  0.1649
19859TIP3    H180992   6.394   1.760  15.079 -1.3509 -0.6702  0.4883
19859TIP3    H280993   6.459   1.624  15.096  0.2719  0.0088 -0.1115
19860TIP3   OH280994   2.030   1.689   2.518 -0.0025 -0.3556  0.0628
19860TIP3    H180995   2.022   1.752   2.446  1.3852 -1.0369 -0.7447
19860TIP3    H280996   1.967   1.620   2.497 -0.2349 -0.1203 -0.0226
19861TIP3   OH280997   5.353   5.854  13.851  0.0570  0.1296  0.6803
19861TIP3    H180998   5.294   5.925  13.825 -1.9476 -1.0611  1.7239
19861TIP3    H280999   5.405   5.836  13.773 -0.5686  1.6047 -0.1103
19862TIP3   OH281000   2.615   3.210   2.371 -0.0808  0.2258  0.0485
19862TIP3    H181001   2.696   3.166   2.396  0.0558  0.5050  0.1068
19862TIP3    H281002   2.549   3.177   2.433  0.4881  1.7395  1.5654
19863TIP3   OH281003   0.718   4.283   6.188 -0.1333  0.3453 -0.5060
19863TIP3    H181004   0.705   4.208   6.129 -0.0991  0.1305 -0.2429
19863TIP3    H281005   0.647   4.277   6.252 -0.5252  0.9269 -0.8781
19864TIP3   OH281006   1.749   3.481   1.789 -0.3536  0.1630 -0.2874
19864TIP3    H181007   1.765   3.388   1.776 -0.7727 -0.1462  1.2513
19864TIP3    H281008   1.677   3.485   1.852  0.1200  1.5183  0.2103
19865TIP3   OH281009   0.040   6.290   1.567  0.7527  0.5478  0.1739
19865TIP3    H181010   0.070   6.376   1.595  0.5118  0.4863  0.6210
19865TIP3    H281011  -0.043   6.276   1.613  0.9079 -0.0228  0.2919
19866TIP3   OH281012   1.617   4.206  14.871  0.4035  0.1472  0.0967
19866TIP3    H181013   1.555   4.169  14.809  1.6488 -0.2152 -0.9847
19866TIP3    H281014   1.689   4.142  14.874  0.8065  0.6232  1.1782
19867TIP3   OH281015   3.638   5.968  12.831 -0.8083  0.6603  0.3977
19867TIP3    H181016   3.679   5.884  12.809 -0.5331  1.0065 -0.4462
19867TIP3    H281017   3.675   6.030  12.768 -1.4715  1.2962  0.6189
19868TIP3   OH281018   0.295   1.610  12.885  0.1676 -0.1374  0.0288
19868TIP3    H181019   0.311   1.531  12.937  0.2025  0.3073  0.6973
19868TIP3    H281020   0.347   1.597  12.806  0.1567 -0.7935  0.1182
19869TIP3   OH281021   1.738   1.479  15.095 -0.5677  0.9704  0.1018
19869TIP3    H181022   1.695   1.451  15.014  0.4696 -1.4004  0.2915
19869TIP3    H281023   1.722   1.407  15.156  1.4833  1.1705  0.9471
19870TIP3   OH281024   5.767   4.381  14.471  0.0782 -0.1685 -0.3642
19870TIP3    H181025   5.830   4.367  14.400 -0.3420 -1.2150 -0.5568
19870TIP3    H281026   5.765   4.298  14.519  0.1540  0.4407  0.7208
19871TIP3   OH281027   1.787   0.044  13.431  0.3908 -0.0480 -0.3710
19871TIP3    H181028   1.816   0.115  13.373  1.9150 -1.9109 -2.0519
19871TIP3    H281029   1.816   0.071  13.518  0.9572  1.3598 -0.9639
19872TIP3   OH281030   1.542   5.405  11.700 -0.2351 -0.3526  0.3050
19872TIP3    H181031   1.554   5.500  11.691 -2.3923 -0.2117 -3.4159
19872TIP3    H281032   1.494   5.394  11.782 -1.4735  2.0042 -0.0291
19873TIP3   OH281033   3.518   2.683   2.618 -0.0383  0.1610  0.2679
19873TIP3    H181034   3.434   2.656   2.581 -0.5230  1.1392  0.6142
19873TIP3    H281035   3.578   2.682   2.543 -0.5153  0.0858 -0.1203
19874TIP3   OH281036   1.727   2.638  12.909  0.7018 -0.2354  0.6152
19874TIP3    H181037   1.786   2.709  12.886  0.3540  0.1358  0.8496
19874TIP3    H281038   1.709   2.650  13.002  0.1435 -0.2519  0.5129
19875TIP3   OH281039   2.296   2.642  11.581  0.1800  0.2888 -1.0080
19875TIP3    H181040   2.212   2.686  11.594 -0.5065 -1.7291  3.0622
19875TIP3    H281041   2.274   2.556  11.547  0.5729 -0.1225 -0.2662
19876TIP3   OH281042   3.680   0.067  14.094  0.1091  0.0779  0.2428
19876TIP3    H181043   3.745   0.129  14.062 -0.2781 -0.1638 -1.0608
19876TIP3    H281044   3.715  -0.019  14.073 -0.7065 -0.0509 -0.6897
19877TIP3   OH281045   3.110   6.477  14.844 -0.2864 -0.3774  0.4197
19877TIP3    H181046   3.181   6.465  14.908  0.0503  1.1088  0.3604
19877TIP3    H281047   3.033   6.497  14.897 -0.2050 -0.0155  0.4037
19878TIP3   OH281048   0.052   6.577  16.207 -0.7691  0.3185 -0.3505
19878TIP3    H181049   0.123   6.629  16.168 -0.7888 -0.9536 -2.2317
19878TIP3    H281050   0.068   6.580  16.301  1.0829  1.0392 -0.6563
19879TIP3   OH281051   2.983   1.769  13.619  0.4725  0.5042  0.1434
19879TIP3    H181052   2.888   1.758  13.621  0.5835 -1.3283 -1.3242
19879TIP3    H281053   3.004   1.780  13.526  1.8440 -1.2722  0.1813
19880TIP3   OH281054   6.450   3.006   1.131 -0.5105 -0.2258 -0.2685
19880TIP3    H181055   6.409   2.985   1.215  0.2819 -0.9488 -0.0527
19880TIP3    H281056   6.391   2.966   1.066 -0.8630 -0.0933 -0.0302
19881TIP3   OH281057   5.020   4.899  10.835  0.2847 -0.2258  0.1135
19881TIP3    H181058   5.080   4.933  10.769 -2.0022  1.7487 -1.1300
19881TIP3    H281059   4.994   4.813  10.803  0.3725  0.0681 -0.7584
19882TIP3   OH281060   5.057   0.162  15.512 -0.3939  0.5607 -0.9585
19882TIP3    H181061   5.123   0.231  15.511  0.4460 -0.1781 -2.8233
19882TIP3    H281062   4.982   0.200  15.557  1.4897  1.1938  1.8342
19883TIP3   OH281063   4.573   1.449  15.293 -0.2233 -0.1996 -0.2716
19883TIP3    H181064   4.586   1.487  15.206 -1.7087  0.0836 -0.3965
19883TIP3    H281065   4.480   1.426  15.296 -1.0492  2.8122  2.3811
19884TIP3   OH281066   3.046   4.555  16.933  0.0591  0.0357 -0.1501
19884TIP3    H181067   2.989   4.629  16.912  2.4690  1.5514 -1.8750
19884TIP3    H281068   3.129   4.596  16.960  1.1732 -2.0507 -0.2256
19885TIP3   OH281069   4.488   4.742   1.201  0.5435  0.1226  0.1871
19885TIP3    H181070   4.489   4.755   1.106 -1.5865 -0.8788 -0.0390
19885TIP3    H281071   4.564   4.686   1.218  1.6577  1.2922 -0.7139
19886TIP3   OH281072   3.861   4.438   0.849 -0.1243  0.2135 -0.0991
19886TIP3    H181073   3.900   4.381   0.916  0.3506 -0.0962 -0.6359
19886TIP3    H281074   3.870   4.526   0.886  1.0919  0.1474 -0.2100
19887TIP3   OH281075   0.018   4.091   1.045 -0.6901 -0.4639  0.2385
19887TIP3    H181076   0.034   4.134   1.129 -1.9544 -2.8048  1.8018
19887TIP3    H281077   0.103   4.090   1.002 -0.2661  1.9414  0.8503
19888TIP3   OH281078   1.856   2.290   1.559 -0.3218 -0.4577 -0.2595
19888TIP3    H181079   1.886   2.369   1.514  1.2468 -0.4303  0.7689
19888TIP3    H281080   1.871   2.307   1.651  0.1398 -1.9799 -0.0250
19889TIP3   OH281081   5.731   2.100   0.907 -0.2085  0.4986  0.6214
19889TIP3    H181082   5.711   2.147   0.826 -2.2068 -1.5575 -0.1857
19889TIP3    H281083   5.712   2.163   0.977 -1.4094  1.3599 -0.4332
19890TIP3   OH281084   5.321   3.513  15.194 -0.2098  0.0387  0.0327
19890TIP3    H181085   5.393   3.460  15.227 -1.0964 -0.5682  1.0585
19890TIP3    H281086   5.362   3.571  15.129  0.7462 -2.0115 -1.3039
19891TIP3   OH281087   6.405   5.484  16.376  0.7887  0.0400  0.4136
19891TIP3    H181088   6.426   5.464  16.467  0.2342  1.0180  0.7696
19891TIP3    H281089   6.444   5.412  16.326  4.5840  1.4398  1.0397
19892TIP3   OH281090   0.837   4.365  11.329  0.0211  0.0553  0.9125
19892TIP3    H181091   0.805   4.330  11.412 -0.4729  0.6782  0.9898
19892TIP3    H281092   0.786   4.445  11.315 -1.4834 -1.1428 -1.0433
19893TIP3   OH281093   1.727   3.745  14.215  0.5341 -0.2975 -0.3855
19893TIP3    H181094   1.662   3.763  14.147  1.1551 -1.0954 -1.2135
19893TIP3    H281095   1.686   3.775  14.296 -0.7069 -0.4295 -0.9436
19894TIP3   OH281096   2.869   0.210  16.519  0.7715  0.1327 -0.3148
19894TIP3    H181097   2.822   0.127  16.525  1.3063 -0.2395 -1.1327
19894TIP3    H281098   2.912   0.219  16.604 -1.0560  0.6754  0.5961
19895TIP3   OH281099   3.403   1.463   3.714 -0.2418 -0.3900 -0.5636
19895TIP3    H181100   3.471   1.414   3.668  0.0141  1.3063 -2.1151
19895TIP3    H281101   3.321   1.431   3.677 -0.1536 -0.5977 -0.5814
19896TIP3   OH281102   3.098   3.031  15.356  0.1507  0.5564  0.1075
19896TIP3    H181103   3.090   3.010  15.263 -0.6412  0.1638  0.2525
19896TIP3    H281104   3.023   2.987  15.397  2.2564 -2.0380  1.4386
19897TIP3   OH281105   1.500   2.747   4.933  0.3872  0.3049  0.3277
19897TIP3    H181106   1.510   2.674   4.871 -2.1129 -0.8905  1.2003
19897TIP3    H281107   1.543   2.821   4.890  0.9829 -1.1057 -1.6469
19898TIP3   OH281108   1.040   4.589   5.361 -0.1735  0.1955 -0.0719
19898TIP3    H181109   1.058   4.535   5.437 -1.3911 -1.1711 -0.7202
19898TIP3    H281110   0.976   4.540   5.310 -0.1979  1.5612 -1.4516
19899TIP3   OH281111   0.495   1.171  11.074  0.2822 -0.0263 -0.6477
19899TIP3    H181112   0.464   1.111  11.006  0.2893  0.0599 -0.7278
19899TIP3    H281113   0.419   1.184  11.131 -0.2742  1.2962 -1.6330
19900TIP3   OH281114   1.880   4.469   1.888 -0.8501 -0.4793 -0.4920
19900TIP3    H181115   1.844   4.386   1.857 -0.4138 -0.4350 -1.1354
19900TIP3    H281116   1.889   4.457   1.983 -2.2706 -0.5913 -0.3496
19901TIP3   OH281117   2.642   3.116  15.946  0.1752 -0.2433  0.3687
19901TIP3    H181118   2.604   3.191  15.900 -1.8655 -0.4367  1.6176
19901TIP3    H281119   2.712   3.154  16.000  1.2173  0.2639 -1.2566
19902TIP3   OH281120   5.500   2.392   0.815 -0.4781  0.4357  0.0908
19902TIP3    H181121   5.459   2.339   0.884  0.9644  0.7341  1.2412
19902TIP3    H281122   5.577   2.341   0.789 -0.2181  0.9991 -0.2597
19903TIP3   OH281123   2.132   0.952   5.219 -0.2406  0.0610 -0.3942
19903TIP3    H181124   2.154   1.033   5.173  1.8793  0.0982  0.5756
19903TIP3    H281125   2.061   0.976   5.278  0.5412  1.3051  0.0727
19904TIP3   OH281126   0.406   1.323   0.451 -0.3679 -0.1095 -0.6225
19904TIP3    H181127   0.376   1.254   0.511 -0.1292 -0.2939 -0.7102
19904TIP3    H281128   0.477   1.281   0.401  2.5142  1.2716  1.9397
19905TIP3   OH281129   0.153   2.032  10.240  0.0120  0.0777  0.2213
19905TIP3    H181130   0.063   2.014  10.212  0.0794 -0.7067  0.4679
19905TIP3    H281131   0.143   2.087  10.318 -0.2506  0.0851  0.1858
19906TIP3   OH281132   2.075   4.560   4.358  0.6477 -0.5421 -0.4266
19906TIP3    H181133   2.007   4.530   4.418 -0.5086 -0.2173 -1.5364
19906TIP3    H281134   2.042   4.538   4.271  1.8612 -0.1603 -1.0129
19907TIP3   OH281135   0.678   5.728  11.608 -0.2066  0.0815 -0.5653
19907TIP3    H181136   0.678   5.808  11.660 -3.2274  0.0708 -0.3822
19907TIP3    H281137   0.757   5.733  11.555  1.0380  1.8769  1.3400
19908TIP3   OH281138   4.762   0.010   2.504 -0.3325  0.2836 -0.1446
19908TIP3    H181139   4.755  -0.017   2.596 -1.9856 -0.5109 -0.4642
19908TIP3    H281140   4.741  -0.069   2.455 -2.6683  1.4440 -1.1593
19909TIP3   OH281141   0.871   4.024  11.664  0.4608  0.4394  0.1014
19909TIP3    H181142   0.900   4.111  11.690 -0.3063  0.4087  1.1148
19909TIP3    H281143   0.901   3.966  11.734 -0.1945  0.0924  0.1010
19910TIP3   OH281144   4.319   5.236   0.390 -0.1945  0.2077 -0.0227
19910TIP3    H181145   4.241   5.288   0.372 -2.5385 -3.1281 -0.4482
19910TIP3    H281146   4.349   5.266   0.476 -2.2362  1.2963  0.3790
19911TIP3   OH281147   3.183   0.475   4.924  0.7887  0.5129 -0.0581
19911TIP3    H181148   3.134   0.552   4.896  1.8658  1.4832  0.6641
19911TIP3    H281149   3.247   0.461   4.854  0.5747  0.2423 -0.2031
19912TIP3   OH281150   1.303   5.384   3.151 -0.3426  0.2662  0.6142
19912TIP3    H181151   1.243   5.418   3.085 -0.7856 -2.1197 -0.2857
19912TIP3    H281152   1.387   5.426   3.130 -0.5274 -0.2484 -1.3397
19913TIP3   OH281153   1.210   5.689   4.277  0.4347  0.1993  0.5188
19913TIP3    H181154   1.189   5.611   4.225  0.3541 -0.4014  1.4304
19913TIP3    H281155   1.260   5.655   4.351 -0.5254  0.8835  1.4945
19914TIP3   OH281156   0.989   4.700   2.092 -0.5727 -0.1149  0.1387
19914TIP3    H181157   1.045   4.752   2.034  0.8687 -1.1979  0.5047
19914TIP3    H281158   1.044   4.628   2.121 -1.8865 -0.7224  1.2728
19915TIP3   OH281159   0.316   3.354  15.172 -0.5132 -0.3800  0.0616
19915TIP3    H181160   0.310   3.272  15.123 -1.4665 -0.7544  0.7743
19915TIP3    H281161   0.381   3.405  15.124  2.3632 -2.6469  1.1845
19916TIP3   OH281162   0.104   4.787  13.623 -0.8094 -0.2567  0.4118
19916TIP3    H181163   0.051   4.714  13.590 -2.4563  1.3544 -0.6763
19916TIP3    H281164   0.042   4.858  13.636  0.6287  0.7570  2.2043
19917TIP3   OH281165   4.922   6.587   0.592 -0.3617 -0.2908  0.1737
19917TIP3    H181166   4.939   6.526   0.520  0.7222 -0.0156  0.1801
19917TIP3    H281167   4.849   6.547   0.640 -1.7319 -0.0078 -1.5821
19918TIP3   OH281168   3.735   2.302  11.168 -0.0668 -0.0361 -0.5860
19918TIP3    H181169   3.690   2.341  11.093 -0.0129 -0.5780 -0.9062
19918TIP3    H281170   3.690   2.218  11.182 -1.6998  1.0743  1.5247
19919TIP3   OH281171   0.023   2.650  12.394 -0.4014 -0.4481  0.1602
19919TIP3    H181172   0.083   2.589  12.350  1.1569 -0.1054  1.7174
19919TIP3    H281173  -0.047   2.595  12.428 -0.1932 -1.0601 -0.3820
19920TIP3   OH281174   3.668   0.488  13.323 -0.1840 -0.1036 -0.0221
19920TIP3    H181175   3.754   0.511  13.288  0.2061 -1.0440  0.2925
19920TIP3    H281176   3.640   0.413  13.270 -0.4171 -0.3526  0.4502
19921TIP3   OH281177   0.921   2.567   5.480 -0.3397 -0.1201 -0.5591
19921TIP3    H181178   0.860   2.598   5.413  0.1829  1.6500 -0.2656
19921TIP3    H281179   0.873   2.575   5.562 -0.6185 -1.3108 -0.5828
19922TIP3   OH281180   3.479   4.950  12.139  0.3697  0.2463  0.0199
19922TIP3    H181181   3.570   4.926  12.123  0.3584 -1.0824  1.6955
19922TIP3    H281182   3.429   4.878  12.101 -0.0242  1.0000 -0.9450
19923TIP3   OH281183   5.918   5.508  13.037  0.2059  0.1690  0.0538
19923TIP3    H181184   5.848   5.534  13.097 -0.1131 -0.2380 -0.1407
19923TIP3    H281185   5.976   5.584  13.033 -0.9195  1.0050 -0.8118
19924TIP3   OH281186   4.790   2.121  13.638 -0.2004 -0.1103  0.2417
19924TIP3    H181187   4.797   2.196  13.697  0.4278  0.5405 -0.6233
19924TIP3    H281188   4.750   2.052  13.691 -1.7592  1.1433  0.7783
19925TIP3   OH281189   0.310   6.280  14.248 -0.0379 -0.2678  0.4424
19925TIP3    H181190   0.352   6.320  14.172 -1.2481 -1.1348 -0.7438
19925TIP3    H281191   0.261   6.206  14.211  0.1207 -1.2979  2.2091
19926TIP3   OH281192   6.782   5.586  16.712 -0.5316 -0.0058 -0.0175
19926TIP3    H181193   6.785   5.505  16.764  1.3450 -0.6749 -1.0556
19926TIP3    H281194   6.776   5.555  16.621  0.9871  0.9681 -0.4796
19927TIP3   OH281195   5.869   5.199  11.468 -0.2618 -0.3125 -0.1125
19927TIP3    H181196   5.852   5.106  11.455 -2.6656  0.0344  0.0986
19927TIP3    H281197   5.915   5.203  11.552  1.4078 -1.3823 -0.9165
19928TIP3   OH281198   2.217   5.181  16.835 -0.7502  0.2998 -0.1916
19928TIP3    H181199   2.222   5.253  16.898  2.3947  0.5317 -0.5691
19928TIP3    H281200   2.237   5.221  16.751 -2.2235 -0.5056 -0.9749
19929TIP3   OH281201   6.220   4.659  11.596  0.3485 -0.3452  0.1965
19929TIP3    H181202   6.254   4.726  11.654  2.3660 -0.9043 -0.2549
19929TIP3    H281203   6.135   4.636  11.633  0.0574  1.6955  0.9398
19930TIP3   OH281204   1.401   4.997  11.516  0.3577  0.5692  0.0747
19930TIP3    H181205   1.453   4.974  11.593  0.4858  1.0576  0.1421
19930TIP3    H281206   1.400   5.093  11.516 -1.3885  0.5941  0.6466
19931TIP3   OH281207   6.337   4.183  12.610  0.3733 -0.2316  0.2762
19931TIP3    H181208   6.386   4.233  12.544 -0.6742  0.6589  0.1505
19931TIP3    H281209   6.271   4.136  12.560  1.1799 -1.5861  0.4252
19932TIP3   OH281210   3.792   5.497   4.573  0.0625  0.5139 -0.3212
19932TIP3    H181211   3.775   5.498   4.667 -2.5174 -0.8749 -0.6862
19932TIP3    H281212   3.727   5.555   4.535 -0.6012 -0.8744 -1.4138
19933TIP3   OH281213   0.309   2.476  13.100  0.1473  0.2857 -0.5895
19933TIP3    H181214   0.274   2.565  13.090  1.2271  0.6186 -1.7337
19933TIP3    H281215   0.396   2.489  13.138 -0.3731 -0.4245  0.8897
19934TIP3   OH281216   0.068   4.246   2.115 -0.1512  0.1965  0.5194
19934TIP3    H181217   0.122   4.323   2.099 -1.0772  0.8138  0.2966
19934TIP3    H281218   0.116   4.174   2.073  0.3133  0.7948  0.0094
19935TIP3   OH281219   5.929   6.123   0.380 -0.3614 -0.0699 -0.4153
19935TIP3    H181220   5.997   6.130   0.313 -1.7828 -1.1888 -2.0507
19935TIP3    H281221   5.942   6.035   0.417 -0.1742  0.1866  0.1432
19936TIP3   OH281222   3.946   6.565  11.012 -0.3036 -0.2698 -0.4607
19936TIP3    H181223   4.022   6.537  10.961 -0.2021  1.0037 -1.0427
19936TIP3    H281224   3.899   6.626  10.955 -1.6925 -0.9008 -0.0504
19937TIP3   OH281225   6.562   6.271   5.242 -0.1330 -0.1089 -0.0127
19937TIP3    H181226   6.501   6.296   5.173  1.2176 -1.8558 -1.9932
19937TIP3    H281227   6.634   6.333   5.233  0.1165 -0.4350 -0.3317
19938TIP3   OH281228   1.541   0.463   2.777  0.2112  0.3667 -0.5660
19938TIP3    H181229   1.446   0.450   2.773 -0.0643  1.9278  0.0422
19938TIP3    H281230   1.559   0.529   2.711  0.5188  1.6811  0.7784
19939TIP3   OH281231   5.920   4.433   1.737  0.2071  0.2087 -0.1588
19939TIP3    H181232   5.863   4.364   1.704 -0.3964  0.4520  0.3483
19939TIP3    H281233   5.941   4.406   1.827  0.8668  0.1397 -0.3283
19940TIP3   OH281234   5.896   0.991   4.283  0.3674 -0.2540  0.0981
19940TIP3    H181235   5.966   0.926   4.282  1.5313  0.8801  1.8533
19940TIP3    H281236   5.817   0.942   4.262  1.6289 -1.5839 -1.9545
19941TIP3   OH281237   0.581   5.058   1.749  0.0631  0.4692  0.5513
19941TIP3    H181238   0.672   5.066   1.722 -0.3050  0.7992 -0.6327
19941TIP3    H281239   0.553   5.148   1.767 -0.4194  0.5219 -0.4264
19942TIP3   OH281240   1.114   3.538  16.208  0.0089 -0.0517 -0.1433
19942TIP3    H181241   1.086   3.625  16.235  1.2378  0.2756  0.1395
19942TIP3    H281242   1.037   3.483  16.220 -0.0243  0.4269  2.3524
19943TIP3   OH281243   0.037   5.797  15.917  0.5794 -0.6750  0.0221
19943TIP3    H181244   0.120   5.835  15.887  1.6522 -1.5401  1.7527
19943TIP3    H281245   0.057   5.761  16.003 -1.3362 -1.8792  0.0128
19944TIP3   OH281246   3.296   5.402  12.694  0.7274  0.0613  0.1110
19944TIP3    H181247   3.218   5.367  12.651  0.8246 -0.9438  0.7170
19944TIP3    H281248   3.369   5.371  12.641  0.7672  0.1658  0.1038
19945TIP3   OH281249   1.026   1.569  15.382  0.0945  0.2894 -0.1558
19945TIP3    H181250   0.980   1.507  15.325  0.2886 -0.5770  0.6018
19945TIP3    H281251   0.974   1.570  15.463  0.5319  0.5071  0.1250
19946TIP3   OH281252   1.756   4.003  11.289  0.5302 -0.2874  0.4866
19946TIP3    H181253   1.823   3.991  11.222 -1.0974 -0.5294 -1.1724
19946TIP3    H281254   1.697   4.068  11.252  0.2132  0.4640  2.2246
19947TIP3   OH281255   5.277   6.578  12.964  0.5293 -0.0889  0.0984
19947TIP3    H181256   5.289   6.483  12.969 -2.5167 -0.6642 -0.9119
19947TIP3    H281257   5.263   6.605  13.055 -0.5993 -1.0038  0.2285
19948TIP3   OH281258   0.506   0.032  16.447  0.1078 -0.1972 -0.2843
19948TIP3    H181259   0.501  -0.064  16.454 -0.1165 -0.2284 -0.7872
19948TIP3    H281260   0.415   0.060  16.452  0.3263  0.2994  3.4832
19949TIP3   OH281261   6.087   0.208  13.562  0.0110 -0.0730  0.6550
19949TIP3    H181262   6.158   0.164  13.609 -0.6074  0.1714  1.8842
19949TIP3    H281263   6.097   0.300  13.587  0.3670  0.2550 -0.6548
19950TIP3   OH281264   3.398   1.574   4.580  0.1309 -0.8252  0.6220
19950TIP3    H181265   3.393   1.525   4.662  2.0736 -0.5231  0.9692
19950TIP3    H281266   3.491   1.574   4.558 -0.0932  0.8753 -0.4965
19951TIP3   OH281267   5.432   4.479   2.315  0.0869  0.3219 -0.0293
19951TIP3    H181268   5.432   4.460   2.222  0.5041  0.5333 -0.0761
19951TIP3    H281269   5.501   4.545   2.326  1.6745 -1.3697  0.7649
19952TIP3   OH281270   2.096   0.672   1.471  0.3638  0.3621 -0.0160
19952TIP3    H181271   2.174   0.668   1.527  0.2665 -0.4876  0.0772
19952TIP3    H281272   2.030   0.717   1.524  0.1802 -0.6938  0.6824
19953TIP3   OH281273   6.717   3.554   0.995  0.0542 -0.1281 -0.4775
19953TIP3    H181274   6.705   3.580   0.904  2.3800 -0.1212 -0.8449
19953TIP3    H281275   6.791   3.607   1.026  0.7715 -1.7275  0.7072
19954TIP3   OH281276   5.274   4.914   3.730 -0.5531  0.1120 -0.1801
19954TIP3    H181277   5.347   4.970   3.701 -1.6766  2.0880  0.6376
19954TIP3    H281278   5.303   4.880   3.815  1.4496 -3.2329 -1.9756
19955TIP3   OH281279   0.227   4.451   1.067 -0.0966  0.1523 -0.2512
19955TIP3    H181280   0.160   4.406   1.016 -0.3958  0.7991 -0.4369
19955TIP3    H281281   0.262   4.383   1.126 -0.2195 -0.4290 -0.8377
19956TIP3   OH281282   4.420   0.200  16.671 -0.4786  0.2131  0.0335
19956TIP3    H181283   4.505   0.233  16.642  0.3887  0.8545  2.9624
19956TIP3    H281284   4.431   0.105  16.673 -0.3311  0.2052 -1.0103
19957TIP3   OH281285   3.117   1.833  14.646  0.2801 -0.0785  0.3385
19957TIP3    H181286   3.160   1.861  14.726  1.0839 -0.4279  0.0406
19957TIP3    H281287   3.155   1.747  14.627  0.7617  0.3948 -0.9025
19958TIP3   OH281288   2.501   4.401  16.745 -0.2247 -0.5811  0.5447
19958TIP3    H181289   2.455   4.317  16.742  0.2266 -0.8175 -0.3701
19958TIP3    H281290   2.543   4.408  16.659 -0.0952  0.4962  0.6796
19959TIP3   OH281291   5.748   0.104   2.416 -0.3918  0.4607  0.0353
19959TIP3    H181292   5.730   0.198   2.430 -1.1766  0.5735 -1.4876
19959TIP3    H281293   5.731   0.091   2.322 -0.0959 -1.1676  0.1950
19960TIP3   OH281294   5.421   2.239  13.078  0.3686  0.7437 -0.2190
19960TIP3    H181295   5.351   2.279  13.130  0.0584 -1.2733  1.0471
19960TIP3    H281296   5.384   2.230  12.990 -0.5773  0.6853  0.1705
19961TIP3   OH281297   3.260   5.854   1.451  0.7490 -0.2597 -0.0810
19961TIP3    H181298   3.270   5.764   1.481 -0.5394 -0.5819 -0.5580
19961TIP3    H281299   3.165   5.866   1.442  0.8578  1.3481  0.5970
19962TIP3   OH281300   4.368   5.777  10.671  0.3390 -0.0337 -0.1289
19962TIP3    H181301   4.327   5.700  10.632 -3.9315  1.4197  0.9272
19962TIP3    H281302   4.374   5.839  10.598 -1.6350  0.4693  0.0562
19963TIP3   OH281303   2.473   4.581  15.879 -0.0152  0.0841 -0.6676
19963TIP3    H181304   2.533   4.650  15.909  0.5267 -0.3110 -0.8106
19963TIP3    H281305   2.420   4.623  15.812  0.3126  0.3683 -0.7541
19964TIP3   OH281306   6.326   1.178  15.559 -0.0715  0.6506  0.0546
19964TIP3    H181307   6.322   1.239  15.633  0.9505  1.4606 -0.5169
19964TIP3    H281308   6.318   1.234  15.482 -1.1898 -0.1911 -0.4562
19965TIP3   OH281309   4.183   2.375   1.276  0.3405 -0.3019  0.3468
19965TIP3    H181310   4.188   2.298   1.333  2.8580 -1.0533 -0.7592
19965TIP3    H281311   4.156   2.341   1.191 -2.2899  0.6555  0.7084
19966TIP3   OH281312   1.540   4.602   0.646  0.1375  0.2071 -0.1511
19966TIP3    H181313   1.631   4.574   0.638  0.1484 -0.8567  2.6245
19966TIP3    H281314   1.523   4.602   0.740 -2.5428  1.0352 -0.5554
19967TIP3   OH281315   2.841   3.056   4.223 -1.1671 -0.1526 -0.1208
19967TIP3    H181316   2.831   3.001   4.146  2.6608 -0.9722 -0.1978
19967TIP3    H281317   2.826   3.145   4.191 -0.3034 -0.5298 -1.6753
19968LIG      O81318   3.508   3.363   3.259 -0.0708  0.6040 -0.0474
19968LIG      N81319   3.720   3.261   2.885 -0.5185 -0.4590 -0.0457
19968LIG     C181320   3.525   3.590   3.207 -0.1737 -0.7401 -0.4260
19968LIG     C281321   3.511   3.450   3.148  1.2269  0.5833 -0.1234
19968LIG     C381322   3.416   3.626   3.316  0.4499  0.6136  0.0932
19968LIG     C481323   3.659   3.616   3.291 -0.6940 -0.0857  0.0455
19968LIG     C581324   3.626   3.416   3.053 -0.1700  0.3448 -0.5948
19968LIG     C681325   3.427   3.773   3.363  0.1065 -0.0442  0.4671
19968LIG     C781326   3.669   3.762   3.330 -0.0791  0.3616  0.3827
19968LIG     C881327   3.561   3.801   3.428  0.9615 -0.4654  0.0430
19968LIG     C981328   3.612   3.284   2.982 -0.0149 -0.7479  0.5567
19968LIG    C1081329   3.366   3.444   3.072 -0.7662  0.4365 -1.3798
19968LIG    C1181330   3.740   3.127   2.838  0.3245  0.1210 -0.6496
19968LIG    C1281331   3.736   3.351   2.762 -0.0502  0.3085  0.2719
19968LIG    C1381332   3.624   3.076   2.744  0.0140 -0.1138 -1.3025
19968LIG    C1481333   3.625   3.317   2.665  0.0968  0.4814 -0.2885
19968LIG    C1581334   3.618   3.169   2.622  0.0546 -0.2008 -0.0952
19968LIG    C1681335   3.357   3.494   2.939 -0.1741  1.1419  0.3604
19968LIG    C1781336   3.250   3.392   3.139  0.4595  0.0793 -0.1678
19968LIG    C1881337   3.242   3.462   2.865  0.5828  0.2058  0.0135
19968LIG    C1981338   3.134   3.375   3.065 -0.0382  0.7003  0.0230
19968LIG    C2081339   3.132   3.404   2.926 -0.2557 -0.2267 -0.0384
19968LIG     H181340   3.527   3.673   3.133  2.7084 -0.5319 -0.2528
19968LIG     H281341   3.436   3.562   3.405 -0.7028 -0.5687 -0.4545
19968LIG     H381342   3.312   3.611   3.279  0.0153 -1.0012  1.7822
19968LIG     H481343   3.735   3.592   3.214 -0.1958  0.8621  0.2280
19968LIG     H581344   3.657   3.549   3.380 -2.4489  0.1229  0.1955
19968LIG     H681345   3.727   3.414   3.099 -0.3101 -0.1309 -0.2963
19968LIG     H781346   3.622   3.490   2.970  1.0792 -0.6326 -1.5735
19968LIG     H881347   3.341   3.788   3.432  0.3844 -0.1926  0.8467
19968LIG     H981348   3.417   3.829   3.267 -0.7028 -0.3523  0.3638
19968LIG    H1081349   3.656   3.822   3.237  0.8603  0.8865  0.5828
19968LIG    H1181350   3.766   3.785   3.378  0.4733 -2.6166  0.8771
19968LIG    H1281351   3.571   3.745   3.524  2.1129 -0.1701  0.1031
19968LIG    H1381352   3.565   3.910   3.451 -2.8216  0.0326 -0.9434
19968LIG    H1481353   3.613   3.193   3.045  1.0869 -0.9930  0.1997
19968LIG    H1581354   3.518   3.283   2.922 -0.2906  2.5054  0.7556
19968LIG    H1681355   3.733   3.063   2.928  0.4801 -0.7015 -1.2140
19968LIG    H1781356   3.840   3.113   2.792  0.6872 -1.9286  0.6493
19968LIG    H1881357   3.834   3.341   2.711 -0.8135  0.3303 -1.2570
19968LIG    H1981358   3.733   3.456   2.798  2.1608  0.3866  0.3067
19968LIG    H2081359   3.440   3.388   3.322  0.9034 -0.7566  1.6228
19968LIG    H2181360   3.529   3.072   2.802  0.8746 -5.6651  0.3254
19968LIG    H2281361   3.651   2.974   2.711 -0.9117 -1.1773  1.0204
19968LIG    H2381362   3.638   3.382   2.575  0.2918  0.7329 -0.0788
19968LIG    H2481363   3.527   3.346   2.708  0.2275  3.3674 -1.6416
19968LIG    H2581364   3.528   3.156   2.559 -0.2708 -1.3365  0.5789
19968LIG    H2681365   3.708   3.147   2.560  0.4860 -3.0728  1.3620
19968LIG    H2781366   3.436   3.544   2.886  0.3539 -0.7961 -0.7714
19968LIG    H2881367   3.246   3.370   3.245 -1.2628 -1.4093 -0.4984
19968LIG    H2981368   3.240   3.495   2.762  1.7176 -0.1054 -0.1281
19968LIG    H3081369   3.050   3.338   3.122  0.3736 -0.2443  0.0387
19968LIG    H3181370   3.034   3.400   2.879 -0.3868  1.4505  0.0579
   6.81297   6.81297  17.09490
